Title
42794
    1SAPS     N    1   2.934   3.280   5.973 -0.0402  0.2765 -0.0145
    1SAPS   HN1    2   2.970   3.333   6.055 -2.2830  0.9376  0.6127
    1SAPS   HN2    3   2.947   3.343   5.891 -1.0501  1.9546  1.0642
    1SAPS   HN3    4   2.831   3.278   5.980 -0.0783  1.0081 -0.2529
    1SAPS   C12    5   3.007   3.152   5.954  0.4015  1.1265 -0.3249
    1SAPS  H12A    6   3.069   3.136   6.042 -0.7611 -1.2307  0.1264
    1SAPS   C13    7   2.906   3.032   5.947  0.1496  0.2570 -0.1347
    1SAPS  O13A    8   2.780   3.052   5.957  0.3972 -0.5263 -0.0689
    1SAPS  O13B    9   2.935   2.913   5.907  0.3661 -0.2680  0.2435
    1SAPS   C11   10   3.092   3.157   5.824  0.1564 -0.0447 -0.3838
    1SAPS  H11A   11   3.026   3.161   5.735  0.3359 -1.1477 -0.5846
    1SAPS  H11B   12   3.138   3.059   5.799 -0.3782 -0.9632  1.9606
    1SAPS     P   13   3.324   3.254   5.877 -0.3585  0.0019  0.2834
    1SAPS   O13   14   3.408   3.368   5.836 -0.3635 -0.4494  0.1804
    1SAPS   O14   15   3.311   3.236   6.027  0.2470 -0.1818  0.2493
    1SAPS   O12   16   3.180   3.266   5.815  0.7052 -0.2380 -0.0789
    1SAPS   O11   17   3.384   3.123   5.811 -0.1875 -0.4245  0.2811
    1SAPS    C1   18   3.364   3.106   5.671 -0.0635  0.4510 -0.1900
    1SAPS    HA   19   3.355   2.998   5.645  0.7485  0.3145  0.0754
    1SAPS    HB   20   3.273   3.153   5.627  0.1475  1.7457  0.7046
    1SAPS    C2   21   3.485   3.165   5.589  0.8583  0.1632 -0.1901
    1SAPS    HS   22   3.503   3.268   5.627  0.7310 -0.2315  0.9861
    1SAPS   O21   23   3.452   3.161   5.447 -0.2433 -0.1010  0.2352
    1SAPS   C21   24   3.374   3.265   5.405  0.4394 -0.4688 -0.1461
    1SAPS   O22   25   3.315   3.345   5.470 -0.0425  0.1248 -0.6417
    1SAPS   C22   26   3.370   3.252   5.252  0.4527  0.2705 -0.0595
    1SAPS   H2R   27   3.473   3.227   5.219 -0.4557 -0.9051 -2.1952
    1SAPS   H2S   28   3.299   3.180   5.206  1.0703  1.2163 -2.6809
    1SAPS    C3   29   3.620   3.088   5.630  0.0812  0.6430 -0.2238
    1SAPS    HX   30   3.608   2.978   5.629  2.7072  0.2911 -0.4803
    1SAPS    HY   31   3.647   3.113   5.735 -0.3156 -0.0098  0.0334
    1SAPS   O31   32   3.736   3.110   5.543  0.1771  0.0066 -0.0381
    1SAPS   C31   33   3.777   3.235   5.540  0.0006 -0.1948  0.0947
    1SAPS   O32   34   3.726   3.337   5.584 -0.0172  0.4607  0.4814
    1SAPS   C32   35   3.908   3.238   5.454  0.4931 -0.5673 -0.4209
    1SAPS   H2X   36   3.953   3.136   5.453  0.5041 -0.5621 -0.4569
    1SAPS   H2Y   37   3.975   3.313   5.500  0.7687 -1.3706  0.5077
    1SAPS   C23   38   3.334   3.388   5.186  0.7634  0.1713  0.5234
    1SAPS   H3R   39   3.397   3.461   5.242  2.0881 -2.8311  3.2647
    1SAPS   H3S   40   3.225   3.409   5.194  0.6688  1.3198 -2.4836
    1SAPS   C24   41   3.351   3.396   5.035 -0.2790 -0.2522  0.5592
    1SAPS   H4R   42   3.282   3.317   4.997 -0.6474  0.5662 -0.5359
    1SAPS   H4S   43   3.452   3.368   4.999 -0.1496  0.8187  0.0318
    1SAPS   C25   44   3.309   3.530   4.976  0.6391  0.9642  0.7759
    1SAPS   H5R   45   3.201   3.543   4.991  0.0989 -0.2537 -1.4919
    1SAPS   C26   46   3.385   3.620   4.913  0.1103 -0.8666  0.5733
    1SAPS   H6R   47   3.346   3.719   4.883 -0.3895 -1.1687  0.2193
    1SAPS   C27   48   3.530   3.608   4.899  0.9695 -0.2592  0.1718
    1SAPS   H7R   49   3.555   3.500   4.905 -0.4119 -0.6009  0.0046
    1SAPS   H7S   50   3.579   3.664   4.982 -2.5920  0.9807  1.6430
    1SAPS   C28   51   3.592   3.650   4.771 -0.1264 -0.0383 -0.4471
    1SAPS   H8R   52   3.631   3.566   4.712  1.3765  0.0678  0.3477
    1SAPS   C29   53   3.611   3.775   4.725 -0.1909 -0.2774 -0.0893
    1SAPS   H9R   54   3.660   3.797   4.629 -2.0158  3.0531 -0.4379
    1SAPS  C210   55   3.578   3.901   4.805 -0.2209  0.6494  0.2535
    1SAPS  H10R   56   3.505   3.878   4.886  0.7560 -0.6990  0.7811
    1SAPS  H10S   57   3.527   3.973   4.737 -1.7179  1.2527  1.9166
    1SAPS  C211   58   3.695   3.958   4.874 -0.5022  0.2274  0.3035
    1SAPS  H11R   59   3.685   3.971   4.983 -0.1001  1.3784  0.2200
    1SAPS  C212   60   3.815   3.994   4.822  0.2160  0.5523 -0.1708
    1SAPS  H12R   61   3.891   4.040   4.886 -0.3267  1.2758 -0.0305
    1SAPS  C213   62   3.856   3.991   4.676  0.0371 -0.4662 -0.2042
    1SAPS  H13R   63   3.770   4.006   4.607  0.9347 -2.5088 -1.9098
    1SAPS  H13S   64   3.886   3.889   4.644 -1.9638 -1.5410  1.1297
    1SAPS  C214   65   3.958   4.094   4.635 -0.9613  0.4993  0.0988
    1SAPS  H14R   66   3.917   4.195   4.623 -0.0914  0.8676  0.1479
    1SAPS  C215   67   4.099   4.080   4.636  0.1733  0.1592 -0.1349
    1SAPS  H15R   68   4.167   4.156   4.594  1.0334  0.3608  1.5381
    1SAPS  C216   69   4.164   3.951   4.673  0.4728 -0.1520  0.2569
    1SAPS  H16R   70   4.095   3.869   4.642 -0.0406  0.9370 -1.6138
    1SAPS  H16S   71   4.170   3.948   4.784 -2.3462  2.2392  0.6059
    1SAPS  C217   72   4.302   3.942   4.604 -0.2825  0.6329 -0.1190
    1SAPS  H17R   73   4.351   4.041   4.612  0.3555  0.4858 -1.8892
    1SAPS  H17S   74   4.298   3.922   4.495  0.2278  0.4169 -0.1008
    1SAPS  C218   75   4.400   3.838   4.677 -0.1576  0.3785  0.3625
    1SAPS  H18R   76   4.411   3.748   4.614 -0.4351 -0.1349  1.0273
    1SAPS  H18S   77   4.348   3.811   4.772  1.9265  1.2406  1.8115
    1SAPS  C219   78   4.541   3.893   4.705 -0.1351  0.3624 -0.3234
    1SAPS  H19R   79   4.520   3.995   4.743 -2.2685 -0.5775  1.2903
    1SAPS  H19S   80   4.613   3.894   4.621  1.5956 -0.7684  1.0644
    1SAPS  C220   81   4.597   3.812   4.819  0.0129  0.4457  0.0697
    1SAPS  H20R   82   4.707   3.821   4.836  0.0866 -1.8160  1.0863
    1SAPS  H20S   83   4.574   3.704   4.809  0.0611  0.4624 -0.2299
    1SAPS  H20T   84   4.546   3.851   4.909  0.9845 -0.5207  1.0686
    1SAPS   C33   85   3.856   3.291   5.320 -0.5004 -0.0600 -0.6076
    1SAPS   H3X   86   3.950   3.297   5.260  0.7129 -2.1053  0.9407
    1SAPS   H3Y   87   3.810   3.392   5.325  3.2391  1.8910 -1.8578
    1SAPS   C34   88   3.767   3.186   5.251  0.2049 -0.9233  0.9900
    1SAPS   H4X   89   3.667   3.182   5.300  0.1994  2.9154  1.5424
    1SAPS   H4Y   90   3.819   3.088   5.259 -0.7371 -1.7538 -1.7083
    1SAPS   C35   91   3.761   3.212   5.101 -0.2651  0.0162 -0.2272
    1SAPS   H5X   92   3.859   3.232   5.053  1.1036  0.0980  2.4421
    1SAPS   H5Y   93   3.708   3.306   5.076  1.2890  0.9386 -0.1465
    1SAPS   C36   94   3.687   3.099   5.028  0.0498  0.1157 -0.6045
    1SAPS   H6X   95   3.579   3.107   5.055  0.3196 -3.1569  2.2644
    1SAPS   H6Y   96   3.726   3.002   5.066 -1.2744 -0.6501 -1.1357
    1SAPS   C37   97   3.714   3.086   4.876 -0.3431  0.2431 -0.1121
    1SAPS   H7X   98   3.684   2.983   4.846  0.2518 -0.4717  1.6489
    1SAPS   H7Y   99   3.823   3.089   4.858  0.5789 -3.3226  3.4542
    1SAPS   C38  100   3.649   3.193   4.795  0.5614  0.1458 -0.3500
    1SAPS   H8X  101   3.686   3.296   4.817 -0.0482  0.3176 -0.1160
    1SAPS   H8Y  102   3.541   3.192   4.820  0.3518 -0.7736 -1.2274
    1SAPS   C39  103   3.667   3.173   4.647  0.2550 -0.3034 -0.7242
    1SAPS   H9X  104   3.644   3.071   4.610 -1.0171 -0.0784 -0.6171
    1SAPS   H9Y  105   3.773   3.193   4.622  0.9408 -2.2187  0.4057
    1SAPS  C310  106   3.578   3.269   4.561  0.2609  0.4944 -0.4534
    1SAPS  H10X  107   3.632   3.274   4.464  0.6506 -0.8706 -0.3320
    1SAPS  H10Y  108   3.554   3.364   4.612 -1.5896  0.2761 -0.8524
    1SAPS  C311  109   3.435   3.212   4.536  0.0208 -0.1665  0.1214
    1SAPS  H11X  110   3.380   3.168   4.622  0.3226 -0.8791 -0.0406
    1SAPS  H11Y  111   3.443   3.132   4.460 -0.4327  0.5786 -0.7253
    1SAPS  C312  112   3.351   3.324   4.471 -0.2275  0.7672 -0.0352
    1SAPS  H12X  113   3.259   3.272   4.437  0.2957 -0.6406  0.6136
    1SAPS  H12Y  114   3.403   3.362   4.380 -4.2666 -0.1950 -3.0342
    1SAPS  C313  115   3.317   3.440   4.557  0.4514 -0.3919  0.2587
    1SAPS  H13X  116   3.404   3.509   4.560 -1.4484  2.1355  0.7658
    1SAPS  H13Y  117   3.294   3.411   4.662 -1.8401  0.0891 -0.0615
    1SAPS  C314  118   3.195   3.521   4.502 -0.0553  0.3579 -0.5614
    1SAPS  H14X  119   3.168   3.609   4.564 -0.5644  0.0893 -0.3981
    1SAPS  H14Y  120   3.105   3.456   4.494 -0.0605  0.0391  1.4314
    1SAPS  C315  121   3.212   3.579   4.359 -0.6494 -1.3155 -0.4544
    1SAPS  H15X  122   3.121   3.640   4.339  0.2081  1.4902  3.2219
    1SAPS  H15Y  123   3.213   3.496   4.285 -0.8749 -2.3599  0.6964
    1SAPS  C316  124   3.341   3.668   4.330  0.1583 -0.1495  0.4147
    1SAPS  H16X  125   3.348   3.693   4.222 -0.1588  0.5921  0.5586
    1SAPS  H16Y  126   3.428   3.605   4.357 -1.1288 -1.6650  1.2114
    1SAPS  C317  127   3.344   3.795   4.407  0.1770 -0.6760  0.3408
    1SAPS  H17X  128   3.445   3.839   4.392  0.8942 -1.9724  1.1835
    1SAPS  H17Y  129   3.332   3.770   4.515 -1.0792  0.5743  0.5235
    1SAPS  C318  130   3.237   3.897   4.374  0.2985  0.5383 -0.0837
    1SAPS  H18X  131   3.144   3.843   4.402  0.6905 -1.1999 -1.9068
    1SAPS  H18Y  132   3.234   3.922   4.266 -2.6917  2.9784  0.4097
    1SAPS  H18Z  133   3.257   3.983   4.442  2.0456 -0.1511  0.3328
    2SAPS     N  134   4.388   5.778   6.435 -0.7619  0.1533  0.1667
    2SAPS   HN1  135   4.437   5.686   6.441  0.5765  0.7382 -0.9989
    2SAPS   HN2  136   4.431   5.825   6.353  3.4453  0.9579  2.5363
    2SAPS   HN3  137   4.414   5.836   6.517 -1.3320 -0.7561  1.0162
    2SAPS   C12  138   4.240   5.741   6.428 -0.7012 -0.1998 -0.1892
    2SAPS  H12A  139   4.225   5.663   6.502  2.5555 -0.2703  0.5761
    2SAPS   C13  140   4.141   5.854   6.456 -0.2799  0.5438  0.2774
    2SAPS  O13A  141   4.184   5.973   6.453 -0.4277 -0.2072  0.3152
    2SAPS  O13B  142   4.021   5.821   6.465  0.2536 -0.4370 -0.5257
    2SAPS   C11  143   4.225   5.682   6.289  0.3570 -0.0404 -0.6086
    2SAPS  H11A  144   4.237   5.765   6.217 -2.2109  0.9411 -0.0262
    2SAPS  H11B  145   4.119   5.649   6.294  0.3665  0.0741  0.8194
    2SAPS     P  146   4.293   5.468   6.148  0.5464  0.3494 -0.0039
    2SAPS   O13  147   4.418   5.478   6.074 -0.1980 -1.0792  0.7504
    2SAPS   O14  148   4.248   5.340   6.214 -0.0650 -0.6547  0.5724
    2SAPS   O12  149   4.319   5.566   6.267  0.8368  0.0225  0.5248
    2SAPS   O11  150   4.176   5.530   6.063 -0.0251 -0.3136  0.4254
    2SAPS    C1  151   4.176   5.650   5.981 -0.2440 -0.3616 -0.4524
    2SAPS    HA  152   4.102   5.723   6.020  0.0529  0.1217 -0.7780
    2SAPS    HB  153   4.266   5.706   6.014 -0.6473  0.7382 -1.1549
    2SAPS    C2  154   4.176   5.632   5.820  0.3878 -0.5835  0.3193
    2SAPS    HS  155   4.070   5.624   5.787  0.6087  1.0652 -0.9191
    2SAPS   O21  156   4.250   5.510   5.784  0.2902 -0.6030 -0.2736
    2SAPS   C21  157   4.171   5.403   5.787 -0.4923 -0.0352  0.4341
    2SAPS   O22  158   4.053   5.399   5.814  0.2001  0.2656 -0.2195
    2SAPS   C22  159   4.264   5.283   5.751  0.4925  0.5108  0.7587
    2SAPS   H2R  160   4.368   5.324   5.752  0.3200  1.0783 -0.8096
    2SAPS   H2S  161   4.255   5.204   5.828  1.3912  0.4669  0.8327
    2SAPS    C3  162   4.230   5.761   5.746  0.9517  0.2536  0.3614
    2SAPS    HX  163   4.335   5.779   5.777  1.1174  0.8847 -0.5244
    2SAPS    HY  164   4.172   5.847   5.785  0.1308 -0.0804 -0.0942
    2SAPS   O31  165   4.224   5.762   5.596  0.4207  0.3760 -0.7279
    2SAPS   C31  166   4.105   5.789   5.549 -0.0521  0.2114  0.2507
    2SAPS   O32  167   4.011   5.829   5.617 -0.0385  0.2906 -0.1073
    2SAPS   C32  168   4.095   5.771   5.395 -0.0262  0.0514 -0.0791
    2SAPS   H2X  169   4.047   5.672   5.384 -0.6493  0.4211 -0.7462
    2SAPS   H2Y  170   4.197   5.767   5.352 -1.0879  0.4723 -2.8455
    2SAPS   C23  171   4.226   5.206   5.616 -0.0600 -0.2820 -0.1961
    2SAPS   H3R  172   4.141   5.136   5.632 -0.2820  0.1677  0.6415
    2SAPS   H3S  173   4.317   5.149   5.584  0.2392  0.2588 -0.3091
    2SAPS   C24  174   4.203   5.301   5.501 -0.0765  0.0390  0.2726
    2SAPS   H4R  175   4.282   5.377   5.488 -1.1664  1.4808  1.6479
    2SAPS   H4S  176   4.119   5.369   5.528  0.7576  0.3727  2.1768
    2SAPS   C25  177   4.185   5.223   5.378 -0.4054  0.0684  0.5022
    2SAPS   H5R  178   4.239   5.127   5.375  1.5664  1.1445  0.2021
    2SAPS   C26  179   4.158   5.277   5.259  1.0386 -0.3884  0.7003
    2SAPS   H6R  180   4.139   5.207   5.176  1.0911 -1.6287  1.7136
    2SAPS   C27  181   4.111   5.413   5.229  0.3185  0.3225 -0.3995
    2SAPS   H7R  182   4.132   5.467   5.324 -0.7466  3.4681 -1.8066
    2SAPS   H7S  183   4.000   5.410   5.225  0.2682 -0.1945  0.9735
    2SAPS   C28  184   4.175   5.493   5.115  0.0280  0.0272  0.2494
    2SAPS   H8R  185   4.280   5.504   5.146  1.1763 -2.8606 -2.1259
    2SAPS   C29  186   4.138   5.513   4.985  0.5668  0.2915  0.1417
    2SAPS   H9R  187   4.195   5.579   4.918  0.7787  1.1131  1.1177
    2SAPS  C210  188   4.012   5.462   4.921  0.0817  0.4720 -0.3989
    2SAPS  H10R  189   3.963   5.389   4.990 -3.4724  1.2753 -1.8819
    2SAPS  H10S  190   4.040   5.402   4.832  1.2506 -0.3783  0.5058
    2SAPS  C211  191   3.914   5.576   4.879  0.1529 -0.4708  0.4365
    2SAPS  H11R  192   3.899   5.651   4.959  0.1635 -0.0227  0.0215
    2SAPS  C212  193   3.848   5.588   4.760 -0.5507 -0.9772 -0.6739
    2SAPS  H12R  194   3.785   5.677   4.747 -0.8433 -0.8414  1.3489
    2SAPS  C213  195   3.856   5.489   4.650  0.9593 -0.3363  0.0612
    2SAPS  H13R  196   3.909   5.395   4.675  0.8090 -1.0153 -1.9955
    2SAPS  H13S  197   3.915   5.540   4.571  0.3499  0.6555  0.2223
    2SAPS  C214  198   3.711   5.473   4.604 -0.1219  0.1862  0.2227
    2SAPS  H14R  199   3.643   5.450   4.687 -2.4434  1.2083 -1.3012
    2SAPS  C215  200   3.663   5.451   4.479  0.4808  0.3841 -1.1803
    2SAPS  H15R  201   3.556   5.431   4.471  0.4807 -0.4053  0.3877
    2SAPS  C216  202   3.738   5.449   4.353 -0.3694 -0.4890 -0.0452
    2SAPS  H16R  203   3.832   5.505   4.371  1.3554 -3.5330  1.2163
    2SAPS  H16S  204   3.678   5.506   4.279 -0.4488 -0.5160 -0.0016
    2SAPS  C217  205   3.753   5.310   4.307  0.2550  0.2210 -0.2771
    2SAPS  H17R  206   3.653   5.260   4.312 -0.1609  1.1333  2.0302
    2SAPS  H17S  207   3.814   5.251   4.379 -2.3639  0.5695  2.4425
    2SAPS  C218  208   3.811   5.298   4.170  0.4569 -0.2635 -0.0558
    2SAPS  H18R  209   3.920   5.309   4.191  0.4789 -0.5219 -0.0378
    2SAPS  H18S  210   3.773   5.378   4.103 -0.3785  0.5321  1.3144
    2SAPS  C219  211   3.793   5.163   4.103 -0.1596  0.2380 -0.0427
    2SAPS  H19R  212   3.685   5.144   4.087 -0.2696  0.5841  0.2590
    2SAPS  H19S  213   3.843   5.080   4.158  1.3479  1.3042  0.2756
    2SAPS  C220  214   3.848   5.158   3.963  0.2473  0.3949 -0.0505
    2SAPS  H20R  215   3.819   5.070   3.902  0.7419  0.0492  0.2003
    2SAPS  H20S  216   3.958   5.144   3.977  0.2623  0.4942 -0.0717
    2SAPS  H20T  217   3.820   5.247   3.903  2.8222  0.4929 -1.2760
    2SAPS   C33  218   4.013   5.883   5.315  0.6640 -0.0062  0.3240
    2SAPS   H3X  219   4.067   5.980   5.319 -1.6723  1.6496 -3.3279
    2SAPS   H3Y  220   3.918   5.904   5.369  1.4933 -1.4440  2.4584
    2SAPS   C34  221   3.987   5.854   5.167 -1.0714 -0.2041 -0.4670
    2SAPS   H4X  222   3.917   5.771   5.146 -1.6984  0.0282  0.6405
    2SAPS   H4Y  223   4.083   5.817   5.125 -1.6189 -2.1074 -0.0960
    2SAPS   C35  224   3.935   5.978   5.102 -0.0768  0.1162  0.2621
    2SAPS   H5X  225   3.985   6.075   5.122 -1.5826  1.2629 -1.2169
    2SAPS   H5Y  226   3.833   6.002   5.137  0.0621  1.7999 -0.3823
    2SAPS   C36  227   3.918   5.949   4.945  0.3262 -0.0518 -0.0410
    2SAPS   H6X  228   3.873   6.034   4.891 -1.3610 -1.9294 -1.7756
    2SAPS   H6Y  229   3.852   5.861   4.930 -0.5664  0.3945  1.1460
    2SAPS   C37  230   4.052   5.922   4.879 -0.2556  0.9170 -0.2089
    2SAPS   H7X  231   4.099   5.828   4.911 -0.0200  0.8369 -0.7752
    2SAPS   H7Y  232   4.121   6.005   4.906 -0.6777  0.7709  1.4151
    2SAPS   C38  233   4.035   5.929   4.726  0.4986 -0.2375 -0.2565
    2SAPS   H8X  234   4.002   6.030   4.694 -1.8866 -0.9030 -0.0901
    2SAPS   H8Y  235   3.956   5.859   4.690  1.8549 -1.0456 -1.8527
    2SAPS   C39  236   4.154   5.878   4.642 -0.6928 -0.8350  0.4437
    2SAPS   H9X  237   4.168   5.769   4.661  1.0687 -0.3494  2.1924
    2SAPS   H9Y  238   4.248   5.928   4.672 -1.2617  2.0651 -2.1100
    2SAPS  C310  239   4.110   5.885   4.490 -0.2235  1.0032  0.0006
    2SAPS  H10X  240   4.118   5.996   4.480 -1.3703  1.2337  1.3228
    2SAPS  H10Y  241   4.006   5.853   4.471  0.6394 -2.4534  0.4557
    2SAPS  C311  242   4.207   5.815   4.389 -0.5009 -0.4511 -0.0052
    2SAPS  H11X  243   4.189   5.706   4.397  2.4901 -1.2064 -1.6618
    2SAPS  H11Y  244   4.309   5.835   4.430 -1.1091  0.0279  1.3272
    2SAPS  C312  245   4.189   5.855   4.242  0.1654 -0.6208  0.2332
    2SAPS  H12X  246   4.215   5.963   4.233  0.4406 -0.6718  0.4175
    2SAPS  H12Y  247   4.084   5.839   4.209  0.2503  1.9242 -1.5246
    2SAPS  C313  248   4.278   5.781   4.147  0.2020 -0.4038  0.2477
    2SAPS  H13X  249   4.260   5.672   4.164  0.2025 -1.0090 -3.0873
    2SAPS  H13Y  250   4.384   5.809   4.165 -0.3765  1.2744  1.2531
    2SAPS  C314  251   4.253   5.821   3.999  0.2644  0.3238 -0.0155
    2SAPS  H14X  252   4.145   5.832   3.976  0.5423 -1.9197 -3.1682
    2SAPS  H14Y  253   4.278   5.742   3.924 -2.5893 -0.5546 -0.1860
    2SAPS  C315  254   4.319   5.955   3.955  0.1689 -0.1351 -0.1404
    2SAPS  H15X  255   4.423   5.955   3.995  0.6311 -1.5173 -1.2544
    2SAPS  H15Y  256   4.267   6.044   3.998  2.8030  2.0476 -1.1711
    2SAPS  C316  257   4.324   5.971   3.802  0.0027  0.9622  0.3051
    2SAPS  H16X  258   4.382   5.895   3.746  2.4062  1.8538  1.3961
    2SAPS  H16Y  259   4.382   6.058   3.763  1.0290  0.1993  0.0728
    2SAPS  C317  260   4.182   5.975   3.728 -0.6596 -0.5537  0.0045
    2SAPS  H17X  261   4.140   6.059   3.787  0.6217 -1.4623  2.3510
    2SAPS  H17Y  262   4.108   5.893   3.746 -1.1722 -0.7421 -2.5318
    2SAPS  C318  263   4.186   6.008   3.574  0.6002 -0.1769 -0.2222
    2SAPS  H18X  264   4.256   6.092   3.556 -0.5349  1.4664  2.3841
    2SAPS  H18Y  265   4.087   6.038   3.535  1.1022 -0.6769 -1.9661
    2SAPS  H18Z  266   4.208   5.918   3.512  1.0596 -0.1093 -0.1606
    3SAPS     N  267   4.658   5.367   6.028 -0.2700  0.6921 -0.4412
    3SAPS   HN1  268   4.710   5.456   6.014 -1.5984  1.9758  2.2546
    3SAPS   HN2  269   4.679   5.289   5.961 -0.4408  1.0451 -0.9097
    3SAPS   HN3  270   4.561   5.402   6.028 -0.9351 -1.0528  0.7161
    3SAPS   C12  271   4.704   5.321   6.179 -0.4732 -0.4814  1.2074
    3SAPS  H12A  272   4.671   5.392   6.254 -0.9947  1.6735 -0.8923
    3SAPS   C13  273   4.664   5.180   6.232  0.6164 -0.2346  0.2004
    3SAPS  O13A  274   4.617   5.090   6.156 -0.0522 -0.4442  0.8895
    3SAPS  O13B  275   4.706   5.154   6.348  0.1164 -0.4168  0.3875
    3SAPS   C11  276   4.860   5.354   6.182  0.0284 -0.4807  0.0112
    3SAPS  H11A  277   4.895   5.334   6.285 -1.0856 -0.9519  0.3122
    3SAPS  H11B  278   4.871   5.461   6.155 -1.0955 -0.9553 -2.7064
    3SAPS     P  279   5.077   5.249   6.091  0.1742  0.0281 -0.7385
    3SAPS   O13  280   5.147   5.381   6.103  0.3309 -0.1168 -0.6778
    3SAPS   O14  281   5.110   5.151   6.201 -0.2262 -0.3473  0.1010
    3SAPS   O12  282   4.924   5.275   6.088  1.0702  0.0071  0.7352
    3SAPS   O11  283   5.109   5.180   5.956 -0.9336 -0.2539 -0.0004
    3SAPS    C1  284   5.119   5.039   5.921  0.3365 -0.4609 -1.2128
    3SAPS    HA  285   5.207   5.006   5.862  0.8372 -1.0047 -0.1725
    3SAPS    HB  286   5.133   4.979   6.013  1.0102 -0.4938 -1.3279
    3SAPS    C2  287   4.993   4.988   5.837 -0.3398  0.4011 -0.3881
    3SAPS    HS  288   4.973   4.881   5.858 -1.5136  0.5290 -0.7957
    3SAPS   O21  289   5.022   5.001   5.695  0.3460  0.3603  0.2466
    3SAPS   C21  290   5.102   4.907   5.653  0.2713 -1.2737  0.6995
    3SAPS   O22  291   5.148   4.818   5.716  0.6665 -0.2386 -0.6537
    3SAPS   C22  292   5.147   4.938   5.513  0.4961 -0.1958 -0.3255
    3SAPS   H2R  293   5.151   5.048   5.493  0.6469  0.0236  0.8742
    3SAPS   H2S  294   5.244   4.888   5.493 -0.4441 -1.8448 -0.9920
    3SAPS    C3  295   4.858   5.054   5.866  0.3792 -0.0231  0.7386
    3SAPS    HX  296   4.864   5.163   5.848  0.9748 -0.5159 -2.8733
    3SAPS    HY  297   4.833   5.037   5.973 -0.7489 -3.2585  0.0756
    3SAPS   O31  298   4.757   4.993   5.779  0.1970  0.2619  0.3448
    3SAPS   C31  299   4.637   5.049   5.791 -0.8313 -0.2610 -0.3906
    3SAPS   O32  300   4.625   5.161   5.836 -0.6374  0.4906  0.6756
    3SAPS   C32  301   4.542   4.973   5.714 -0.7712  0.0442 -0.0114
    3SAPS   H2X  302   4.453   5.038   5.698  1.0025  3.0113  1.4628
    3SAPS   H2Y  303   4.510   4.899   5.791  1.5778  1.3555  2.3654
    3SAPS   C23  304   5.051   4.862   5.421 -0.2412 -0.3950  0.6450
    3SAPS   H3R  305   4.945   4.895   5.429  0.5973  2.1997  2.4287
    3SAPS   H3S  306   5.046   4.756   5.454 -0.6043  0.2060  2.6610
    3SAPS   C24  307   5.092   4.863   5.268 -0.0583 -0.1078  0.3261
    3SAPS   H4R  308   5.037   4.781   5.216 -1.3827 -0.6649  2.4692
    3SAPS   H4S  309   5.199   4.837   5.250 -0.2112 -0.4030 -0.1834
    3SAPS   C25  310   5.066   4.991   5.194 -0.5049 -0.1542  0.2764
    3SAPS   H5R  311   5.131   5.065   5.243  2.1963 -1.5954 -0.9102
    3SAPS   C26  312   5.006   5.012   5.074  0.2461  0.7858 -0.5915
    3SAPS   H6R  313   5.021   5.109   5.025  0.7330  1.1050  0.1555
    3SAPS   C27  314   4.925   4.909   5.004  0.2145  0.3723  0.1514
    3SAPS   H7R  315   4.845   4.954   4.941 -0.5383 -1.5769 -0.3548
    3SAPS   H7S  316   4.867   4.842   5.072  0.6860  1.5172  1.7459
    3SAPS   C28  317   5.010   4.815   4.919  1.3009  0.2862  0.3270
    3SAPS   H8R  318   5.100   4.783   4.973  1.8070  1.7000  0.3743
    3SAPS   C29  319   4.988   4.786   4.791 -0.0191 -0.3225 -0.5879
    3SAPS   H9R  320   5.074   4.752   4.732  2.4958  1.0208  2.0298
    3SAPS  C210  321   4.879   4.834   4.701 -0.2645 -0.5999  0.3139
    3SAPS  H10R  322   4.911   4.798   4.601  0.9510  0.5816  0.2380
    3SAPS  H10S  323   4.870   4.945   4.696  0.2836 -0.5639 -0.0259
    3SAPS  C211  324   4.740   4.782   4.719 -0.3216 -0.7598 -0.6388
    3SAPS  H11R  325   4.727   4.700   4.792 -0.8506 -0.2195 -0.1134
    3SAPS  C212  326   4.635   4.833   4.664 -0.2231 -1.0185  0.0098
    3SAPS  H12R  327   4.536   4.794   4.691  0.3933 -2.1906  0.6018
    3SAPS  C213  328   4.629   4.941   4.562  0.1871 -0.0021 -1.0136
    3SAPS  H13R  329   4.520   4.951   4.543  0.0861  0.8830 -0.0594
    3SAPS  H13S  330   4.680   4.905   4.470 -0.1124  0.3998 -1.3430
    3SAPS  C214  331   4.680   5.074   4.600 -0.0483 -0.2623  0.5533
    3SAPS  H14R  332   4.705   5.091   4.706  0.9444  0.4144  0.2209
    3SAPS  C215  333   4.691   5.179   4.513 -0.3136 -0.0857 -0.3634
    3SAPS  H15R  334   4.721   5.277   4.553  1.0844 -0.3617 -0.6861
    3SAPS  C216  335   4.668   5.174   4.366  0.0655  0.3273  0.4582
    3SAPS  H16R  336   4.594   5.246   4.326 -0.4273 -0.3504  0.1332
    3SAPS  H16S  337   4.640   5.071   4.333  1.1503 -0.3106  1.4609
    3SAPS  C217  338   4.800   5.212   4.292 -0.4642  0.1174 -0.1286
    3SAPS  H17R  339   4.888   5.163   4.338 -0.6326 -0.7555 -0.7185
    3SAPS  H17S  340   4.822   5.319   4.315  1.1756 -0.3905  0.8179
    3SAPS  C218  341   4.799   5.185   4.147 -0.0305  0.9811 -0.4696
    3SAPS  H18R  342   4.725   5.256   4.104 -0.8377 -0.6304 -1.8665
    3SAPS  H18S  343   4.756   5.089   4.111  0.5735  0.8102 -0.7509
    3SAPS  C219  344   4.937   5.201   4.080  0.4440 -0.0790 -0.2038
    3SAPS  H19R  345   4.946   5.311   4.096 -3.5103  0.2862  0.6817
    3SAPS  H19S  346   5.012   5.133   4.126 -1.2824 -3.3771 -1.9047
    3SAPS  C220  347   4.939   5.168   3.933  0.5042  0.9199  0.8474
    3SAPS  H20R  348   4.861   5.228   3.880  1.9088  1.2802 -0.9251
    3SAPS  H20S  349   4.903   5.071   3.892 -0.9422  2.6630 -2.3776
    3SAPS  H20T  350   5.035   5.183   3.880  1.5085  0.9387  2.5882
    3SAPS   C33  351   4.593   4.901   5.584 -0.1003 -0.9829  0.0994
    3SAPS   H3X  352   4.505   4.856   5.534 -0.2086 -1.3409  0.6046
    3SAPS   H3Y  353   4.670   4.823   5.600  2.1125  0.6409 -1.9674
    3SAPS   C34  354   4.660   4.992   5.480 -0.3308 -0.1651 -0.4991
    3SAPS   H4X  355   4.703   4.926   5.401  1.4917 -2.2684  2.1046
    3SAPS   H4Y  356   4.747   5.037   5.530 -1.2459  0.8341  0.2290
    3SAPS   C35  357   4.578   5.108   5.423  0.2462 -0.2423  0.6995
    3SAPS   H5X  358   4.481   5.066   5.388 -0.9289  1.3068  1.9523
    3SAPS   H5Y  359   4.554   5.169   5.513  1.0136 -1.3481  1.6783
    3SAPS   C36  360   4.647   5.199   5.313  0.1817 -0.3712 -0.2433
    3SAPS   H6X  361   4.754   5.190   5.339  0.7843 -1.7107 -2.8781
    3SAPS   H6Y  362   4.623   5.307   5.323  1.7156  0.1623 -1.7988
    3SAPS   C37  363   4.611   5.168   5.168 -0.0177  0.4761 -0.1362
    3SAPS   H7X  364   4.636   5.063   5.143 -1.5438 -0.0521  0.4519
    3SAPS   H7Y  365   4.679   5.216   5.093  0.1648  2.2843  1.1176
    3SAPS   C38  366   4.456   5.175   5.132  0.0368 -0.8018  0.2969
    3SAPS   H8X  367   4.423   5.263   5.192  1.2943 -1.2635  1.7414
    3SAPS   H8Y  368   4.417   5.075   5.161  0.4698 -0.5657  1.7709
    3SAPS   C39  369   4.431   5.199   4.987 -0.2375  0.5506  0.6523
    3SAPS   H9X  370   4.321   5.184   4.972  0.2591 -1.6825 -1.5000
    3SAPS   H9Y  371   4.492   5.129   4.926 -0.4864 -0.4260  1.4958
    3SAPS  C310  372   4.478   5.343   4.951  0.4878  0.5826 -0.3193
    3SAPS  H10X  373   4.587   5.349   4.971  0.6441 -0.8264 -0.6645
    3SAPS  H10Y  374   4.428   5.415   5.020  1.6393  1.1344 -0.0428
    3SAPS  C311  375   4.453   5.391   4.809  0.6975 -0.0156 -0.2073
    3SAPS  H11X  376   4.344   5.398   4.791  0.9214 -1.1111 -2.3734
    3SAPS  H11Y  377   4.494   5.323   4.731 -0.2923  1.2113 -1.8801
    3SAPS  C312  378   4.516   5.524   4.780 -0.6790  0.2954 -0.4044
    3SAPS  H12X  379   4.623   5.529   4.808 -0.3226 -2.7762 -0.8306
    3SAPS  H12Y  380   4.489   5.596   4.860  2.1815  0.7359  0.2868
    3SAPS  C313  381   4.484   5.569   4.638  0.2607 -0.0611  0.0324
    3SAPS  H13X  382   4.503   5.678   4.645  0.9120 -0.2747  2.6130
    3SAPS  H13Y  383   4.376   5.546   4.623  0.6086 -1.2695 -0.8120
    3SAPS  C314  384   4.562   5.518   4.520 -0.4481 -0.1021  0.2101
    3SAPS  H14X  385   4.504   5.439   4.469  1.8841 -1.0266 -1.1068
    3SAPS  H14Y  386   4.658   5.468   4.544 -1.0491 -2.4240 -1.8069
    3SAPS  C315  387   4.588   5.620   4.414  0.0133 -0.7721  0.4105
    3SAPS  H15X  388   4.643   5.715   4.428 -1.6181  1.0266 -3.8664
    3SAPS  H15Y  389   4.488   5.660   4.387 -0.0484 -0.9969  0.3048
    3SAPS  C316  390   4.635   5.555   4.290 -1.3732  0.0235  0.3690
    3SAPS  H16X  391   4.571   5.467   4.266  0.8038 -0.7411 -3.3080
    3SAPS  H16Y  392   4.737   5.517   4.312  0.0638  2.9841 -0.6726
    3SAPS  C317  393   4.654   5.666   4.178  0.0859  0.8210 -0.2559
    3SAPS  H17X  394   4.738   5.727   4.217  1.0744 -1.3233  1.1609
    3SAPS  H17Y  395   4.562   5.728   4.189 -1.4823 -0.9998 -2.2649
    3SAPS  C318  396   4.686   5.622   4.036 -1.0292  0.2029  0.0679
    3SAPS  H18X  397   4.602   5.579   3.977  0.7239 -0.5314 -2.0243
    3SAPS  H18Y  398   4.758   5.539   4.050 -1.2638 -0.0455 -0.1820
    3SAPS  H18Z  399   4.735   5.696   3.969 -0.6030  0.2895  0.4712
    4SAPS     N  400   2.912   2.047   6.028  0.4752 -0.4857 -0.2345
    4SAPS   HN1  401   3.001   2.063   6.080 -0.2336  1.7000  0.4292
    4SAPS   HN2  402   2.926   1.960   5.974  2.3615  0.7243 -1.8714
    4SAPS   HN3  403   2.902   2.127   5.962  1.0905 -0.0571  0.1738
    4SAPS   C12  404   2.802   2.024   6.123 -0.3343  0.0654 -0.3679
    4SAPS  H12A  405   2.838   1.943   6.186 -0.8215  0.3537  0.2949
    4SAPS   C13  406   2.778   2.140   6.214  0.8977  0.1226  0.5105
    4SAPS  O13A  407   2.832   2.249   6.204 -0.3997 -0.9375  0.1177
    4SAPS  O13B  408   2.691   2.124   6.306 -0.3803  0.2241 -0.3767
    4SAPS   C11  409   2.679   1.975   6.046  0.0223 -0.2516  0.0193
    4SAPS  H11A  410   2.644   2.053   5.976 -1.1188 -0.9012 -0.1576
    4SAPS  H11B  411   2.606   1.968   6.130  0.6938  1.0905  0.7549
    4SAPS     P  412   2.576   1.781   5.916  0.2839 -0.1768  0.1662
    4SAPS   O13  413   2.608   1.641   5.889 -0.4972  0.4886  0.5150
    4SAPS   O14  414   2.472   1.805   6.018 -0.3960  0.4529  0.4148
    4SAPS   O12  415   2.708   1.856   5.971 -0.0009  0.1297 -0.2133
    4SAPS   O11  416   2.545   1.848   5.776  0.1931 -0.0162  0.2127
    4SAPS    C1  417   2.627   1.932   5.699 -0.2904 -0.5221  0.1565
    4SAPS    HA  418   2.728   1.952   5.743 -0.6988  1.3947  0.3342
    4SAPS    HB  419   2.647   1.887   5.600  1.3845 -0.8667  0.6036
    4SAPS    C2  420   2.556   2.067   5.671  0.5278  0.2853  0.1551
    4SAPS    HS  421   2.524   2.095   5.773 -0.4636 -1.3049  0.2999
    4SAPS   O21  422   2.447   2.035   5.581 -0.3226 -0.1244  0.3302
    4SAPS   C21  423   2.351   2.128   5.561 -0.4134  0.3007 -0.2785
    4SAPS   O22  424   2.345   2.235   5.618  0.1090  0.3225 -0.3047
    4SAPS   C22  425   2.264   2.087   5.442  0.7579  0.4010 -0.0496
    4SAPS   H2R  426   2.337   2.078   5.358 -1.6259 -0.7717 -2.1260
    4SAPS   H2S  427   2.233   1.982   5.461  0.6501  0.3073 -0.7318
    4SAPS    C3  428   2.637   2.189   5.614  0.0681  0.0331  0.0153
    4SAPS    HX  429   2.714   2.226   5.685  1.4394 -0.5179 -1.1127
    4SAPS    HY  430   2.573   2.277   5.594  0.4310  0.0590 -1.0958
    4SAPS   O31  431   2.703   2.151   5.487 -0.4938 -0.2001 -0.4635
    4SAPS   C31  432   2.770   2.258   5.433  0.3527  0.2695  0.2041
    4SAPS   O32  433   2.801   2.356   5.494 -0.1914  0.1980 -0.4778
    4SAPS   C32  434   2.807   2.213   5.293  0.2553  0.9761 -0.5732
    4SAPS   H2X  435   2.766   2.116   5.256  2.7095  0.0902 -1.1313
    4SAPS   H2Y  436   2.914   2.183   5.296 -0.0092 -0.0572 -0.8580
    4SAPS   C23  437   2.152   2.195   5.420 -0.4438 -0.1311  0.2860
    4SAPS   H3R  438   2.202   2.294   5.412  2.8462 -1.4863  2.2637
    4SAPS   H3S  439   2.095   2.190   5.516 -0.0309  1.0956  0.6089
    4SAPS   C24  440   2.064   2.160   5.301  0.8036  0.6928  0.2764
    4SAPS   H4R  441   2.122   2.163   5.206 -0.9588 -0.0431 -0.8603
    4SAPS   H4S  442   1.981   2.231   5.281 -0.8703 -2.0584 -3.8776
    4SAPS   C25  443   1.994   2.021   5.324  0.7745  0.1697 -0.2556
    4SAPS   H5R  444   1.942   2.012   5.421 -1.2646  0.6338 -1.2686
    4SAPS   C26  445   1.995   1.915   5.238  0.0921  0.3218 -0.7299
    4SAPS   H6R  446   1.965   1.819   5.280 -1.2567  0.5426 -1.1476
    4SAPS   C27  447   2.085   1.908   5.117 -0.1137 -0.4249 -0.3378
    4SAPS   H7R  448   2.100   2.010   5.074 -0.1435 -0.3527 -0.1770
    4SAPS   H7S  449   2.031   1.854   5.036  1.9321 -0.1385 -1.9978
    4SAPS   C28  450   2.216   1.834   5.156 -0.4674  0.7460  0.4699
    4SAPS   H8R  451   2.192   1.747   5.220 -1.4625  0.8019  0.1981
    4SAPS   C29  452   2.338   1.873   5.125 -0.0444  0.7555 -0.0996
    4SAPS   H9R  453   2.424   1.811   5.154  0.3544  1.5882  0.5710
    4SAPS  C210  454   2.381   1.991   5.037 -0.8750 -0.7562 -0.9973
    4SAPS  H10R  455   2.491   1.994   5.043 -0.7825 -0.3039 -2.3920
    4SAPS  H10S  456   2.354   2.088   5.083  0.4396 -0.9662  0.2707
    4SAPS  C211  457   2.337   1.977   4.893 -0.3028  0.4144  0.5122
    4SAPS  H11R  458   2.229   1.981   4.871 -0.0686  1.9973 -0.4689
    4SAPS  C212  459   2.417   1.951   4.783  0.2903 -0.5887 -0.3565
    4SAPS  H12R  460   2.382   1.947   4.678 -1.0262 -0.2594  0.0486
    4SAPS  C213  461   2.564   1.929   4.797  0.2545  0.1048 -0.8429
    4SAPS  H13R  462   2.590   1.857   4.877 -1.5480  0.2255 -0.0961
    4SAPS  H13S  463   2.617   2.022   4.824  1.3995 -0.5050 -0.9408
    4SAPS  C214  464   2.640   1.884   4.674 -0.0071  0.2790 -0.3264
    4SAPS  H14R  465   2.584   1.879   4.579 -1.1462 -2.5343  0.3748
    4SAPS  C215  466   2.768   1.849   4.672  0.5652 -0.0439 -0.0957
    4SAPS  H15R  467   2.812   1.814   4.577 -1.2931 -1.4785 -0.4757
    4SAPS  C216  468   2.860   1.860   4.786  1.4288  0.6108  0.3630
    4SAPS  H16R  469   2.890   1.757   4.815 -0.4246 -0.6149 -1.7387
    4SAPS  H16S  470   2.817   1.893   4.883  2.7939 -0.1400  1.2506
    4SAPS  C217  471   2.990   1.938   4.756 -0.0953  0.4827 -0.0365
    4SAPS  H17R  472   3.039   1.962   4.853 -1.2722 -0.3078  0.7806
    4SAPS  H17S  473   2.969   2.036   4.708  0.6509  0.2943 -0.7721
    4SAPS  C218  474   3.088   1.857   4.664 -0.5741  0.5810 -0.3195
    4SAPS  H18R  475   3.167   1.929   4.635  0.3673 -0.1181  0.4541
    4SAPS  H18S  476   3.030   1.821   4.576 -0.7591 -0.8511  0.3544
    4SAPS  C219  477   3.155   1.739   4.746 -0.7523 -0.7283 -0.5395
    4SAPS  H19R  478   3.079   1.671   4.789 -1.1070  0.2193  0.3835
    4SAPS  H19S  479   3.204   1.788   4.833 -0.0097 -1.9174 -0.2716
    4SAPS  C220  480   3.264   1.663   4.674 -0.7588  0.7214  0.4256
    4SAPS  H20R  481   3.237   1.594   4.592  0.4108  0.0465  0.5708
    4SAPS  H20S  482   3.320   1.593   4.741 -1.2809 -0.0843  0.0374
    4SAPS  H20T  483   3.346   1.734   4.647  0.8785 -1.6702 -1.3529
    4SAPS   C33  484   2.781   2.305   5.178  0.1143  0.0148  0.5798
    4SAPS   H3X  485   2.844   2.395   5.189 -1.0602  1.1176 -1.1041
    4SAPS   H3Y  486   2.676   2.342   5.175  0.2609  0.8523  3.1991
    4SAPS   C34  487   2.802   2.245   5.031  0.3913  0.5278 -0.0794
    4SAPS   H4X  488   2.729   2.164   5.012  0.9677  0.1086 -0.5806
    4SAPS   H4Y  489   2.899   2.191   5.023 -1.4324 -3.1186  0.3993
    4SAPS   C35  490   2.778   2.346   4.923 -0.3219  0.3592  0.5527
    4SAPS   H5X  491   2.860   2.422   4.922 -0.7708  0.8520  0.3736
    4SAPS   H5Y  492   2.684   2.403   4.937  0.1014  1.5478 -1.0508
    4SAPS   C36  493   2.781   2.291   4.784 -0.2178  0.1008  0.2301
    4SAPS   H6X  494   2.676   2.288   4.749 -0.0280  1.2497 -0.4965
    4SAPS   H6Y  495   2.811   2.184   4.786  0.7551  0.3232 -0.9296
    4SAPS   C37  496   2.872   2.369   4.689 -0.5377  0.4569 -0.1797
    4SAPS   H7X  497   2.980   2.349   4.707 -0.7204  1.5934  2.6247
    4SAPS   H7Y  498   2.852   2.478   4.694 -0.6389  0.3904  1.1963
    4SAPS   C38  499   2.848   2.328   4.541 -0.2796  0.5454  0.2120
    4SAPS   H8X  500   2.744   2.356   4.514 -0.4604 -1.5573 -1.5783
    4SAPS   H8Y  501   2.861   2.218   4.541  2.7065  0.7926 -1.5844
    4SAPS   C39  502   2.949   2.393   4.449 -0.4411  0.1648 -0.2374
    4SAPS   H9X  503   3.037   2.327   4.460  2.4871  3.6004 -1.3159
    4SAPS   H9Y  504   2.958   2.496   4.488  1.2507 -0.0471 -0.0040
    4SAPS  C310  505   2.907   2.389   4.305  0.2271  0.2838  0.0211
    4SAPS  H10X  506   2.826   2.463   4.291 -0.0266 -0.1748 -1.0583
    4SAPS  H10Y  507   2.859   2.291   4.284 -1.3029  0.8825  0.6074
    4SAPS  C311  508   3.017   2.409   4.201  0.4886 -0.0370 -0.0772
    4SAPS  H11X  509   3.072   2.314   4.190  1.2620  0.1041  2.1396
    4SAPS  H11Y  510   3.089   2.487   4.235 -0.6290  1.1403 -0.3236
    4SAPS  C312  511   2.960   2.462   4.067 -0.2124 -0.5361  1.0503
    4SAPS  H12X  512   2.905   2.556   4.088  1.5020  1.1087 -1.3795
    4SAPS  H12Y  513   2.888   2.385   4.032 -1.3963  0.3056  1.5722
    4SAPS  C313  514   3.065   2.483   3.959 -0.0437  1.0707 -0.4680
    4SAPS  H13X  515   3.085   2.388   3.905 -2.9633  0.6888 -1.0317
    4SAPS  H13Y  516   3.162   2.529   3.988  1.0746 -0.2110 -1.9852
    4SAPS  C314  517   3.026   2.597   3.863  0.4349  0.1349  0.2708
    4SAPS  H14X  518   3.087   2.603   3.771 -0.9814 -0.9936 -0.7952
    4SAPS  H14Y  519   3.029   2.694   3.918 -0.7812 -0.3409  1.2462
    4SAPS  C315  520   2.877   2.594   3.808  0.5654 -0.1940  0.4278
    4SAPS  H15X  521   2.798   2.606   3.885  0.4382  0.1774  0.2431
    4SAPS  H15Y  522   2.873   2.495   3.759 -1.2911  0.0120  0.1193
    4SAPS  C316  523   2.843   2.707   3.698 -0.2053  0.3382 -0.3251
    4SAPS  H16X  524   2.737   2.696   3.668  0.3064  2.7787 -3.6713
    4SAPS  H16Y  525   2.905   2.683   3.609  1.9925  0.4720  1.0935
    4SAPS  C317  526   2.880   2.852   3.737  0.0963 -0.0725 -0.3655
    4SAPS  H17X  527   2.990   2.856   3.753 -0.1403  0.0754  1.4196
    4SAPS  H17Y  528   2.829   2.871   3.834 -0.9148  1.8462 -1.2086
    4SAPS  C318  529   2.837   2.954   3.631 -0.4627 -1.0719  0.1133
    4SAPS  H18X  530   2.900   2.944   3.540  2.9321 -0.1617  2.1586
    4SAPS  H18Y  531   2.857   3.059   3.660 -1.6585 -0.7016 -0.3673
    4SAPS  H18Z  532   2.728   2.945   3.613 -1.4379  0.4769  4.2444
    5SAPS     N  533   6.016   4.559   5.958 -0.0779  0.5467 -0.5188
    5SAPS   HN1  534   6.050   4.535   5.862  3.3517  1.2252  0.3757
    5SAPS   HN2  535   5.913   4.567   5.965 -0.1091 -0.4418  0.4926
    5SAPS   HN3  536   6.064   4.646   5.988  2.3209 -0.7919 -0.2343
    5SAPS   C12  537   6.041   4.461   6.073  0.0988 -0.3331 -0.1010
    5SAPS  H12A  538   6.148   4.449   6.083  0.2178 -2.3003 -2.6522
    5SAPS   C13  539   5.981   4.502   6.207 -0.0034 -0.0594  0.8403
    5SAPS  O13A  540   5.976   4.624   6.230  0.0001  0.2643 -0.3747
    5SAPS  O13B  541   5.983   4.417   6.301  0.0861  0.3780  0.5879
    5SAPS   C11  542   5.995   4.315   6.028 -0.6327 -0.0891 -0.1030
    5SAPS  H11A  543   5.884   4.321   6.025 -0.6225  0.7520  0.8523
    5SAPS  H11B  544   6.020   4.244   6.110 -3.9295  0.7624  1.8449
    5SAPS     P  545   6.034   4.133   5.853 -0.2632 -0.2759  0.2566
    5SAPS   O13  546   6.112   4.102   5.732  0.5361  0.0280  0.1305
    5SAPS   O14  547   6.056   4.045   5.974  0.1389  0.8046  0.1747
    5SAPS   O12  548   6.056   4.280   5.900 -0.0120  0.0703 -0.5043
    5SAPS   O11  549   5.876   4.136   5.811  0.1735  0.1939  0.0826
    5SAPS    C1  550   5.835   4.243   5.724 -0.1317 -0.1298 -0.3520
    5SAPS    HA  551   5.840   4.343   5.771  0.7172  0.1253 -0.9504
    5SAPS    HB  552   5.880   4.224   5.624  0.9070 -1.7782  0.3930
    5SAPS    C2  553   5.679   4.237   5.687  0.2213  0.5512 -0.8133
    5SAPS    HS  554   5.639   4.233   5.790  2.1268  1.0285 -0.0030
    5SAPS   O21  555   5.650   4.118   5.620  0.7028  0.5052 -0.6268
    5SAPS   C21  556   5.530   4.070   5.652 -0.6606  0.4526  0.1199
    5SAPS   O22  557   5.457   4.104   5.745 -0.3352 -0.2600 -0.5419
    5SAPS   C22  558   5.496   3.957   5.559 -0.7556  0.9355 -0.8346
    5SAPS   H2R  559   5.589   3.908   5.522 -0.8002 -0.0947  0.3505
    5SAPS   H2S  560   5.427   3.887   5.610 -0.6561  1.2012 -0.3288
    5SAPS    C3  561   5.631   4.356   5.604  0.3768 -0.6393  0.9227
    5SAPS    HX  562   5.650   4.455   5.652  0.1598 -1.4185  2.7138
    5SAPS    HY  563   5.521   4.343   5.598  0.0311  2.1375 -0.0885
    5SAPS   O31  564   5.679   4.346   5.473 -0.1591  0.4505 -0.3471
    5SAPS   C31  565   5.786   4.402   5.436 -0.5950  0.0114 -0.4021
    5SAPS   O32  566   5.871   4.456   5.506  0.3095 -0.4955  0.1005
    5SAPS   C32  567   5.805   4.386   5.289 -0.0817  0.7097  0.3494
    5SAPS   H2X  568   5.817   4.280   5.258 -0.1380  0.5950  0.7128
    5SAPS   H2Y  569   5.900   4.436   5.262 -0.2918  0.8058 -0.2398
    5SAPS   C23  570   5.423   4.013   5.433  0.2684  0.0784 -0.2313
    5SAPS   H3R  571   5.493   4.086   5.387 -1.5715  2.2281  0.1485
    5SAPS   H3S  572   5.336   4.076   5.462  0.0109 -0.1481 -0.5124
    5SAPS   C24  573   5.395   3.909   5.330 -0.3215 -0.1694  0.3122
    5SAPS   H4R  574   5.331   3.831   5.377 -0.4038 -1.1105 -1.2547
    5SAPS   H4S  575   5.487   3.856   5.296  0.3260 -0.4048  2.3068
    5SAPS   C25  576   5.324   3.980   5.215  0.7565  0.2916 -0.1931
    5SAPS   H5R  577   5.217   4.000   5.235  0.2642  0.0322 -2.2674
    5SAPS   C26  578   5.370   4.019   5.095  1.1878 -0.0496 -0.7677
    5SAPS   H6R  579   5.301   4.070   5.026 -0.0353  1.3739  1.4211
    5SAPS   C27  580   5.517   4.013   5.055 -0.6935 -0.0198 -0.4623
    5SAPS   H7R  581   5.594   4.000   5.135 -0.0192 -0.3608 -1.1546
    5SAPS   H7S  582   5.547   4.114   5.018 -0.2898 -0.1782 -0.5736
    5SAPS   C28  583   5.534   3.905   4.950 -0.4259  0.1973  0.0212
    5SAPS   H8R  584   5.474   3.815   4.972  0.3879  0.3305  3.3282
    5SAPS   C29  585   5.613   3.916   4.844 -0.3628  0.2811  0.0790
    5SAPS   H9R  586   5.623   3.827   4.781  1.8799  0.8568 -0.4793
    5SAPS  C210  587   5.704   4.037   4.810 -0.0980  0.1107  0.3174
    5SAPS  H10R  588   5.812   4.011   4.813 -0.1465 -0.2056 -0.4860
    5SAPS  H10S  589   5.692   4.119   4.884 -0.9083 -0.1257  0.4592
    5SAPS  C211  590   5.670   4.098   4.671 -0.0024 -0.1244  0.7769
    5SAPS  H11R  591   5.571   4.080   4.627  2.1364  2.1628 -6.1947
    5SAPS  C212  592   5.754   4.165   4.585  0.0065  0.3010 -0.2533
    5SAPS  H12R  593   5.713   4.185   4.485  2.5427  0.2537 -1.3845
    5SAPS  C213  594   5.901   4.197   4.626  0.3215  0.0445 -0.4318
    5SAPS  H13R  595   5.906   4.182   4.736 -2.1066 -1.8399 -0.4861
    5SAPS  H13S  596   5.934   4.300   4.603  0.9191  0.2468  1.1997
    5SAPS  C214  597   6.003   4.105   4.571  0.1342  0.4240  0.2712
    5SAPS  H14R  598   5.992   3.996   4.583  0.4717  0.6143  3.0387
    5SAPS  C215  599   6.115   4.138   4.498  0.0362  0.1821  0.8236
    5SAPS  H15R  600   6.181   4.053   4.476 -0.0663 -0.2479  2.0615
    5SAPS  C216  601   6.168   4.271   4.457 -0.0084 -0.3185  0.5835
    5SAPS  H16R  602   6.262   4.295   4.511 -1.0124 -0.5963  2.5397
    5SAPS  H16S  603   6.096   4.348   4.491  1.0572  0.0257  2.1690
    5SAPS  C217  604   6.181   4.291   4.305 -0.0629  0.0625  0.0627
    5SAPS  H17R  605   6.177   4.399   4.281 -2.5377  0.4378  1.7637
    5SAPS  H17S  606   6.091   4.244   4.259  1.4338  0.1168 -3.2570
    5SAPS  C218  607   6.297   4.220   4.244 -0.2031 -0.2824 -0.1094
    5SAPS  H18R  608   6.286   4.116   4.282 -0.0328  0.5864  2.5090
    5SAPS  H18S  609   6.392   4.255   4.289 -1.4133  2.2536  0.6592
    5SAPS  C219  610   6.294   4.218   4.095 -0.1747  0.6724 -0.4210
    5SAPS  H19R  611   6.388   4.170   4.062  0.3504  1.1024  0.4174
    5SAPS  H19S  612   6.292   4.319   4.049 -1.9754 -0.7601 -3.9237
    5SAPS  C220  613   6.177   4.134   4.032  0.6907  0.4723  0.0460
    5SAPS  H20R  614   6.131   4.071   4.110 -0.3378  1.3548  0.1669
    5SAPS  H20S  615   6.214   4.066   3.952 -1.2402 -0.5081 -0.0748
    5SAPS  H20T  616   6.096   4.201   3.997  1.2472  0.3004 -1.7047
    5SAPS   C33  617   5.688   4.443   5.203 -0.0034  0.5006  0.0897
    5SAPS   H3X  618   5.678   4.551   5.226 -0.7659  0.3715  0.3731
    5SAPS   H3Y  619   5.587   4.400   5.220 -0.4518  1.3773 -0.3190
    5SAPS   C34  620   5.730   4.442   5.057  0.1320  0.5009  0.5178
    5SAPS   H4X  621   5.743   4.337   5.022  1.4221  1.1098 -0.9635
    5SAPS   H4Y  622   5.824   4.500   5.049  0.0673  0.3799 -1.9602
    5SAPS   C35  623   5.618   4.495   4.966  0.1846  0.9892 -0.3306
    5SAPS   H5X  624   5.578   4.588   5.012  1.0778  0.5127  1.5323
    5SAPS   H5Y  625   5.531   4.427   4.976  0.2869  0.9286  0.2010
    5SAPS   C36  626   5.642   4.508   4.814  0.1777 -1.3390 -0.2514
    5SAPS   H6X  627   5.548   4.546   4.769 -0.8113 -0.9473  2.0341
    5SAPS   H6Y  628   5.671   4.411   4.769  0.5153 -1.8117  0.9563
    5SAPS   C37  629   5.753   4.608   4.783 -0.5917 -0.1696  0.3025
    5SAPS   H7X  630   5.854   4.571   4.810  0.0332  0.7590 -0.6655
    5SAPS   H7Y  631   5.728   4.699   4.842  1.3840  0.8595 -0.3233
    5SAPS   C38  632   5.748   4.663   4.642  1.3352 -0.2623  1.2713
    5SAPS   H8X  633   5.820   4.746   4.627 -1.7185  2.3045 -0.1961
    5SAPS   H8Y  634   5.646   4.693   4.612  0.0616 -5.3500 -0.6385
    5SAPS   C39  635   5.769   4.556   4.531 -0.4164  0.9389 -0.0789
    5SAPS   H9X  636   5.681   4.489   4.524 -0.3522  0.9748 -1.6900
    5SAPS   H9Y  637   5.859   4.498   4.558 -1.3187 -0.3854  0.1854
    5SAPS  C310  638   5.789   4.617   4.394  0.3082  0.2516  0.0934
    5SAPS  H10X  639   5.864   4.697   4.411 -1.7269  2.4914 -0.9427
    5SAPS  H10Y  640   5.692   4.658   4.360  0.0496 -1.1688 -0.9661
    5SAPS  C311  641   5.825   4.506   4.294  0.2818 -0.5703  0.5020
    5SAPS  H11X  642   5.908   4.446   4.337  1.3910  2.0098  2.2435
    5SAPS  H11Y  643   5.861   4.566   4.208 -0.5289 -0.4594  0.2312
    5SAPS  C312  644   5.720   4.415   4.254 -0.0142 -0.3221 -0.9431
    5SAPS  H12X  645   5.634   4.461   4.200 -1.9872 -2.2438  0.3768
    5SAPS  H12Y  646   5.687   4.385   4.355  4.5517  0.5112  1.0266
    5SAPS  C313  647   5.771   4.293   4.185  0.0432 -0.4968 -0.4313
    5SAPS  H13X  648   5.851   4.243   4.244 -0.2979 -1.4524 -0.7469
    5SAPS  H13Y  649   5.827   4.335   4.099 -0.1927 -0.1222 -0.4035
    5SAPS  C314  650   5.667   4.188   4.146  0.0395  0.4234  0.0100
    5SAPS  H14X  651   5.601   4.224   4.064  0.4157  0.9344 -0.0714
    5SAPS  H14Y  652   5.588   4.166   4.221  0.2377  0.3563  0.1979
    5SAPS  C315  653   5.722   4.051   4.091  0.0298  0.5214 -0.5906
    5SAPS  H15X  654   5.808   4.008   4.147 -0.0126  0.6736 -0.4097
    5SAPS  H15Y  655   5.771   4.076   3.995 -0.9520 -0.9842 -1.5243
    5SAPS  C316  656   5.613   3.950   4.062  0.9085  0.0600 -0.1335
    5SAPS  H16X  657   5.542   4.001   3.994  0.4707 -0.4792 -0.0804
    5SAPS  H16Y  658   5.562   3.925   4.158 -1.5054 -2.2078 -1.8702
    5SAPS  C317  659   5.676   3.818   4.007 -0.1341  0.2707 -0.4667
    5SAPS  H17X  660   5.604   3.734   4.017 -0.1961  0.4685  0.9430
    5SAPS  H17Y  661   5.763   3.799   4.073 -0.3019  0.4743 -0.1850
    5SAPS  C318  662   5.726   3.814   3.864 -0.7696 -0.3971 -0.1383
    5SAPS  H18X  663   5.785   3.906   3.846 -2.3400  0.1924 -2.6254
    5SAPS  H18Y  664   5.646   3.814   3.788 -0.2624  2.4934 -0.7890
    5SAPS  H18Z  665   5.785   3.720   3.856 -1.0246 -0.7167  1.3352
    6SAPS     N  666   1.408   6.001   6.057  0.3069 -0.3669 -0.3206
    6SAPS   HN1  667   1.339   6.039   5.990 -3.0775  1.6339  3.7924
    6SAPS   HN2  668   1.333   5.983   6.128  1.1751  1.1848  1.0581
    6SAPS   HN3  669   1.463   6.085   6.082 -0.8095  0.6637 -1.2084
    6SAPS   C12  670   1.508   5.885   6.041 -0.3992 -1.1276  0.0101
    6SAPS  H12A  671   1.566   5.911   5.953  0.4846  0.1837  0.9403
    6SAPS   C13  672   1.618   5.875   6.147  0.5079  0.7048 -0.5721
    6SAPS  O13A  673   1.602   5.932   6.260 -0.5862 -0.7408  0.1587
    6SAPS  O13B  674   1.708   5.789   6.131 -0.0926 -0.0341 -0.8667
    6SAPS   C11  675   1.431   5.755   6.026 -0.2744 -0.3332  0.0840
    6SAPS  H11A  676   1.382   5.729   6.123 -0.2147  0.5449  0.3588
    6SAPS  H11B  677   1.502   5.675   5.997 -0.3292 -0.1166 -0.6657
    6SAPS     P  678   1.209   5.661   5.916  0.0503  0.0764 -0.5758
    6SAPS   O13  679   1.225   5.578   6.038  0.2697  0.3296  0.1065
    6SAPS   O14  680   1.082   5.735   5.895  0.4680 -0.4124  0.0116
    6SAPS   O12  681   1.330   5.768   5.923  0.2148 -0.7479 -0.0549
    6SAPS   O11  682   1.240   5.570   5.785  0.0316 -0.3746  0.8062
    6SAPS    C1  683   1.348   5.607   5.695  0.2543  0.2868 -0.1983
    6SAPS    HA  684   1.365   5.717   5.696  0.0545  0.3217  1.0360
    6SAPS    HB  685   1.440   5.551   5.721  1.0052  1.3851 -0.4291
    6SAPS    C2  686   1.310   5.581   5.539  0.1430 -0.4498  0.4308
    6SAPS    HS  687   1.295   5.471   5.532  1.8577 -0.6926  0.1684
    6SAPS   O21  688   1.425   5.607   5.457  0.5797 -0.0201  0.3833
    6SAPS   C21  689   1.420   5.563   5.330 -0.6769  0.1429 -0.2424
    6SAPS   O22  690   1.360   5.461   5.298 -0.6668 -0.1044 -0.2890
    6SAPS   C22  691   1.494   5.663   5.239 -0.1307  0.0822 -0.3733
    6SAPS   H2R  692   1.438   5.758   5.229  0.2563  0.3482 -0.0388
    6SAPS   H2S  693   1.587   5.691   5.293 -0.0233  1.5102 -1.2499
    6SAPS    C3  694   1.185   5.665   5.495 -0.2432 -0.4063 -0.1821
    6SAPS    HX  695   1.217   5.771   5.490  0.1613 -0.5719 -2.0738
    6SAPS    HY  696   1.099   5.665   5.565 -1.2042 -0.1327 -1.3183
    6SAPS   O31  697   1.147   5.632   5.362 -0.1247  0.0649 -0.1482
    6SAPS   C31  698   1.066   5.524   5.346  0.3431 -0.0060  0.5511
    6SAPS   O32  699   1.007   5.470   5.435  0.5181  0.4929  0.2750
    6SAPS   C32  700   1.061   5.486   5.202  0.5294 -0.0238  0.2518
    6SAPS   H2X  701   1.157   5.438   5.174  1.5675  0.9662  1.9093
    6SAPS   H2Y  702   1.048   5.582   5.148 -1.1467 -0.6137 -0.4500
    6SAPS   C23  703   1.533   5.601   5.099 -0.2953 -0.2103 -0.4359
    6SAPS   H3R  704   1.593   5.510   5.122  0.8372  0.8133  0.8445
    6SAPS   H3S  705   1.596   5.670   5.039  0.0846  0.1828  0.3883
    6SAPS   C24  706   1.415   5.584   5.002  0.7146  1.1060 -0.9342
    6SAPS   H4R  707   1.371   5.684   4.982 -2.7681 -0.2364 -0.7151
    6SAPS   H4S  708   1.331   5.526   5.046  1.2532 -0.3143 -1.6835
    6SAPS   C25  709   1.446   5.504   4.879 -0.3475  0.2229  0.1219
    6SAPS   H5R  710   1.444   5.397   4.908  0.7100  0.4109  0.9725
    6SAPS   C26  711   1.470   5.554   4.751  0.6654  0.6001 -0.6952
    6SAPS   H6R  712   1.473   5.482   4.668  0.2727 -1.6264  1.1303
    6SAPS   C27  713   1.480   5.700   4.710  0.1418  0.7304 -0.2102
    6SAPS   H7R  714   1.421   5.762   4.781 -0.1012  0.4789 -0.1886
    6SAPS   H7S  715   1.439   5.703   4.607 -3.0708  0.2656  0.9092
    6SAPS   C28  716   1.622   5.741   4.721  0.1314 -0.0800 -0.2689
    6SAPS   H8R  717   1.681   5.711   4.809 -0.0685  0.5919  0.0991
    6SAPS   C29  718   1.678   5.818   4.635 -0.5057 -0.4397 -0.2662
    6SAPS   H9R  719   1.785   5.844   4.647  0.8210 -4.8729 -0.6354
    6SAPS  C210  720   1.609   5.896   4.529  0.0511 -0.5221 -0.5838
    6SAPS  H10R  721   1.650   5.999   4.529  2.7815 -1.4975  1.7826
    6SAPS  H10S  722   1.501   5.909   4.553  0.2709 -0.5983  0.4776
    6SAPS  C211  723   1.621   5.827   4.395 -0.7854 -0.6863  0.6162
    6SAPS  H11R  724   1.720   5.779   4.388 -0.9800 -0.8574 -1.9339
    6SAPS  C212  725   1.531   5.808   4.293  0.9578 -0.5563  1.0385
    6SAPS  H12R  726   1.546   5.733   4.214 -1.2095 -0.3611  0.3700
    6SAPS  C213  727   1.388   5.873   4.289  0.3700 -0.6111 -0.8310
    6SAPS  H13R  728   1.393   5.963   4.355 -0.3398 -0.5182 -0.8951
    6SAPS  H13S  729   1.309   5.807   4.331 -1.0818  1.5929  0.0926
    6SAPS  C214  730   1.328   5.920   4.158  0.2408  0.5683  0.2406
    6SAPS  H14R  731   1.396   5.982   4.099 -0.1907  1.4682  0.6771
    6SAPS  C215  732   1.213   5.883   4.097  0.2211 -0.1003 -0.1155
    6SAPS  H15R  733   1.174   5.933   4.007  0.2288 -0.0956 -0.1158
    6SAPS  C216  734   1.110   5.794   4.156  1.2949  0.3112  0.1311
    6SAPS  H16R  735   1.021   5.848   4.193  1.1604  0.5317 -0.5121
    6SAPS  H16S  736   1.154   5.731   4.237 -1.8855 -1.4834  0.6128
    6SAPS  C217  737   1.053   5.695   4.050  0.4591 -0.1824 -0.5189
    6SAPS  H17R  738   1.135   5.638   4.001  1.2584 -0.8059  1.4608
    6SAPS  H17S  739   1.000   5.761   3.978  1.5934 -0.4478 -1.6300
    6SAPS  C218  740   0.971   5.579   4.106 -0.4250 -0.6692  0.1580
    6SAPS  H18R  741   0.901   5.624   4.180 -1.1404 -0.2127 -0.7713
    6SAPS  H18S  742   1.034   5.505   4.160  1.8487  0.8615 -0.2725
    6SAPS  C219  743   0.883   5.511   4.000  0.0985  0.8161  0.1921
    6SAPS  H19R  744   0.819   5.440   4.057  1.6172  0.3570  1.3759
    6SAPS  H19S  745   0.950   5.439   3.947 -0.2326 -0.1872  1.0916
    6SAPS  C220  746   0.803   5.593   3.896  0.5526 -0.0121 -0.0836
    6SAPS  H20R  747   0.871   5.637   3.819 -1.7930  0.6387 -1.9199
    6SAPS  H20S  748   0.736   5.669   3.942 -1.3783 -1.0463 -1.0809
    6SAPS  H20T  749   0.727   5.527   3.849  1.0906 -1.1683  0.6417
    6SAPS   C33  750   0.939   5.399   5.167 -0.6395 -0.0048 -0.1474
    6SAPS   H3X  751   0.843   5.454   5.160  1.2903  3.5094 -2.0174
    6SAPS   H3Y  752   0.935   5.321   5.246 -1.1514  0.9930  0.8316
    6SAPS   C34  753   0.945   5.336   5.025  0.0689  0.4567 -0.5243
    6SAPS   H4X  754   0.846   5.292   4.999  1.8087 -2.9460 -1.9635
    6SAPS   H4Y  755   1.011   5.247   5.025  1.1226  1.2131 -0.6123
    6SAPS   C35  756   0.998   5.432   4.919  0.2017 -0.3798 -0.1371
    6SAPS   H5X  757   1.102   5.450   4.952  0.2336 -2.9044  1.3521
    6SAPS   H5Y  758   0.938   5.525   4.906  1.8000  0.4883 -1.6287
    6SAPS   C36  759   1.012   5.370   4.790  0.8454 -0.0727  0.3224
    6SAPS   H6X  760   0.915   5.329   4.754 -0.1899  2.5832 -0.1577
    6SAPS   H6Y  761   1.090   5.291   4.790  0.4063 -0.5270 -0.5174
    6SAPS   C37  762   1.061   5.463   4.678 -0.0309 -0.0740 -0.0390
    6SAPS   H7X  763   1.150   5.512   4.724 -0.4305  0.8404 -0.2175
    6SAPS   H7Y  764   1.007   5.558   4.659  0.9706  0.6469  0.5883
    6SAPS   C38  765   1.094   5.393   4.548  0.2681  0.2611  0.5876
    6SAPS   H8X  766   1.006   5.342   4.503  1.8669 -3.7441  1.5826
    6SAPS   H8Y  767   1.155   5.302   4.565 -1.0210 -0.5957  0.8104
    6SAPS   C39  768   1.174   5.476   4.448 -0.6120 -0.3092 -0.3998
    6SAPS   H9X  769   1.235   5.542   4.513 -2.0086 -0.6811  1.3405
    6SAPS   H9Y  770   1.114   5.542   4.382 -0.1964 -0.2100 -0.6872
    6SAPS  C310  771   1.258   5.387   4.349 -0.4844 -0.7654 -0.3816
    6SAPS  H10X  772   1.174   5.331   4.303 -1.1373 -1.3181  1.3872
    6SAPS  H10Y  773   1.317   5.314   4.407 -0.6327  0.3786  1.2925
    6SAPS  C311  774   1.333   5.476   4.249  0.3210 -0.2158  0.2587
    6SAPS  H11X  775   1.388   5.546   4.315  0.0979  1.3288 -1.1175
    6SAPS  H11Y  776   1.264   5.532   4.182  1.0791 -1.7261 -1.8666
    6SAPS  C312  777   1.421   5.405   4.149  0.7676  0.5403 -0.2423
    6SAPS  H12X  778   1.352   5.370   4.068  0.2564  0.9009  0.0343
    6SAPS  H12Y  779   1.473   5.317   4.193 -0.3789 -1.0846 -1.9269
    6SAPS  C313  780   1.525   5.490   4.075 -1.4868  0.9415  0.7128
    6SAPS  H13X  781   1.605   5.528   4.142 -0.4576  1.7077 -0.8986
    6SAPS  H13Y  782   1.469   5.572   4.025  0.7193  2.5142  0.6640
    6SAPS  C314  783   1.576   5.406   3.958  0.0670  0.8328 -0.1992
    6SAPS  H14X  784   1.493   5.376   3.891  1.8224 -1.7840 -1.4073
    6SAPS  H14Y  785   1.633   5.316   3.992 -0.2830  1.6936  2.9653
    6SAPS  C315  786   1.681   5.481   3.871 -0.4765 -0.3482 -0.6745
    6SAPS  H15X  787   1.747   5.533   3.944  0.6832 -0.9634 -1.2626
    6SAPS  H15Y  788   1.630   5.563   3.816 -0.7129 -0.2122 -0.2510
    6SAPS  C316  789   1.764   5.399   3.778 -0.5124  0.2082 -0.1615
    6SAPS  H16X  790   1.701   5.340   3.708 -1.0336 -1.9509  1.9920
    6SAPS  H16Y  791   1.830   5.329   3.834  0.7135  1.1548 -0.3732
    6SAPS  C317  792   1.856   5.479   3.696 -0.7852  0.8438 -0.5626
    6SAPS  H17X  793   1.806   5.561   3.640  0.3277  2.4851  0.7400
    6SAPS  H17Y  794   1.896   5.413   3.616  3.4188  4.3615 -1.8061
    6SAPS  C318  795   1.996   5.504   3.759 -0.0078 -0.0596 -0.3353
    6SAPS  H18X  796   1.991   5.589   3.829  0.5529  0.2674 -0.6768
    6SAPS  H18Y  797   2.061   5.538   3.675  0.0412 -0.0635 -0.2995
    6SAPS  H18Z  798   2.031   5.409   3.805 -0.9490 -0.2655 -0.0433
    7SAPS     N  799   2.519   7.040   6.075  0.1741 -0.7177  0.0889
    7SAPS   HN1  800   2.542   6.956   6.018  1.4221 -0.8245  0.7141
    7SAPS   HN2  801   2.603   7.102   6.077  2.5970 -3.7030  2.8760
    7SAPS   HN3  802   2.485   7.010   6.169 -1.1202  0.3106 -0.0219
    7SAPS   C12  803   2.401   7.100   6.014  0.0610 -0.3422  0.1377
    7SAPS  H12A  804   2.318   7.055   6.067  0.3129 -1.7021 -0.5604
    7SAPS   C13  805   2.372   7.258   6.017  0.0023  0.4528 -1.0879
    7SAPS  O13A  806   2.467   7.341   6.047  0.0638  0.9019  0.1465
    7SAPS  O13B  807   2.265   7.290   5.963  0.5662 -0.0198 -0.3965
    7SAPS   C11  808   2.389   7.045   5.866  0.3841  0.3451 -0.2779
    7SAPS  H11A  809   2.473   7.082   5.802  0.0992  0.0434 -0.8303
    7SAPS  H11B  810   2.292   7.076   5.822 -0.4794 -0.3348  1.1104
    7SAPS     P  811   2.339   6.807   5.767 -0.2110 -0.1439  0.4696
    7SAPS   O13  812   2.431   6.696   5.748 -0.4227  0.2538  0.2535
    7SAPS   O14  813   2.207   6.775   5.818  0.1256 -0.1413 -0.0977
    7SAPS   O12  814   2.399   6.901   5.872 -0.6165 -0.2209  0.3537
    7SAPS   O11  815   2.327   6.894   5.638  0.0582  0.6300 -0.4343
    7SAPS    C1  816   2.452   6.929   5.569 -0.2870 -0.6998  0.5130
    7SAPS    HA  817   2.531   6.959   5.641  0.0701  1.5515 -0.7378
    7SAPS    HB  818   2.489   6.848   5.503  0.5272  0.1199 -0.0488
    7SAPS    C2  819   2.432   7.069   5.491 -0.1387 -0.0198  0.8321
    7SAPS    HS  820   2.360   7.137   5.541 -0.9998  2.4076 -3.2336
    7SAPS   O21  821   2.379   7.038   5.362 -0.0870 -0.4719  0.4644
    7SAPS   C21  822   2.328   7.145   5.300  0.5753 -0.6238 -0.5322
    7SAPS   O22  823   2.303   7.251   5.354  0.2826 -0.6594 -0.1296
    7SAPS   C22  824   2.275   7.089   5.174 -0.6204  0.0986 -0.0798
    7SAPS   H2R  825   2.340   7.002   5.149 -0.6372 -0.0740  0.4766
    7SAPS   H2S  826   2.176   7.044   5.193 -0.0095 -1.2865 -0.0303
    7SAPS    C3  827   2.565   7.146   5.475  0.4309 -0.3682  0.5373
    7SAPS    HX  828   2.585   7.171   5.582  0.6892  2.0866 -0.0328
    7SAPS    HY  829   2.554   7.243   5.422 -2.3834 -0.2730  1.1235
    7SAPS   O31  830   2.669   7.064   5.413  0.4856  0.2370 -0.0607
    7SAPS   C31  831   2.677   7.057   5.280  0.5329 -0.7559  0.4070
    7SAPS   O32  832   2.619   7.132   5.199 -0.3779 -0.2542  0.1327
    7SAPS   C32  833   2.763   6.942   5.243  0.0360 -0.4084  0.1903
    7SAPS   H2X  834   2.693   6.856   5.255  0.1672 -0.6520 -0.6710
    7SAPS   H2Y  835   2.849   6.920   5.309 -0.5188 -0.8438  0.7737
    7SAPS   C23  836   2.279   7.192   5.061 -0.2155 -0.3746  0.1705
    7SAPS   H3R  837   2.359   7.267   5.077 -0.0092 -0.3355 -0.9370
    7SAPS   H3S  838   2.184   7.249   5.069 -0.7396 -1.2488  0.3216
    7SAPS   C24  839   2.275   7.137   4.918 -0.7774  0.0547 -0.2876
    7SAPS   H4R  840   2.191   7.064   4.919  0.6230 -1.7016 -1.6886
    7SAPS   H4S  841   2.365   7.071   4.919  1.9282  3.4916  0.1203
    7SAPS   C25  842   2.273   7.228   4.797 -0.0129 -0.2255  0.1861
    7SAPS   H5R  843   2.176   7.251   4.749  0.4191 -1.5099 -1.3925
    7SAPS   C26  844   2.375   7.293   4.743 -0.2427  0.5520  0.5014
    7SAPS   H6R  845   2.356   7.352   4.652 -2.1220  0.2419  0.6504
    7SAPS   C27  846   2.514   7.286   4.797  0.6233  1.1903  0.7800
    7SAPS   H7R  847   2.555   7.223   4.715 -2.2411 -1.2342  1.0321
    7SAPS   H7S  848   2.518   7.211   4.879  0.2719  0.2485 -0.0367
    7SAPS   C28  849   2.600   7.402   4.819  0.4948 -0.2132  0.0554
    7SAPS   H8R  850   2.602   7.442   4.922  0.4038  1.2912 -0.4986
    7SAPS   C29  851   2.666   7.484   4.734 -0.5878 -0.1811  0.6066
    7SAPS   H9R  852   2.718   7.573   4.773 -0.6991  0.2874 -0.3071
    7SAPS  C210  853   2.689   7.462   4.588  0.1224 -0.5010 -0.2037
    7SAPS  H10R  854   2.647   7.364   4.555  0.3351 -0.5049 -0.4608
    7SAPS  H10S  855   2.796   7.444   4.567 -0.3155 -0.4435 -2.8339
    7SAPS  C211  856   2.630   7.566   4.496  0.6994  0.7618  0.5854
    7SAPS  H11R  857   2.591   7.657   4.544 -0.8555 -0.7953  2.4700
    7SAPS  C212  858   2.603   7.540   4.363  0.2369  0.1938  0.5751
    7SAPS  H12R  859   2.555   7.623   4.308 -0.5078  0.3988  1.4896
    7SAPS  C213  860   2.636   7.415   4.291  0.3480  0.0729  0.2116
    7SAPS  H13R  861   2.702   7.343   4.345  1.1576 -2.2722 -3.4349
    7SAPS  H13S  862   2.699   7.448   4.205 -1.3691  2.1718 -0.3068
    7SAPS  C214  863   2.507   7.344   4.252  0.0923  0.3220 -0.2907
    7SAPS  H14R  864   2.459   7.295   4.339  0.9279  0.4762  0.2609
    7SAPS  C215  865   2.450   7.352   4.127  0.3976 -0.8676  0.0507
    7SAPS  H15R  866   2.356   7.301   4.103  0.6567 -0.8247 -1.1310
    7SAPS  C216  867   2.519   7.417   4.008  0.3981 -0.9020  0.0129
    7SAPS  H16R  868   2.475   7.364   3.922  1.0355  1.4379 -1.8592
    7SAPS  H16S  869   2.630   7.409   4.003  0.2482 -2.0620 -2.6165
    7SAPS  C217  870   2.488   7.562   3.986 -0.2783 -0.1670 -0.1982
    7SAPS  H17R  871   2.512   7.614   4.082 -3.4276 -0.5725  0.9354
    7SAPS  H17S  872   2.377   7.557   3.981 -0.7667 -1.3666  5.2175
    7SAPS  C218  873   2.549   7.622   3.859 -0.3277 -0.3024 -0.5741
    7SAPS  H18R  874   2.512   7.560   3.774 -0.6060 -0.4844 -0.3222
    7SAPS  H18S  875   2.659   7.612   3.866 -0.0032  1.1001 -2.7687
    7SAPS  C219  876   2.497   7.768   3.848  0.1808  0.7356 -0.3200
    7SAPS  H19R  877   2.403   7.761   3.907  0.6593 -1.1791  0.2811
    7SAPS  H19S  878   2.464   7.787   3.744  2.4885  1.4087 -0.9901
    7SAPS  C220  879   2.587   7.877   3.898  0.5359 -0.0106 -0.1265
    7SAPS  H20R  880   2.591   7.859   4.008 -1.0172 -0.2092 -0.0861
    7SAPS  H20S  881   2.552   7.980   3.873  3.8469  0.6249 -2.8323
    7SAPS  H20T  882   2.690   7.871   3.857  0.4358  4.0750 -1.4002
    7SAPS   C33  883   2.815   6.940   5.095 -0.2659  0.0907 -0.7210
    7SAPS   H3X  884   2.890   6.859   5.083 -1.3803 -1.2916  1.0831
    7SAPS   H3Y  885   2.864   7.039   5.080  1.3435 -0.6439 -0.5126
    7SAPS   C34  886   2.705   6.913   4.990 -0.5036  0.2880 -1.4142
    7SAPS   H4X  887   2.624   6.988   5.003 -0.0791  0.2809  2.1240
    7SAPS   H4Y  888   2.657   6.814   5.001  1.2416 -0.7237 -2.4327
    7SAPS   C35  889   2.768   6.925   4.843 -0.7776 -0.1118 -0.2524
    7SAPS   H5X  890   2.856   6.858   4.840  0.1193  1.0635 -2.6706
    7SAPS   H5Y  891   2.819   7.022   4.831 -0.4181 -0.3196 -0.4297
    7SAPS   C36  892   2.671   6.903   4.728  0.2849 -0.0325  0.1394
    7SAPS   H6X  893   2.612   6.998   4.721  1.3203  0.8243  2.2370
    7SAPS   H6Y  894   2.601   6.819   4.751  0.3379  0.7522  3.8301
    7SAPS   C37  895   2.752   6.881   4.603 -0.4532 -0.0474 -0.0374
    7SAPS   H7X  896   2.695   6.843   4.515 -1.1991  2.4586 -0.7269
    7SAPS   H7Y  897   2.825   6.798   4.616 -0.0739  0.4995  1.5952
    7SAPS   C38  898   2.821   7.007   4.552  0.4759  0.3907  0.6068
    7SAPS   H8X  899   2.920   7.005   4.602  0.1445  1.1908  1.3239
    7SAPS   H8Y  900   2.767   7.101   4.577  0.6895  0.9027 -0.7477
    7SAPS   C39  901   2.842   7.001   4.404 -0.1489  0.1457  0.1629
    7SAPS   H9X  902   2.746   7.015   4.350  1.0109  0.5109 -1.9226
    7SAPS   H9Y  903   2.864   6.894   4.385  1.3667  0.2732  0.9922
    7SAPS  C310  904   2.964   7.076   4.357  0.4231 -0.3931  0.4465
    7SAPS  H10X  905   3.051   7.050   4.421  1.0991 -0.7275 -0.5782
    7SAPS  H10Y  906   2.947   7.185   4.364 -1.1237 -0.5942  0.1062
    7SAPS  C311  907   2.992   7.032   4.209  0.3444 -0.3692 -0.2069
    7SAPS  H11X  908   3.029   6.928   4.202 -0.8311 -0.7379 -1.6520
    7SAPS  H11Y  909   3.085   7.086   4.179  0.0004 -0.2406 -1.0730
    7SAPS  C312  910   2.873   7.060   4.115  0.0232  0.3698 -0.1477
    7SAPS  H12X  911   2.823   7.151   4.157 -0.9513  0.3680 -1.2594
    7SAPS  H12Y  912   2.796   6.981   4.121 -0.5595  0.8224 -1.3332
    7SAPS  C313  913   2.916   7.081   3.973  0.2293  0.0279  0.1920
    7SAPS  H13X  914   2.920   6.981   3.924  0.7868  1.0630 -1.9632
    7SAPS  H13Y  915   3.016   7.130   3.972 -0.2360  1.0255 -1.4160
    7SAPS  C314  916   2.816   7.179   3.914  0.1340 -0.3794  0.1936
    7SAPS  H14X  917   2.813   7.282   3.957 -0.0178  0.2240 -1.2145
    7SAPS  H14Y  918   2.708   7.153   3.910  0.1530 -0.2992 -1.8243
    7SAPS  C315  919   2.842   7.208   3.762 -0.1062  0.1692 -0.4808
    7SAPS  H15X  920   2.815   7.113   3.710 -1.7072  0.2359  0.1784
    7SAPS  H15Y  921   2.943   7.244   3.735 -0.1214 -0.0384 -0.8222
    7SAPS  C316  922   2.746   7.312   3.707  0.5001 -0.2631  0.0978
    7SAPS  H16X  923   2.776   7.414   3.739 -1.2175  0.8670 -1.6345
    7SAPS  H16Y  924   2.649   7.281   3.753  0.8021  1.4461  2.0344
    7SAPS  C317  925   2.725   7.311   3.554 -0.2239  0.1196 -0.5311
    7SAPS  H17X  926   2.691   7.209   3.526 -0.1355  0.2767 -1.2157
    7SAPS  H17Y  927   2.824   7.330   3.507 -0.1544  0.4535 -0.2541
    7SAPS  C318  928   2.623   7.415   3.503 -0.4769  0.2652  0.1022
    7SAPS  H18X  929   2.612   7.406   3.393 -1.3675 -0.1380  0.2156
    7SAPS  H18Y  930   2.647   7.518   3.536  1.8644 -0.4612  0.8881
    7SAPS  H18Z  931   2.522   7.392   3.543  0.0225  0.4312  1.5078
    8SAPS     N  932   2.002   0.235   5.938  0.3551  0.0668  0.2208
    8SAPS   HN1  933   1.995   0.288   5.848 -0.7667  0.5471  0.5671
    8SAPS   HN2  934   2.092   0.186   5.953 -0.4841 -1.5505  0.1727
    8SAPS   HN3  935   1.933   0.159   5.924  0.7305 -0.1954 -0.2072
    8SAPS   C12  936   1.971   0.325   6.046 -0.7892  0.4908 -0.4280
    8SAPS  H12A  937   1.869   0.355   6.029 -0.2599  1.2723 -2.4871
    8SAPS   C13  938   1.974   0.243   6.177  0.3083  0.2308 -0.1267
    8SAPS  O13A  939   1.967   0.114   6.182  0.6622 -0.0283 -0.4876
    8SAPS  O13B  940   1.961   0.307   6.288  0.6625  0.6934  0.4595
    8SAPS   C11  941   2.084   0.438   6.044  0.7272  0.4079  0.3843
    8SAPS  H11A  942   2.110   0.477   5.943  0.7721  0.7247  0.5166
    8SAPS  H11B  943   2.177   0.391   6.083  0.8178  0.2675  0.0002
    8SAPS     P  944   1.942   0.657   6.087 -0.2319  0.1751 -0.0647
    8SAPS   O13  945   1.812   0.592   6.116 -0.1339 -0.2270  0.2534
    8SAPS   O14  946   1.968   0.782   6.161  0.2950  0.0041  0.5548
    8SAPS   O12  947   2.054   0.553   6.127  0.3621  0.4494 -0.1409
    8SAPS   O11  948   1.964   0.678   5.936 -0.2796  0.1892  0.1695
    8SAPS    C1  949   1.986   0.804   5.882 -0.3516  0.1998  0.8698
    8SAPS    HA  950   1.897   0.867   5.900 -1.0605 -0.6821  0.5104
    8SAPS    HB  951   2.074   0.859   5.922 -0.0337  0.2255  0.1557
    8SAPS    C2  952   2.024   0.795   5.730  0.5019 -0.2593 -0.3835
    8SAPS    HS  953   2.040   0.897   5.688  0.9716 -0.2053 -0.0803
    8SAPS   O21  954   1.928   0.728   5.650  0.4561 -0.5256 -0.1280
    8SAPS   C21  955   1.823   0.802   5.630  0.4695  0.4950  0.1516
    8SAPS   O22  956   1.810   0.920   5.662  0.7324  0.2261 -0.4856
    8SAPS   C22  957   1.734   0.726   5.541 -0.2601 -0.1784 -0.3524
    8SAPS   H2R  958   1.778   0.625   5.532  2.8950  1.1837 -1.3884
    8SAPS   H2S  959   1.635   0.727   5.593  0.7503 -0.0007  1.6974
    8SAPS    C3  960   2.168   0.731   5.720  0.3982 -0.5184 -0.6032
    8SAPS    HX  961   2.186   0.639   5.779  1.6876 -1.2794 -2.1028
    8SAPS    HY  962   2.230   0.805   5.774  0.9114  1.2546 -3.3969
    8SAPS   O31  963   2.221   0.713   5.586 -0.1082 -0.6355  0.2860
    8SAPS   C31  964   2.179   0.603   5.531 -0.8764  0.0494  0.1675
    8SAPS   O32  965   2.091   0.530   5.566  0.0726  0.8735  0.5811
    8SAPS   C32  966   2.268   0.588   5.411  0.1918 -1.0040  0.4808
    8SAPS   H2X  967   2.369   0.598   5.456  0.8389 -1.6993 -0.7775
    8SAPS   H2Y  968   2.248   0.678   5.350  1.0977 -1.9717 -1.3248
    8SAPS   C23  969   1.720   0.801   5.413 -0.6154  0.5104 -0.0278
    8SAPS   H3R  970   1.680   0.903   5.432  0.7061  0.7536  1.7529
    8SAPS   H3S  971   1.637   0.754   5.355  0.3311  1.4980 -2.3293
    8SAPS   C24  972   1.852   0.815   5.329  0.3248  0.3056  0.1652
    8SAPS   H4R  973   1.927   0.870   5.390  0.4965  0.4411 -0.1669
    8SAPS   H4S  974   1.842   0.887   5.245 -1.4797 -1.2194 -1.0023
    8SAPS   C25  975   1.891   0.680   5.281  1.2478 -0.4715  0.0511
    8SAPS   H5R  976   1.891   0.599   5.355  2.1722 -0.9536 -0.4512
    8SAPS   C26  977   1.912   0.651   5.148  0.2515  0.0527 -0.1989
    8SAPS   H6R  978   1.936   0.546   5.125 -1.1900 -0.5148  0.7069
    8SAPS   C27  979   1.895   0.753   5.034  0.0253  0.2861 -0.3492
    8SAPS   H7R  980   1.976   0.828   5.038  1.0272 -0.7305  4.6615
    8SAPS   H7S  981   1.801   0.811   5.042 -0.4745 -0.3724 -1.2425
    8SAPS   C28  982   1.896   0.695   4.891  0.1983 -0.0025  1.2425
    8SAPS   H8R  983   1.896   0.585   4.891  1.5321 -0.0367 -0.3324
    8SAPS   C29  984   1.887   0.761   4.772 -0.3719 -0.1663 -0.4839
    8SAPS   H9R  985   1.897   0.709   4.675  1.8420 -0.2233 -0.2725
    8SAPS  C210  986   1.869   0.911   4.760 -0.5480 -0.2044  0.2552
    8SAPS  H10R  987   1.954   0.960   4.708 -0.9392  0.1456 -0.0715
    8SAPS  H10S  988   1.867   0.956   4.861 -0.1759 -4.3365  2.2935
    8SAPS  C211  989   1.730   0.933   4.695  0.5779 -0.1294 -0.2342
    8SAPS  H11R  990   1.663   0.943   4.782  0.7388 -1.3439  0.0514
    8SAPS  C212  991   1.681   0.917   4.565  0.4566 -0.1743  0.1528
    8SAPS  H12R  992   1.572   0.916   4.553  0.5646  0.0320 -0.9621
    8SAPS  C213  993   1.765   0.877   4.441  0.5999 -0.0815 -0.0386
    8SAPS  H13R  994   1.873   0.879   4.467  0.5998  1.5944 -0.0907
    8SAPS  H13S  995   1.745   0.940   4.352  0.5070 -1.4232 -0.9998
    8SAPS  C214  996   1.721   0.732   4.413 -0.4255 -0.5625 -0.0480
    8SAPS  H14R  997   1.697   0.673   4.503 -2.2565 -1.2074 -0.9154
    8SAPS  C215  998   1.700   0.676   4.295  0.7740  0.3562 -0.3434
    8SAPS  H15R  999   1.658   0.575   4.289  1.2171  0.2245 -1.3981
    8SAPS  C216 1000   1.718   0.737   4.157 -0.6792  0.8344  0.7645
    8SAPS  H16R 1001   1.799   0.813   4.154 -1.0045  1.1672  0.2565
    8SAPS  H16S 1002   1.626   0.779   4.111  1.2753  1.8958 -2.5822
    8SAPS  C217 1003   1.768   0.631   4.054 -0.1059  0.1978 -0.2834
    8SAPS  H17R 1004   1.694   0.549   4.045 -0.0803  0.3460 -2.4184
    8SAPS  H17S 1005   1.864   0.587   4.087  0.0970  1.5506  1.0570
    8SAPS  C218 1006   1.796   0.694   3.914  0.2408 -0.1742  0.4393
    8SAPS  H18R 1007   1.716   0.764   3.885  1.7730  0.9737 -1.2554
    8SAPS  H18S 1008   1.795   0.611   3.840  1.9116  0.5137 -0.4200
    8SAPS  C219 1009   1.936   0.760   3.893  0.2533 -0.0255 -0.5439
    8SAPS  H19R 1010   2.013   0.684   3.920 -0.4572 -0.4009  0.5144
    8SAPS  H19S 1011   1.949   0.850   3.957  1.9700  0.9543 -2.1759
    8SAPS  C220 1012   1.954   0.809   3.748 -0.0910  0.2384  0.1736
    8SAPS  H20R 1013   2.058   0.848   3.738  0.3242 -0.4271  1.5858
    8SAPS  H20S 1014   1.880   0.885   3.715 -1.0166  0.3025  2.2535
    8SAPS  H20T 1015   1.949   0.728   3.673  0.0667  0.0504  0.3673
    8SAPS   C33 1016   2.259   0.458   5.324  0.0237  0.8670 -0.0403
    8SAPS   H3X 1017   2.156   0.440   5.288  0.0372 -1.0003  0.7357
    8SAPS   H3Y 1018   2.294   0.376   5.391  2.8771 -0.4692 -2.9184
    8SAPS   C34 1019   2.335   0.474   5.193  0.3003  0.3266 -0.5739
    8SAPS   H4X 1020   2.368   0.374   5.158  2.2025 -0.3807  2.7617
    8SAPS   H4Y 1021   2.426   0.528   5.224  0.8208 -0.9159  0.1466
    8SAPS   C35 1022   2.260   0.554   5.081  0.3154 -1.0087 -0.4404
    8SAPS   H5X 1023   2.264   0.662   5.107 -1.8225 -0.5158 -1.8651
    8SAPS   H5Y 1024   2.155   0.519   5.092 -0.4877  1.6124  1.1541
    8SAPS   C36 1025   2.327   0.527   4.946 -0.4054 -0.1887 -0.4063
    8SAPS   H6X 1026   2.267   0.450   4.893 -1.4004  0.6382 -0.5419
    8SAPS   H6Y 1027   2.428   0.486   4.967 -1.1752 -0.5297  3.3962
    8SAPS   C37 1028   2.321   0.649   4.861 -0.1979 -0.9059 -0.1572
    8SAPS   H7X 1029   2.392   0.725   4.901  0.3699 -0.7567 -1.3983
    8SAPS   H7Y 1030   2.225   0.702   4.877 -0.7119 -1.9890  0.5203
    8SAPS   C38 1031   2.340   0.629   4.711  0.0544 -0.0270  0.1741
    8SAPS   H8X 1032   2.423   0.556   4.706 -0.2828 -0.4700  0.8354
    8SAPS   H8Y 1033   2.369   0.726   4.664 -1.9106  1.0155  0.9589
    8SAPS   C39 1034   2.222   0.559   4.632  0.1214 -0.2619 -0.1631
    8SAPS   H9X 1035   2.120   0.589   4.665  0.5688  0.1450  0.8718
    8SAPS   H9Y 1036   2.230   0.451   4.657  2.5494 -0.1656 -0.3013
    8SAPS  C310 1037   2.240   0.590   4.479  0.2591 -0.3360 -0.4483
    8SAPS  H10X 1038   2.334   0.544   4.442  0.6746 -0.4330  0.6943
    8SAPS  H10Y 1039   2.248   0.701   4.469 -1.7078 -0.1103  0.0805
    8SAPS  C311 1040   2.114   0.557   4.396  0.4882 -0.5275  0.1906
    8SAPS  H11X 1041   2.112   0.609   4.298  0.7267  2.2523  1.5714
    8SAPS  H11Y 1042   2.028   0.595   4.454 -0.7938 -0.9524 -1.3664
    8SAPS  C312 1043   2.099   0.410   4.359 -0.1751 -0.6035 -0.9790
    8SAPS  H12X 1044   2.073   0.352   4.451  1.2302 -1.4458 -1.0738
    8SAPS  H12Y 1045   2.201   0.384   4.322  0.7252  3.5707 -1.8653
    8SAPS  C313 1046   1.999   0.399   4.249  0.1261  0.5043  0.1703
    8SAPS  H13X 1047   2.032   0.462   4.164 -1.6083  3.1899  1.3502
    8SAPS  H13Y 1048   1.908   0.447   4.292 -0.3541 -2.1009  2.3192
    8SAPS  C314 1049   1.951   0.254   4.216  0.0272 -0.2961  0.0961
    8SAPS  H14X 1050   1.859   0.257   4.155  0.5159 -0.0184 -0.6431
    8SAPS  H14Y 1051   1.923   0.219   4.318 -2.0322  1.3081  0.1420
    8SAPS  C315 1052   2.061   0.157   4.170 -0.2391 -0.5366  0.5563
    8SAPS  H15X 1053   2.128   0.138   4.257  2.5815  3.8665 -0.3309
    8SAPS  H15Y 1054   2.129   0.200   4.093  2.1422 -2.5549  1.3849
    8SAPS  C316 1055   2.007   0.032   4.098 -0.4456 -0.4259 -0.2986
    8SAPS  H16X 1056   1.960  -0.026   4.180  3.1606 -1.2054  1.4510
    8SAPS  H16Y 1057   2.089  -0.023   4.047 -0.4871 -0.7529 -0.0137
    8SAPS  C317 1058   1.909   0.065   3.985 -0.4372 -0.1929  0.1737
    8SAPS  H17X 1059   1.958   0.140   3.919 -1.6964  1.7852  1.3844
    8SAPS  H17Y 1060   1.815   0.117   4.013 -0.6021 -0.2625 -0.2404
    8SAPS  C318 1061   1.871  -0.067   3.918  0.1864  0.0500 -0.3147
    8SAPS  H18X 1062   1.789  -0.124   3.966  0.4445 -0.4103 -0.4088
    8SAPS  H18Y 1063   1.959  -0.132   3.897  0.9741  1.2369 -0.8057
    8SAPS  H18Z 1064   1.835  -0.032   3.819  0.5971  1.2383 -0.0582
    9SAPS     N 1065   6.550   6.520   5.933  0.4891  0.5689  0.4220
    9SAPS   HN1 1066   6.475   6.556   5.869  0.0583 -0.4915  0.3055
    9SAPS   HN2 1067   6.640   6.512   5.882 -0.3442 -0.7711 -0.9243
    9SAPS   HN3 1068   6.525   6.423   5.961  0.5179  0.8633  1.4990
    9SAPS   C12 1069   6.560   6.615   6.047  0.0403 -0.0534 -0.7663
    9SAPS  H12A 1070   6.619   6.566   6.123 -1.2030  0.0493  0.3046
    9SAPS   C13 1071   6.635   6.748   6.016 -0.3753  0.0343  1.0614
    9SAPS  O13A 1072   6.692   6.753   5.902 -0.5317 -0.1519  0.1561
    9SAPS  O13B 1073   6.678   6.814   6.114  0.2911  0.0916  0.3547
    9SAPS   C11 1074   6.420   6.639   6.104  0.0209  0.5994  0.1486
    9SAPS  H11A 1075   6.356   6.697   6.034 -2.7558 -0.0636  1.9783
    9SAPS  H11B 1076   6.423   6.694   6.201 -1.3503 -1.6127  1.5410
    9SAPS     P 1077   6.203   6.497   6.151 -0.2671 -0.2230  0.0426
    9SAPS   O13 1078   6.165   6.377   6.228  0.7552  0.4895  0.2466
    9SAPS   O14 1079   6.147   6.623   6.210 -0.5258  0.2425 -0.1431
    9SAPS   O12 1080   6.348   6.513   6.135  0.4876  0.3920  0.3506
    9SAPS   O11 1081   6.147   6.468   6.005 -0.3088 -0.1770  1.0101
    9SAPS    C1 1082   6.163   6.337   5.950  0.6204  0.1998  0.5297
    9SAPS    HA 1083   6.245   6.277   5.994 -1.3084 -1.9933  1.3733
    9SAPS    HB 1084   6.074   6.276   5.978  1.4331 -0.8341  0.9152
    9SAPS    C2 1085   6.182   6.349   5.792 -0.2118 -0.1600 -0.7534
    9SAPS    HS 1086   6.262   6.426   5.787  1.1173 -1.3085  1.2748
    9SAPS   O21 1087   6.054   6.387   5.733 -0.3032  0.4032  0.0714
    9SAPS   C21 1088   6.069   6.469   5.625 -0.0203  0.0912 -0.7416
    9SAPS   O22 1089   6.178   6.518   5.588  0.0426 -0.1993 -0.4747
    9SAPS   C22 1090   5.929   6.483   5.558 -0.2083 -0.6588  0.4863
    9SAPS   H2R 1091   5.930   6.411   5.473 -2.0161 -0.9914  0.7018
    9SAPS   H2S 1092   5.857   6.457   5.639 -1.5023  1.4063  0.0557
    9SAPS    C3 1093   6.238   6.222   5.735 -0.3330  0.2136  0.3997
    9SAPS    HX 1094   6.171   6.138   5.761 -0.1715 -0.5347 -1.4528
    9SAPS    HY 1095   6.326   6.197   5.798 -1.4776 -0.3726  1.8147
    9SAPS   O31 1096   6.276   6.240   5.595  0.3468 -0.5531 -0.2925
    9SAPS   C31 1097   6.192   6.183   5.507  0.3565  0.5426 -0.4100
    9SAPS   O32 1098   6.111   6.102   5.544  0.4173  0.5464 -0.3600
    9SAPS   C32 1099   6.222   6.227   5.367  0.0855  0.4088  0.4294
    9SAPS   H2X 1100   6.308   6.169   5.329 -1.0711 -1.2782  0.2788
    9SAPS   H2Y 1101   6.248   6.335   5.376  2.1260  0.1023 -1.0470
    9SAPS   C23 1102   5.897   6.630   5.510 -0.3826 -0.3571 -0.1196
    9SAPS   H3R 1103   5.978   6.702   5.532 -0.3628 -0.2772 -0.4430
    9SAPS   H3S 1104   5.806   6.671   5.558 -1.1420 -1.5883 -0.4405
    9SAPS   C24 1105   5.881   6.623   5.359 -0.6806 -0.7629  0.2222
    9SAPS   H4R 1106   5.978   6.585   5.320 -0.7556 -1.1995  0.4595
    9SAPS   H4S 1107   5.874   6.727   5.319 -1.3635 -0.1287  1.9043
    9SAPS   C25 1108   5.764   6.562   5.309  0.8118  0.2235  0.4490
    9SAPS   H5R 1109   5.689   6.550   5.389 -2.3090  0.5835 -2.2177
    9SAPS   C26 1110   5.734   6.507   5.187  0.2980  0.0525  0.0933
    9SAPS   H6R 1111   5.640   6.456   5.163 -0.2374  0.8966  0.3159
    9SAPS   C27 1112   5.822   6.504   5.063  0.0403  0.7663 -0.6982
    9SAPS   H7R 1113   5.826   6.400   5.024  1.1886 -0.4610  2.3188
    9SAPS   H7S 1114   5.927   6.536   5.080  0.0931 -0.7021  2.6089
    9SAPS   C28 1115   5.762   6.604   4.968 -0.3822  1.1060 -0.4781
    9SAPS   H8R 1116   5.659   6.634   4.990 -0.7477 -0.6396  0.2908
    9SAPS   C29 1117   5.816   6.643   4.849  1.0314  0.3215 -0.4362
    9SAPS   H9R 1118   5.754   6.717   4.797 -1.0421  0.6046  2.2220
    9SAPS  C210 1119   5.945   6.592   4.787 -0.0829 -0.4113  0.4520
    9SAPS  H10R 1120   5.947   6.482   4.800 -1.7073 -0.4112  0.9263
    9SAPS  H10S 1121   6.032   6.634   4.843  2.0222 -1.6182 -1.7416
    9SAPS  C211 1122   5.971   6.618   4.646  0.1337  0.8790 -0.0952
    9SAPS  H11R 1123   6.062   6.675   4.622  0.1959 -0.0405 -2.3356
    9SAPS  C212 1124   5.892   6.591   4.540 -1.1892  0.0625 -0.4586
    9SAPS  H12R 1125   5.919   6.614   4.435 -0.1962  1.7572  0.1295
    9SAPS  C213 1126   5.761   6.522   4.555  0.1025 -0.1301 -0.1220
    9SAPS  H13R 1127   5.677   6.594   4.541  0.8171  0.4444 -1.8508
    9SAPS  H13S 1128   5.755   6.495   4.662  1.4666  2.4569  0.6750
    9SAPS  C214 1129   5.728   6.407   4.457  0.4748  0.1770 -0.1837
    9SAPS  H14R 1130   5.691   6.456   4.366 -0.9968  0.0784  0.3390
    9SAPS  C215 1131   5.718   6.271   4.480  0.0499 -0.8820  0.4928
    9SAPS  H15R 1132   5.668   6.210   4.404  1.2681  0.6454 -1.6643
    9SAPS  C216 1133   5.739   6.206   4.618 -0.2446  0.0339 -0.5098
    9SAPS  H16R 1134   5.826   6.248   4.673  1.6448 -0.5899 -2.8611
    9SAPS  H16S 1135   5.774   6.101   4.610 -0.3517 -0.1760  1.3823
    9SAPS  C217 1136   5.613   6.223   4.708 -0.3399  0.0388 -0.2983
    9SAPS  H17R 1137   5.537   6.169   4.648  1.3260 -0.8721 -1.6888
    9SAPS  H17S 1138   5.581   6.329   4.708 -2.3940 -0.5036  1.3010
    9SAPS  C218 1139   5.633   6.164   4.846 -0.0457 -0.0816  0.2139
    9SAPS  H18R 1140   5.733   6.201   4.875  0.2991  1.1038 -2.2223
    9SAPS  H18S 1141   5.648   6.054   4.846  1.4017  0.0343 -1.9486
    9SAPS  C219 1142   5.516   6.218   4.929  0.3739  0.3204 -0.5070
    9SAPS  H19R 1143   5.427   6.203   4.865  1.3103 -0.6489 -1.6361
    9SAPS  H19S 1144   5.519   6.328   4.947 -1.4633  0.1717  0.9896
    9SAPS  C220 1145   5.498   6.139   5.059 -0.1562 -0.9372  0.7782
    9SAPS  H20R 1146   5.469   6.035   5.034 -0.6515 -0.6728  0.2106
    9SAPS  H20S 1147   5.427   6.192   5.126  0.7263  1.3700 -0.0105
    9SAPS  H20T 1148   5.597   6.135   5.108  0.3300  0.3575 -0.0458
    9SAPS   C33 1149   6.106   6.193   5.268 -0.8689  0.6538 -0.6104
    9SAPS   H3X 1150   6.016   6.240   5.314  0.0613  2.6928 -0.7409
    9SAPS   H3Y 1151   6.089   6.083   5.266 -0.3688  0.4705  1.9182
    9SAPS   C34 1152   6.119   6.253   5.126  0.2723  0.2026 -0.5337
    9SAPS   H4X 1153   6.132   6.362   5.146 -0.4754  0.4625 -1.4038
    9SAPS   H4Y 1154   6.022   6.245   5.072  0.7421  0.2970 -1.4086
    9SAPS   C35 1155   6.235   6.185   5.045  0.3088 -0.2058 -0.2156
    9SAPS   H5X 1156   6.212   6.077   5.037 -0.7949  0.1230 -2.1042
    9SAPS   H5Y 1157   6.326   6.190   5.108  1.2119  1.2362 -1.5535
    9SAPS   C36 1158   6.276   6.242   4.913  0.0554 -0.0912  0.3883
    9SAPS   H6X 1159   6.362   6.179   4.881  0.6877  1.4661 -1.1753
    9SAPS   H6Y 1160   6.315   6.346   4.923  0.2290 -0.2455  1.3643
    9SAPS   C37 1161   6.158   6.251   4.817  0.1967 -0.2989 -0.3458
    9SAPS   H7X 1162   6.102   6.345   4.837  0.6863 -0.3572  1.4943
    9SAPS   H7Y 1163   6.097   6.159   4.826 -1.3146  0.5584 -1.3474
    9SAPS   C38 1164   6.200   6.260   4.670  0.2510 -0.2173 -0.7378
    9SAPS   H8X 1165   6.106   6.251   4.612 -1.1871  0.0908  1.4332
    9SAPS   H8Y 1166   6.260   6.175   4.631  1.4472 -0.2623  1.0530
    9SAPS   C39 1167   6.282   6.388   4.633  0.0946  0.2182  0.0358
    9SAPS   H9X 1168   6.368   6.403   4.701 -1.9635 -0.2570  2.8964
    9SAPS   H9Y 1169   6.216   6.476   4.646 -1.6619 -0.7553 -1.7943
    9SAPS  C310 1170   6.322   6.368   4.485 -0.9933 -0.1951  0.1053
    9SAPS  H10X 1171   6.354   6.266   4.454  0.8027  0.5724 -0.6689
    9SAPS  H10Y 1172   6.417   6.425   4.477 -0.9634 -0.0397  1.3788
    9SAPS  C311 1173   6.217   6.421   4.386 -1.5474 -0.3675  0.2206
    9SAPS  H11X 1174   6.190   6.527   4.405  1.0242  0.3247  0.3239
    9SAPS  H11Y 1175   6.130   6.352   4.393  0.0831 -2.5500 -0.0438
    9SAPS  C312 1176   6.261   6.394   4.237 -0.1875 -0.0514 -1.1450
    9SAPS  H12X 1177   6.342   6.461   4.200 -1.1706 -0.5672 -4.6077
    9SAPS  H12Y 1178   6.170   6.410   4.175 -2.1317 -0.8117  1.3564
    9SAPS  C313 1179   6.312   6.255   4.192  0.0313 -0.1195 -0.7533
    9SAPS  H13X 1180   6.233   6.179   4.203  0.9021 -0.7203  2.4535
    9SAPS  H13Y 1181   6.401   6.231   4.255 -0.7841  0.8723  0.8339
    9SAPS  C314 1182   6.363   6.262   4.048  0.1048 -0.1328  0.0859
    9SAPS  H14X 1183   6.439   6.342   4.034  2.1712 -1.8165  1.1692
    9SAPS  H14Y 1184   6.281   6.290   3.978  0.5218  0.2877 -0.2438
    9SAPS  C315 1185   6.421   6.125   3.999  0.6041 -0.1684  0.4969
    9SAPS  H15X 1186   6.345   6.045   4.010  0.0149  0.3855  0.5863
    9SAPS  H15Y 1187   6.509   6.114   4.066  0.6407 -4.6785  0.0217
    9SAPS  C316 1188   6.450   6.126   3.850  0.7840  0.0021  0.2997
    9SAPS  H16X 1189   6.529   6.204   3.843  1.4593 -0.5024  1.8037
    9SAPS  H16Y 1190   6.362   6.157   3.788  1.0307  0.7620  0.3179
    9SAPS  C317 1191   6.496   5.982   3.803  0.2304 -0.9204 -0.2998
    9SAPS  H17X 1192   6.419   5.915   3.846 -0.4558  0.1641  0.1799
    9SAPS  H17Y 1193   6.590   5.965   3.860  1.2891 -1.1391 -2.0291
    9SAPS  C318 1194   6.518   5.967   3.651 -0.7498 -0.8349  0.1315
    9SAPS  H18X 1195   6.429   5.981   3.586 -0.2509 -1.1187 -0.6232
    9SAPS  H18Y 1196   6.550   5.861   3.647  1.4787 -0.2953  1.7592
    9SAPS  H18Z 1197   6.611   6.020   3.622 -0.1149 -1.2799  1.2748
   10SAPS     N 1198   0.891   6.418   6.325 -0.5239  0.4567 -0.1779
   10SAPS   HN1 1199   0.871   6.422   6.223  1.9021 -0.0978 -0.7330
   10SAPS   HN2 1200   0.937   6.326   6.336 -0.7019  0.4158  0.2554
   10SAPS   HN3 1201   0.802   6.423   6.378 -2.1182  0.7390 -2.6997
   10SAPS   C12 1202   0.972   6.533   6.361 -0.0207 -0.2461  0.1512
   10SAPS  H12A 1203   0.923   6.624   6.330 -2.6945 -1.0903  1.6314
   10SAPS   C13 1204   0.994   6.550   6.516 -0.2124 -0.2825 -0.0153
   10SAPS  O13A 1205   0.942   6.471   6.594 -0.3467  0.6448 -0.0436
   10SAPS  O13B 1206   1.058   6.647   6.561  0.0366  0.1028 -0.4463
   10SAPS   C11 1207   1.113   6.534   6.301  0.3848 -0.7684  0.4616
   10SAPS  H11A 1208   1.168   6.443   6.334 -0.2167 -0.3692  2.7732
   10SAPS  H11B 1209   1.168   6.624   6.335  0.0806  0.2875 -1.6741
   10SAPS     P 1210   1.236   6.524   6.071  0.2096  0.0251 -0.0513
   10SAPS   O13 1211   1.356   6.498   6.156 -0.4700  0.3821  0.3254
   10SAPS   O14 1212   1.209   6.443   5.955  0.3292  0.1189  0.6044
   10SAPS   O12 1213   1.104   6.533   6.157  0.4506 -0.1090 -0.2663
   10SAPS   O11 1214   1.245   6.670   6.020  0.2599 -0.3402  0.4770
   10SAPS    C1 1215   1.136   6.728   5.943 -0.1211  0.2522  0.1947
   10SAPS    HA 1216   1.038   6.685   5.973  0.6685 -1.3581  0.5790
   10SAPS    HB 1217   1.138   6.836   5.970 -0.1299 -0.6731  4.6695
   10SAPS    C2 1218   1.135   6.714   5.789  0.4301  0.4035  0.2212
   10SAPS    HS 1219   1.165   6.608   5.779  1.2124  0.6123  0.2731
   10SAPS   O21 1220   1.233   6.807   5.739 -0.1768 -0.2021  1.0232
   10SAPS   C21 1221   1.355   6.773   5.748 -0.2290 -0.5257  0.4726
   10SAPS   O22 1222   1.399   6.663   5.782 -0.3169 -0.0312  0.3897
   10SAPS   C22 1223   1.442   6.881   5.685 -0.3919 -0.6631 -0.6691
   10SAPS   H2R 1224   1.442   6.974   5.745  0.7011  0.3863 -2.2128
   10SAPS   H2S 1225   1.545   6.839   5.683 -1.0010 -2.3534 -3.6398
   10SAPS    C3 1226   0.997   6.748   5.720 -0.3106 -0.3360 -0.5571
   10SAPS    HX 1227   0.970   6.853   5.744  0.2911 -0.1748 -0.5700
   10SAPS    HY 1228   0.930   6.676   5.773 -0.6812 -0.0376 -0.6192
   10SAPS   O31 1229   1.008   6.723   5.574  0.2076 -0.3835 -0.0325
   10SAPS   C31 1230   0.890   6.738   5.515  0.0891  0.6604  0.6481
   10SAPS   O32 1231   0.794   6.789   5.563  1.0265 -0.1985 -0.5226
   10SAPS   C32 1232   0.904   6.643   5.388 -0.1417  0.7346 -0.1387
   10SAPS   H2X 1233   0.830   6.562   5.396  0.0099  0.3304 -2.3075
   10SAPS   H2Y 1234   1.008   6.603   5.392  0.0188  1.1009 -0.5327
   10SAPS   C23 1235   1.396   6.915   5.537 -0.1217  0.1544  0.3987
   10SAPS   H3R 1236   1.448   7.004   5.497  1.7932 -0.7128  0.8312
   10SAPS   H3S 1237   1.288   6.943   5.543 -0.1307  0.3907 -0.6106
   10SAPS   C24 1238   1.424   6.811   5.428  0.3519  0.7739  0.1565
   10SAPS   H4R 1239   1.533   6.793   5.427  0.2993  0.4596 -0.9828
   10SAPS   H4S 1240   1.408   6.863   5.332 -1.3897 -1.2972 -0.7599
   10SAPS   C25 1241   1.332   6.693   5.418 -0.0286  0.8885 -0.4187
   10SAPS   H5R 1242   1.280   6.678   5.513 -0.3361 -0.7891 -0.8110
   10SAPS   C26 1243   1.293   6.624   5.309 -0.7621 -0.3276 -0.4081
   10SAPS   H6R 1244   1.206   6.557   5.319 -1.9447  0.9356 -1.6830
   10SAPS   C27 1245   1.331   6.648   5.166  0.2102 -0.1277  1.3056
   10SAPS   H7R 1246   1.336   6.551   5.112  0.5851  1.8183 -2.4625
   10SAPS   H7S 1247   1.438   6.677   5.160  0.2446 -0.6060 -1.7665
   10SAPS   C28 1248   1.258   6.756   5.086  0.2027  0.6906 -0.1664
   10SAPS   H8R 1249   1.199   6.832   5.140  0.1074  1.4783 -1.3492
   10SAPS   C29 1250   1.254   6.744   4.950  0.0083  0.6009  0.2486
   10SAPS   H9R 1251   1.188   6.813   4.895 -0.1148 -0.1323 -0.5367
   10SAPS  C210 1252   1.318   6.634   4.873 -0.2685 -0.3988 -0.8976
   10SAPS  H10R 1253   1.338   6.535   4.920 -0.1940 -0.4199 -0.9737
   10SAPS  H10S 1254   1.416   6.675   4.842 -0.4848  0.2318 -0.7515
   10SAPS  C211 1255   1.228   6.596   4.757  0.6844  0.3138 -0.0815
   10SAPS  H11R 1256   1.137   6.540   4.783 -0.5325  1.5586 -1.4488
   10SAPS  C212 1257   1.238   6.643   4.631  0.1521 -0.1357  0.1798
   10SAPS  H12R 1258   1.161   6.618   4.557  0.7206  0.6661 -0.7121
   10SAPS  C213 1259   1.346   6.725   4.571 -0.3688 -0.8278  0.5572
   10SAPS  H13R 1260   1.396   6.666   4.492  0.5473 -3.3735  2.9115
   10SAPS  H13S 1261   1.430   6.746   4.640  1.1144  0.0778 -1.4402
   10SAPS  C214 1262   1.289   6.861   4.521 -0.2262 -0.0528 -0.5682
   10SAPS  H14R 1263   1.304   6.945   4.591  1.0036  0.0618 -0.9570
   10SAPS  C215 1264   1.248   6.886   4.394 -0.6607  0.0839  1.2812
   10SAPS  H15R 1265   1.189   6.976   4.368  2.4304  1.5675 -1.2313
   10SAPS  C216 1266   1.259   6.780   4.286 -0.2860 -0.5983 -0.4466
   10SAPS  H16R 1267   1.251   6.680   4.335 -1.1009 -1.5123 -2.3119
   10SAPS  H16S 1268   1.353   6.786   4.227  0.0511 -0.6921  0.0809
   10SAPS  C217 1269   1.140   6.779   4.190  0.4576 -0.4008 -0.2077
   10SAPS  H17R 1270   1.045   6.801   4.244 -0.7321  1.8707 -3.0006
   10SAPS  H17S 1271   1.129   6.687   4.130  0.4304 -1.1614  0.9257
   10SAPS  C218 1272   1.149   6.900   4.092  0.3637  0.3767 -0.4428
   10SAPS  H18R 1273   1.222   6.877   4.012 -2.5887  0.5217 -3.3840
   10SAPS  H18S 1274   1.173   6.987   4.157 -1.3613  0.5584  0.0026
   10SAPS  C219 1275   1.015   6.921   4.018 -0.3526  0.6462 -1.1007
   10SAPS  H19R 1276   0.939   6.959   4.090  1.7262  1.4478  0.8021
   10SAPS  H19S 1277   0.986   6.819   3.987  0.9486 -0.2156  0.4058
   10SAPS  C220 1278   1.028   7.022   3.909  0.0054 -0.2385 -0.2806
   10SAPS  H20R 1279   0.931   7.061   3.872 -0.3217 -0.1045  0.6759
   10SAPS  H20S 1280   1.083   6.976   3.824  0.1531 -1.2787  0.3509
   10SAPS  H20T 1281   1.084   7.110   3.949 -0.8493  0.1656  0.0438
   10SAPS   C33 1282   0.890   6.732   5.266  0.1330  0.4210  0.3151
   10SAPS   H3X 1283   0.951   6.825   5.264 -0.1217  0.6022  0.8864
   10SAPS   H3Y 1284   0.784   6.766   5.267 -0.4503 -1.1179 -1.6108
   10SAPS   C34 1285   0.916   6.651   5.136  0.1692  0.0989 -0.3236
   10SAPS   H4X 1286   0.871   6.550   5.143 -0.2633 -0.0026 -3.1385
   10SAPS   H4Y 1287   1.024   6.641   5.112  0.2290  2.8048 -1.6198
   10SAPS   C35 1288   0.846   6.720   5.012  0.4524  0.2444 -0.4923
   10SAPS   H5X 1289   0.903   6.808   4.975 -1.8626  1.4246 -1.4715
   10SAPS   H5Y 1290   0.747   6.755   5.049  0.0792  0.4786 -1.6578
   10SAPS   C36 1291   0.844   6.631   4.892  0.3879 -0.0086 -0.6971
   10SAPS   H6X 1292   0.769   6.553   4.917 -0.3760  0.1798 -2.2584
   10SAPS   H6Y 1293   0.942   6.583   4.874  0.2105 -0.8683  0.4994
   10SAPS   C37 1294   0.785   6.708   4.776  0.3631  0.1957  0.1814
   10SAPS   H7X 1295   0.721   6.795   4.802  1.2195  1.0243 -0.4080
   10SAPS   H7Y 1296   0.713   6.647   4.719  1.4937 -0.0509 -1.0318
   10SAPS   C38 1297   0.887   6.728   4.658 -0.2030 -0.1886 -0.3239
   10SAPS   H8X 1298   0.932   6.627   4.643  1.1639  0.5003 -1.0049
   10SAPS   H8Y 1299   0.969   6.795   4.691 -0.6939  1.0465 -1.5326
   10SAPS   C39 1300   0.812   6.775   4.535  0.2320  0.1069 -0.0950
   10SAPS   H9X 1301   0.729   6.704   4.517  0.5281  0.3741 -3.2110
   10SAPS   H9Y 1302   0.874   6.775   4.443  0.7277  1.2500  0.2117
   10SAPS  C310 1303   0.738   6.915   4.538  0.0218 -0.1519  0.1200
   10SAPS  H10X 1304   0.674   6.917   4.629 -0.0061  1.6647  0.0959
   10SAPS  H10Y 1305   0.666   6.921   4.454 -0.2500  2.6063  0.4726
   10SAPS  C311 1306   0.835   7.033   4.552 -0.0953 -0.0939 -0.4514
   10SAPS  H11X 1307   0.910   7.018   4.471 -0.8936  0.0707 -1.2355
   10SAPS  H11Y 1308   0.890   7.025   4.648  0.4071  1.8883 -0.5331
   10SAPS  C312 1309   0.765   7.164   4.536  0.6755  0.0767  0.5954
   10SAPS  H12X 1310   0.835   7.246   4.565 -1.2110  1.7949  0.5153
   10SAPS  H12Y 1311   0.675   7.164   4.601 -1.6866 -2.1661 -2.3612
   10SAPS  C313 1312   0.720   7.184   4.386  0.3927 -0.2607  0.3158
   10SAPS  H13X 1313   0.642   7.105   4.373  0.8010 -0.7637  0.9212
   10SAPS  H13Y 1314   0.812   7.169   4.327  0.8339 -2.0014  1.3938
   10SAPS  C314 1315   0.661   7.320   4.348 -0.5900  0.0318  0.2079
   10SAPS  H14X 1316   0.748   7.389   4.358 -2.7907  2.7016  2.9946
   10SAPS  H14Y 1317   0.580   7.347   4.420 -2.7028 -1.4647 -1.4724
   10SAPS  C315 1318   0.601   7.328   4.204 -0.4555  0.2161  0.4158
   10SAPS  H15X 1319   0.550   7.425   4.186 -0.3761  0.2120  0.1669
   10SAPS  H15Y 1320   0.525   7.250   4.185 -1.0546  0.8776  0.0439
   10SAPS  C316 1321   0.709   7.299   4.096  0.1191 -0.3944  0.3410
   10SAPS  H16X 1322   0.775   7.212   4.116 -0.9101 -0.8831  1.7327
   10SAPS  H16Y 1323   0.774   7.388   4.084  1.4294 -1.3058  0.4183
   10SAPS  C317 1324   0.647   7.264   3.961 -0.3337 -0.0314 -0.6208
   10SAPS  H17X 1325   0.571   7.345   3.962  1.0783  1.3522  0.2008
   10SAPS  H17Y 1326   0.590   7.169   3.966 -1.5974  0.7262 -0.0628
   10SAPS  C318 1327   0.734   7.285   3.841 -0.2423 -0.6876  0.3579
   10SAPS  H18X 1328   0.670   7.281   3.751  3.1188 -2.4249 -2.2077
   10SAPS  H18Y 1329   0.829   7.228   3.841  0.8876  1.0459  2.5536
   10SAPS  H18Z 1330   0.769   7.390   3.850  2.0613 -1.4158  0.4844
   11SAPS     N 1331   3.395   2.917   1.817  0.3418  0.4609 -0.4120
   11SAPS   HN1 1332   3.363   2.832   1.766 -0.9937 -0.7859  2.3224
   11SAPS   HN2 1333   3.497   2.902   1.822  0.4167  0.9254 -0.5735
   11SAPS   HN3 1334   3.355   2.923   1.913 -0.4097 -0.5387 -0.6350
   11SAPS   C12 1335   3.374   3.036   1.734 -0.3480 -0.5566 -0.9175
   11SAPS  H12A 1336   3.452   3.055   1.662 -0.6344 -1.9430 -1.6242
   11SAPS   C13 1337   3.256   3.024   1.636  0.7537 -0.1911 -0.6381
   11SAPS  O13A 1338   3.190   2.914   1.632  0.2238 -0.0146 -0.1485
   11SAPS  O13B 1339   3.243   3.116   1.552 -0.1840  0.2242  0.1922
   11SAPS   C11 1340   3.367   3.168   1.831 -0.0898  0.4272 -0.2166
   11SAPS  H11A 1341   3.275   3.163   1.893  1.1370  1.1475  1.7736
   11SAPS  H11B 1342   3.357   3.261   1.770 -1.0216  2.4548  2.7799
   11SAPS     P 1343   3.615   3.248   1.858  0.1967 -0.5412 -0.6228
   11SAPS   O13 1344   3.661   3.159   1.750 -0.0062 -0.1959  0.0990
   11SAPS   O14 1345   3.600   3.393   1.822 -0.0058  0.6426  0.2301
   11SAPS   O12 1346   3.480   3.176   1.912 -0.3238 -0.3527  0.2776
   11SAPS   O11 1347   3.718   3.239   1.979 -0.7646  0.2468 -0.0800
   11SAPS    C1 1348   3.688   3.130   2.075  0.0949 -0.6583 -0.3108
   11SAPS    HA 1349   3.642   3.040   2.029 -0.1271 -0.3371 -0.7233
   11SAPS    HB 1350   3.787   3.100   2.117  0.4930  0.6711 -0.2314
   11SAPS    C2 1351   3.609   3.188   2.194  0.1061 -1.0965  0.2850
   11SAPS    HS 1352   3.523   3.239   2.146  0.3108  0.7981  1.7970
   11SAPS   O21 1353   3.694   3.288   2.248  0.2474  0.2397 -0.3025
   11SAPS   C21 1354   3.642   3.399   2.298  0.2752  0.0591 -0.2398
   11SAPS   O22 1355   3.527   3.437   2.286 -0.0702  0.4939  0.1389
   11SAPS   C22 1356   3.745   3.495   2.359  0.0726  0.2720  0.5211
   11SAPS   H2R 1357   3.852   3.465   2.349  0.8917  3.1670 -0.4887
   11SAPS   H2S 1358   3.741   3.580   2.287 -2.7768 -1.4993 -1.5984
   11SAPS    C3 1359   3.557   3.081   2.297  0.2736 -0.4624  0.1200
   11SAPS    HX 1360   3.647   3.024   2.329 -2.2180 -2.9159  3.5095
   11SAPS    HY 1361   3.480   3.023   2.243  0.7723 -0.4707 -0.5846
   11SAPS   O31 1362   3.507   3.135   2.421  0.1074  0.2632  0.1328
   11SAPS   C31 1363   3.427   3.059   2.489 -0.3035 -0.0612  0.4860
   11SAPS   O32 1364   3.389   2.949   2.460  0.3175  0.3692  0.8310
   11SAPS   C32 1365   3.365   3.142   2.606 -0.0520 -0.6686  0.4211
   11SAPS   H2X 1366   3.392   3.098   2.705 -2.6682 -1.2029  0.9679
   11SAPS   H2Y 1367   3.256   3.132   2.591  0.0530  1.1559 -2.2625
   11SAPS   C23 1368   3.712   3.526   2.511 -0.2451 -0.0340  0.4303
   11SAPS   H3R 1369   3.731   3.435   2.572 -1.3603 -1.7777 -1.6743
   11SAPS   H3S 1370   3.605   3.556   2.518 -0.8166 -1.9455  0.6042
   11SAPS   C24 1371   3.791   3.641   2.564 -0.4300  0.1879  0.6664
   11SAPS   H4R 1372   3.779   3.687   2.664 -0.1628  2.6085 -0.3422
   11SAPS   H4S 1373   3.774   3.735   2.508  2.4959  1.1910  1.2959
   11SAPS   C25 1374   3.943   3.609   2.557 -0.8408 -0.3720  0.1064
   11SAPS   H5R 1375   3.996   3.661   2.477  0.1039 -1.5062 -0.0280
   11SAPS   C26 1376   4.020   3.533   2.641  0.0790  0.0704  0.1996
   11SAPS   H6R 1377   4.127   3.520   2.620  0.3377 -1.3727  2.1548
   11SAPS   C27 1378   3.963   3.459   2.762 -0.5577 -0.1521  0.3089
   11SAPS   H7R 1379   3.981   3.349   2.768 -0.2550 -0.0473  1.5210
   11SAPS   H7S 1380   3.853   3.474   2.761 -0.0820  5.0377 -0.4094
   11SAPS   C28 1381   4.011   3.524   2.886  0.7396 -0.5435 -0.5750
   11SAPS   H8R 1382   4.072   3.615   2.879 -1.6429  1.0341 -2.4056
   11SAPS   C29 1383   3.961   3.502   3.008 -0.0761  0.2913 -0.4326
   11SAPS   H9R 1384   4.013   3.562   3.084 -0.5744 -0.3119  0.4015
   11SAPS  C210 1385   3.857   3.402   3.054  0.3408  0.2508 -0.6481
   11SAPS  H10R 1386   3.910   3.313   3.094 -2.2790 -1.6175 -1.0370
   11SAPS  H10S 1387   3.799   3.364   2.968 -0.0145  2.1980 -1.3271
   11SAPS  C211 1388   3.744   3.461   3.136 -0.3111  0.0212  0.2165
   11SAPS  H11R 1389   3.706   3.562   3.114 -0.7880  0.0885  1.2517
   11SAPS  C212 1390   3.686   3.394   3.239  0.6009 -0.1361 -0.4465
   11SAPS  H12R 1391   3.596   3.440   3.284  0.4940 -0.8167  0.0472
   11SAPS  C213 1392   3.724   3.259   3.294 -0.0296 -0.6366  0.7959
   11SAPS  H13R 1393   3.785   3.202   3.221 -1.5949 -1.0775 -0.2122
   11SAPS  H13S 1394   3.622   3.215   3.306 -1.1320  1.7445  0.7572
   11SAPS  C214 1395   3.788   3.262   3.424  0.3382 -0.2878  0.0818
   11SAPS  H14R 1396   3.888   3.217   3.412 -0.1370 -0.6480 -3.3148
   11SAPS  C215 1397   3.731   3.294   3.544 -0.6913 -0.4043  0.3124
   11SAPS  H15R 1398   3.802   3.304   3.628  1.6639  0.7290 -1.6771
   11SAPS  C216 1399   3.593   3.347   3.563 -0.4486 -0.6897 -0.1130
   11SAPS  H16R 1400   3.538   3.276   3.629 -0.7774  0.3470  0.7474
   11SAPS  H16S 1401   3.532   3.360   3.471  1.2840 -1.5220 -1.4586
   11SAPS  C217 1402   3.586   3.490   3.632 -0.3164 -0.5374  0.0309
   11SAPS  H17R 1403   3.606   3.558   3.547 -0.0154 -2.2152 -1.2807
   11SAPS  H17S 1404   3.655   3.491   3.720 -0.0210 -0.8127 -0.1976
   11SAPS  C218 1405   3.449   3.541   3.689 -0.2277  0.5349  0.0270
   11SAPS  H18R 1406   3.420   3.468   3.767 -0.2317  0.6928  0.1732
   11SAPS  H18S 1407   3.365   3.534   3.617 -1.9697 -1.2632  2.1127
   11SAPS  C219 1408   3.462   3.684   3.741 -0.0800 -0.3541  0.4310
   11SAPS  H19R 1409   3.485   3.743   3.649  2.0761 -2.2652 -0.3480
   11SAPS  H19S 1410   3.552   3.697   3.804 -0.5911 -0.3959  1.1823
   11SAPS  C220 1411   3.331   3.721   3.805 -0.6365 -0.3109  0.5321
   11SAPS  H20R 1412   3.298   3.652   3.885  4.4585  0.7197  3.9847
   11SAPS  H20S 1413   3.260   3.742   3.722  1.3493 -0.5055 -1.2997
   11SAPS  H20T 1414   3.344   3.816   3.862 -1.7109  0.1923 -0.0285
   11SAPS   C33 1415   3.388   3.294   2.596  0.0159  0.7356  0.5181
   11SAPS   H3X 1416   3.326   3.323   2.509 -1.0491 -0.6874  0.7599
   11SAPS   H3Y 1417   3.494   3.320   2.574 -0.9229  2.1335 -3.0513
   11SAPS   C34 1418   3.329   3.375   2.718  0.0401 -0.4467  0.2673
   11SAPS   H4X 1419   3.231   3.331   2.746 -0.0450  0.6913  1.9141
   11SAPS   H4Y 1420   3.318   3.482   2.691 -0.3057 -0.7231 -0.7229
   11SAPS   C35 1421   3.426   3.358   2.838  0.3342  0.3906  0.9542
   11SAPS   H5X 1422   3.523   3.398   2.802  0.1235  1.0190  1.0781
   11SAPS   H5Y 1423   3.428   3.249   2.859 -0.7125 -0.1511 -1.3868
   11SAPS   C36 1424   3.376   3.447   2.949  0.3707  0.2704  0.1480
   11SAPS   H6X 1425   3.321   3.541   2.925  1.0565  0.3100 -1.3717
   11SAPS   H6Y 1426   3.465   3.477   3.008  0.5333 -0.7639  0.4453
   11SAPS   C37 1427   3.295   3.372   3.057  0.3224 -0.1524  1.1221
   11SAPS   H7X 1428   3.352   3.280   3.084  2.3896  0.4610 -0.8276
   11SAPS   H7Y 1429   3.202   3.333   3.012  1.7960 -3.2361  0.4519
   11SAPS   C38 1430   3.266   3.458   3.181 -0.0717  0.4115  0.4458
   11SAPS   H8X 1431   3.204   3.542   3.145 -0.9987 -0.1714  0.6453
   11SAPS   H8Y 1432   3.364   3.491   3.219 -0.5135  3.8787 -1.0975
   11SAPS   C39 1433   3.193   3.377   3.290 -0.3602 -0.1052  0.2119
   11SAPS   H9X 1434   3.256   3.290   3.318  1.6625  0.9102 -0.9042
   11SAPS   H9Y 1435   3.103   3.324   3.255  0.5492 -1.8063  0.3365
   11SAPS  C310 1436   3.153   3.463   3.407 -0.4677 -0.0833  0.4691
   11SAPS  H10X 1437   3.072   3.537   3.393  0.5802  1.6784  3.1407
   11SAPS  H10Y 1438   3.240   3.527   3.432 -0.6051  0.7776 -1.1249
   11SAPS  C311 1439   3.124   3.377   3.528 -0.0238  0.0996  0.2204
   11SAPS  H11X 1440   3.224   3.336   3.555  0.3345  0.8649  0.1011
   11SAPS  H11Y 1441   3.043   3.307   3.500 -0.0125 -0.3068  1.1512
   11SAPS  C312 1442   3.074   3.448   3.646  0.4033 -1.1735  0.3659
   11SAPS  H12X 1443   2.970   3.485   3.635  0.2149 -2.1934 -1.7825
   11SAPS  H12Y 1444   3.144   3.534   3.655 -0.9257 -0.1905  1.7670
   11SAPS  C313 1445   3.096   3.361   3.771 -0.4623 -0.0512 -0.4219
   11SAPS  H13X 1446   3.203   3.343   3.797 -0.3904 -2.1809 -1.8511
   11SAPS  H13Y 1447   3.057   3.257   3.770 -1.1169  0.0735  2.6059
   11SAPS  C314 1448   3.035   3.417   3.904 -0.1644  0.1612  0.0398
   11SAPS  H14X 1449   2.932   3.448   3.874  0.7525 -0.0917 -3.7584
   11SAPS  H14Y 1450   3.094   3.502   3.945  1.5026 -0.2816 -1.3694
   11SAPS  C315 1451   3.041   3.317   4.020 -0.3039  0.1259  0.1125
   11SAPS  H15X 1452   2.986   3.368   4.101 -2.2152 -1.2248 -0.2550
   11SAPS  H15Y 1453   3.148   3.292   4.036 -0.2526  0.2099 -0.0892
   11SAPS  C316 1454   2.943   3.199   3.989  0.0913 -0.1029 -0.1615
   11SAPS  H16X 1455   2.981   3.134   3.907  2.5912  1.0547 -0.0275
   11SAPS  H16Y 1456   2.845   3.237   3.953 -0.7524 -0.4803  1.6290
   11SAPS  C317 1457   2.923   3.102   4.106 -0.3526 -0.2428 -0.0513
   11SAPS  H17X 1458   2.876   3.004   4.082  0.8527 -0.9978  0.5861
   11SAPS  H17Y 1459   2.855   3.167   4.165  1.5866 -0.0021  2.0321
   11SAPS  C318 1460   3.049   3.066   4.195  1.0687 -0.3641  0.4448
   11SAPS  H18X 1461   3.119   3.003   4.137  0.8437 -0.3189  0.1181
   11SAPS  H18Y 1462   3.012   3.000   4.276 -1.2438  0.4974  0.1616
   11SAPS  H18Z 1463   3.100   3.151   4.245  1.3914  0.4601 -1.2140
   12SAPS     N 1464   2.983   3.038   1.464 -0.1852  0.1209 -0.0219
   12SAPS   HN1 1465   3.086   3.053   1.465 -0.2381  0.4878  0.3683
   12SAPS   HN2 1466   2.952   2.962   1.528 -0.0510  0.6503  0.6818
   12SAPS   HN3 1467   2.940   3.014   1.373 -1.0572  0.3615  0.3226
   12SAPS   C12 1468   2.930   3.171   1.516  0.3622  0.5829 -0.2799
   12SAPS  H12A 1469   2.977   3.197   1.610  1.0174  1.5572 -0.8599
   12SAPS   C13 1470   2.970   3.283   1.414 -0.4001 -1.1476  0.1150
   12SAPS  O13A 1471   3.028   3.251   1.303  0.4451 -0.0394 -0.2434
   12SAPS  O13B 1472   2.947   3.405   1.440  0.3198  0.0115 -0.2364
   12SAPS   C11 1473   2.783   3.167   1.543  0.5995  0.3768  0.1135
   12SAPS  H11A 1474   2.732   3.129   1.453 -1.1000  2.3610  0.1643
   12SAPS  H11B 1475   2.734   3.266   1.557 -0.2623 -0.2989  2.2539
   12SAPS     P 1476   2.603   3.083   1.716 -0.0820 -0.3832 -0.1193
   12SAPS   O13 1477   2.511   3.157   1.622 -0.9921  0.0650  0.1004
   12SAPS   O14 1478   2.562   2.948   1.751 -0.7729 -0.2952  0.5970
   12SAPS   O12 1479   2.751   3.088   1.658 -0.2688  0.0142 -0.0628
   12SAPS   O11 1480   2.616   3.144   1.855  0.1577  0.4404 -0.7465
   12SAPS    C1 1481   2.725   3.221   1.905  0.5097  0.1823  1.0450
   12SAPS    HA 1482   2.778   3.280   1.827  1.1143 -1.8083 -0.1199
   12SAPS    HB 1483   2.689   3.298   1.976  0.8853  1.6381 -0.2966
   12SAPS    C2 1484   2.827   3.138   1.982 -1.3371  0.3829 -0.1221
   12SAPS    HS 1485   2.850   3.049   1.919  0.6979  0.3189  0.6533
   12SAPS   O21 1486   2.776   3.093   2.114  0.2292 -0.5897  0.4198
   12SAPS   C21 1487   2.856   3.006   2.177  0.0267  0.6776 -0.1840
   12SAPS   O22 1488   2.945   2.940   2.118  0.3430  0.3626  0.3207
   12SAPS   C22 1489   2.820   2.994   2.322  0.0717  0.4436  1.1710
   12SAPS   H2R 1490   2.818   3.098   2.362  0.3603  1.1213 -0.4567
   12SAPS   H2S 1491   2.726   2.936   2.334 -0.1786  0.4447 -0.5710
   12SAPS    C3 1492   2.971   3.213   1.991  0.3839 -0.1640  0.3052
   12SAPS    HX 1493   2.986   3.233   1.882 -0.9332  1.5235  0.3850
   12SAPS    HY 1494   3.056   3.154   2.031  0.5274  1.1197  2.0147
   12SAPS   O31 1495   2.962   3.340   2.049  0.0657 -0.1010  0.7643
   12SAPS   C31 1496   2.990   3.347   2.180 -0.4924  0.2068 -0.3942
   12SAPS   O32 1497   3.018   3.256   2.252  0.0852 -0.0358  0.7314
   12SAPS   C32 1498   2.975   3.494   2.230 -0.3090  0.1060 -0.1641
   12SAPS   H2X 1499   3.050   3.557   2.178 -1.7066  1.7065 -0.3390
   12SAPS   H2Y 1500   3.001   3.495   2.338  0.4074 -2.6473 -0.2366
   12SAPS   C23 1501   2.929   2.913   2.396 -0.1207 -0.2513 -0.1648
   12SAPS   H3R 1502   3.030   2.956   2.374  0.6878 -0.4669  2.7831
   12SAPS   H3S 1503   2.937   2.808   2.361  0.5522 -0.0655 -0.6055
   12SAPS   C24 1504   2.909   2.915   2.549  0.8195  0.0964 -0.1002
   12SAPS   H4R 1505   2.938   2.813   2.581 -0.8699 -0.0387  1.1442
   12SAPS   H4S 1506   2.800   2.921   2.570  1.1017  2.5820  0.9264
   12SAPS   C25 1507   2.974   3.039   2.617  0.2458  1.0989  0.2540
   12SAPS   H5R 1508   2.962   3.136   2.566 -0.9527  0.9160  0.1768
   12SAPS   C26 1509   3.041   3.045   2.733  0.7683 -0.1036 -0.8936
   12SAPS   H6R 1510   3.084   3.136   2.777 -1.6753  0.6694  0.0437
   12SAPS   C27 1511   3.064   2.931   2.829 -0.1530 -0.3399  0.4996
   12SAPS   H7R 1512   3.169   2.898   2.810 -0.1501 -0.0959  0.0948
   12SAPS   H7S 1513   3.005   2.842   2.796  0.6453 -0.5152 -0.5150
   12SAPS   C28 1514   3.036   2.972   2.969 -0.3062  0.0917 -0.0998
   12SAPS   H8R 1515   2.997   3.072   2.992 -0.2549  0.2204 -0.5806
   12SAPS   C29 1516   3.044   2.888   3.076  0.2417  0.1702 -0.3532
   12SAPS   H9R 1517   3.011   2.927   3.173  0.9435  1.5487 -0.6465
   12SAPS  C210 1518   3.080   2.744   3.086 -0.0715 -0.1568  0.0385
   12SAPS  H10R 1519   3.187   2.755   3.113 -0.6441  3.4266  1.4199
   12SAPS  H10S 1520   3.071   2.689   2.990 -2.7142 -0.7679  0.5610
   12SAPS  C211 1521   3.023   2.662   3.200  0.0431 -0.4281  0.1189
   12SAPS  H11R 1522   2.915   2.676   3.215  0.2385  0.9305  0.4481
   12SAPS  C212 1523   3.099   2.603   3.295  0.8513  0.4354  0.0829
   12SAPS  H12R 1524   3.033   2.561   3.372  1.4926 -2.7376 -0.9497
   12SAPS  C213 1525   3.252   2.590   3.314  0.9281 -0.0198 -0.4073
   12SAPS  H13R 1526   3.283   2.572   3.420 -0.6433  1.3136  0.3169
   12SAPS  H13S 1527   3.299   2.684   3.280  1.2750  0.5318  1.5051
   12SAPS  C214 1528   3.292   2.477   3.224 -0.7653  0.1636  0.5886
   12SAPS  H14R 1529   3.225   2.447   3.142  1.7680 -0.2919 -1.4454
   12SAPS  C215 1530   3.417   2.418   3.223  0.3166 -0.2669 -0.3748
   12SAPS  H15R 1531   3.438   2.334   3.154 -0.2078 -1.4007  0.7953
   12SAPS  C216 1532   3.534   2.463   3.307  0.3389 -0.0090 -0.6816
   12SAPS  H16R 1533   3.515   2.548   3.375 -0.0531 -1.5847  1.2658
   12SAPS  H16S 1534   3.609   2.492   3.230 -2.0450  1.0868 -2.7445
   12SAPS  C217 1535   3.593   2.349   3.395  0.4201 -0.1614 -0.1464
   12SAPS  H17R 1536   3.696   2.379   3.424  0.0786  0.7057  0.2328
   12SAPS  H17S 1537   3.596   2.251   3.343 -1.0557 -0.7869  0.8504
   12SAPS  C218 1538   3.524   2.319   3.526 -0.1496 -0.2246 -0.9274
   12SAPS  H18R 1539   3.414   2.312   3.508 -0.5321  1.7818  0.3078
   12SAPS  H18S 1540   3.536   2.402   3.599 -0.2400 -0.1501 -0.9964
   12SAPS  C219 1541   3.575   2.188   3.598 -0.2010 -0.1435  0.3928
   12SAPS  H19R 1542   3.686   2.197   3.603 -0.0186 -1.4912 -0.5268
   12SAPS  H19S 1543   3.549   2.106   3.528 -0.2782  0.2941 -0.0979
   12SAPS  C220 1544   3.518   2.170   3.740 -0.0176  0.5310  0.3520
   12SAPS  H20R 1545   3.580   2.097   3.797  2.3894 -0.4626 -3.2420
   12SAPS  H20S 1546   3.411   2.138   3.741 -0.3804  1.5830  2.3980
   12SAPS  H20T 1547   3.535   2.269   3.787  3.4042  0.6679 -0.9020
   12SAPS   C33 1548   2.834   3.549   2.204  0.3794 -0.0058 -0.0138
   12SAPS   H3X 1549   2.758   3.477   2.240  1.9690 -0.7587  2.0625
   12SAPS   H3Y 1550   2.817   3.554   2.094  2.2244 -2.6497 -0.5292
   12SAPS   C34 1551   2.798   3.673   2.291  0.5758  0.1737 -0.2964
   12SAPS   H4X 1552   2.689   3.677   2.272  0.1672 -0.6490  1.6109
   12SAPS   H4Y 1553   2.848   3.768   2.263 -0.5745  0.6151 -0.9121
   12SAPS   C35 1554   2.823   3.653   2.440  0.6219  0.5530  0.8637
   12SAPS   H5X 1555   2.933   3.651   2.452  1.0414  2.1235 -1.9946
   12SAPS   H5Y 1556   2.781   3.551   2.451  2.7569 -0.8201 -2.4371
   12SAPS   C36 1557   2.772   3.756   2.530 -0.4971 -0.8993 -0.6961
   12SAPS   H6X 1558   2.693   3.821   2.486  0.6196  1.2142  0.2625
   12SAPS   H6Y 1559   2.852   3.833   2.529 -1.2196 -0.1383 -1.3968
   12SAPS   C37 1560   2.715   3.712   2.659  0.2305  0.1337 -1.0299
   12SAPS   H7X 1561   2.774   3.625   2.695  1.0180  0.8322 -0.5911
   12SAPS   H7Y 1562   2.611   3.675   2.645 -0.3392 -0.2358  3.0626
   12SAPS   C38 1563   2.730   3.818   2.774  0.5309 -0.4133 -0.7827
   12SAPS   H8X 1564   2.672   3.777   2.859 -0.3426 -1.0209 -1.6530
   12SAPS   H8Y 1565   2.694   3.915   2.735 -1.3112  0.5080  2.8131
   12SAPS   C39 1566   2.880   3.833   2.821  0.3590 -0.4278 -0.2122
   12SAPS   H9X 1567   2.933   3.883   2.737 -1.9576  1.2816 -0.7381
   12SAPS   H9Y 1568   2.912   3.728   2.839 -0.4695 -0.5011  0.9447
   12SAPS  C310 1569   2.877   3.927   2.948  0.1949 -0.9329  0.0001
   12SAPS  H10X 1570   2.831   3.883   3.039  1.6432 -0.0911  1.1783
   12SAPS  H10Y 1571   2.820   4.020   2.926 -0.7928 -1.6432 -0.4909
   12SAPS  C311 1572   3.017   3.957   2.993 -1.1069 -0.1002  0.4040
   12SAPS  H11X 1573   3.074   4.015   2.918 -0.7632 -0.3045  0.5064
   12SAPS  H11Y 1574   3.067   3.860   3.015 -2.1805 -0.5229  1.0738
   12SAPS  C312 1575   3.016   4.039   3.126  0.1243  0.4342  0.7845
   12SAPS  H12X 1576   3.115   4.033   3.175  1.0689 -0.7810 -1.1552
   12SAPS  H12Y 1577   2.942   3.989   3.192 -2.2625  1.1506 -1.1711
   12SAPS  C313 1578   2.984   4.188   3.099  0.1066  1.0250 -0.2887
   12SAPS  H13X 1579   2.879   4.188   3.062  0.3216  0.7621 -0.9018
   12SAPS  H13Y 1580   3.056   4.221   3.022 -0.0565 -0.0767 -0.9218
   12SAPS  C314 1581   3.004   4.270   3.218  0.8147 -0.3465 -0.7081
   12SAPS  H14X 1582   2.960   4.207   3.299  1.4318 -0.2449 -0.2812
   12SAPS  H14Y 1583   2.941   4.360   3.226 -0.2824 -0.9972 -1.7820
   12SAPS  C315 1584   3.143   4.314   3.248  0.4932  0.1909  0.2141
   12SAPS  H15X 1585   3.185   4.371   3.162  2.0380 -0.9099  0.1971
   12SAPS  H15Y 1586   3.223   4.237   3.254  1.6551  1.3969  0.7849
   12SAPS  C316 1587   3.145   4.399   3.375  0.6703 -0.0553 -0.2455
   12SAPS  H16X 1588   3.103   4.345   3.463 -0.7199 -0.1181 -0.9143
   12SAPS  H16Y 1589   3.088   4.492   3.359  0.8819  0.2234  0.5992
   12SAPS  C317 1590   3.291   4.444   3.408 -0.6600  0.5302  0.4246
   12SAPS  H17X 1591   3.342   4.494   3.322  2.3451 -1.0142  1.1935
   12SAPS  H17Y 1592   3.353   4.359   3.442 -1.3809 -0.8348 -1.4946
   12SAPS  C318 1593   3.292   4.564   3.500 -0.1569  0.2034 -0.8694
   12SAPS  H18X 1594   3.267   4.652   3.438 -0.8595  0.7234  0.1186
   12SAPS  H18Y 1595   3.390   4.565   3.553 -0.4564 -0.6207 -0.2749
   12SAPS  H18Z 1596   3.215   4.567   3.580  1.7143  0.4296  1.0066
   13SAPS     N 1597   5.295   3.398   2.128 -0.1662 -0.1383 -0.2979
   13SAPS   HN1 1598   5.226   3.321   2.111  0.8816 -1.4918  1.2591
   13SAPS   HN2 1599   5.328   3.411   2.226 -0.4751  0.0794 -0.2202
   13SAPS   HN3 1600   5.248   3.489   2.110 -0.5663 -0.3659 -0.4378
   13SAPS   C12 1601   5.408   3.369   2.030 -0.1082  0.1946  0.2522
   13SAPS  H12A 1602   5.503   3.381   2.079 -0.3535  1.0061  0.5459
   13SAPS   C13 1603   5.409   3.233   1.960  0.1530  0.2979 -0.5028
   13SAPS  O13A 1604   5.321   3.144   1.975  0.3444 -0.1495  0.9845
   13SAPS  O13B 1605   5.507   3.215   1.886  0.0731  0.3518  0.1656
   13SAPS   C11 1606   5.397   3.472   1.919 -0.5719  0.0636  0.8465
   13SAPS  H11A 1607   5.295   3.475   1.874  0.0669  1.1077 -0.6001
   13SAPS  H11B 1608   5.467   3.447   1.837 -0.7630  0.5436  0.5347
   13SAPS     P 1609   5.565   3.664   1.951 -0.2022 -0.6034 -0.0648
   13SAPS   O13 1610   5.572   3.682   1.806  0.7029 -0.5426  0.1842
   13SAPS   O14 1611   5.581   3.785   2.031 -0.1542  0.5319 -0.0111
   13SAPS   O12 1612   5.430   3.596   1.983 -0.1830  0.2659 -0.2403
   13SAPS   O11 1613   5.667   3.552   1.995  0.2327  0.2371 -0.0177
   13SAPS    C1 1614   5.744   3.579   2.118 -0.0532 -0.1907 -0.0603
   13SAPS    HA 1615   5.845   3.534   2.108 -0.1353 -0.6407  1.0311
   13SAPS    HB 1616   5.776   3.686   2.123 -0.4609 -0.0964  0.6652
   13SAPS    C2 1617   5.691   3.534   2.254 -0.0856  0.2649  1.0032
   13SAPS    HS 1618   5.777   3.540   2.324  2.7848  0.8195 -2.3196
   13SAPS   O21 1619   5.645   3.397   2.234 -0.7284  0.0807 -0.5923
   13SAPS   C21 1620   5.675   3.319   2.336  0.2967 -0.5611 -0.0456
   13SAPS   O22 1621   5.728   3.352   2.440 -0.6128  0.2928  0.5387
   13SAPS   C22 1622   5.623   3.175   2.304 -0.6686 -0.3406  0.5351
   13SAPS   H2R 1623   5.534   3.191   2.240  1.2410 -0.9982 -2.4574
   13SAPS   H2S 1624   5.703   3.120   2.250  0.2579 -0.2554  1.7705
   13SAPS    C3 1625   5.573   3.628   2.300 -0.1262 -0.2962  0.5316
   13SAPS    HX 1626   5.485   3.612   2.234 -0.0164 -0.1095  0.3421
   13SAPS    HY 1627   5.606   3.734   2.292  1.7304 -0.9813 -1.8304
   13SAPS   O31 1628   5.532   3.608   2.439 -0.3228  0.8869  0.0110
   13SAPS   C31 1629   5.437   3.520   2.464 -0.1965 -1.5030 -0.4026
   13SAPS   O32 1630   5.384   3.452   2.377 -0.4696 -0.3651 -0.4051
   13SAPS   C32 1631   5.416   3.517   2.612  0.0647 -0.2637 -1.0357
   13SAPS   H2X 1632   5.334   3.447   2.640 -1.5243  1.6437 -0.7257
   13SAPS   H2Y 1633   5.390   3.619   2.648 -0.4908 -0.0708 -1.9593
   13SAPS   C23 1634   5.586   3.100   2.430 -0.0202 -0.6621 -0.3284
   13SAPS   H3R 1635   5.500   3.150   2.480  0.3147 -0.2026 -0.2035
   13SAPS   H3S 1636   5.669   3.097   2.503 -1.6464  0.5378  1.6883
   13SAPS   C24 1637   5.557   2.950   2.402 -0.4288  0.2519  0.5019
   13SAPS   H4R 1638   5.486   2.933   2.318 -0.7318  0.0810  0.7901
   13SAPS   H4S 1639   5.512   2.897   2.489  0.3416 -2.4589 -0.6277
   13SAPS   C25 1640   5.686   2.869   2.369  0.0120 -0.5692 -0.0355
   13SAPS   H5R 1641   5.696   2.823   2.270 -1.1691 -0.4019 -0.2410
   13SAPS   C26 1642   5.773   2.836   2.463  0.0702  0.1915 -0.3492
   13SAPS   H6R 1643   5.865   2.780   2.438  1.9786  0.8565  4.2071
   13SAPS   C27 1644   5.770   2.859   2.614  0.0903  0.3779 -0.4415
   13SAPS   H7R 1645   5.668   2.885   2.648  0.3666 -0.0967  0.7958
   13SAPS   H7S 1646   5.835   2.945   2.640  2.2575 -0.6136 -2.1903
   13SAPS   C28 1647   5.817   2.752   2.712 -0.7905  0.0276  0.0235
   13SAPS   H8R 1648   5.836   2.652   2.671 -0.5085 -0.5206  1.4191
   13SAPS   C29 1649   5.825   2.757   2.843 -0.9576  0.0992 -0.4719
   13SAPS   H9R 1650   5.867   2.673   2.901 -3.0662 -1.0845 -0.5832
   13SAPS  C210 1651   5.804   2.885   2.917  0.2488 -0.1391 -0.2403
   13SAPS  H10R 1652   5.742   2.956   2.859 -0.1512  1.1544  1.6911
   13SAPS  H10S 1653   5.902   2.936   2.927 -0.4689  1.1316  0.4608
   13SAPS  C211 1654   5.728   2.871   3.048  0.7265  0.3149  0.4558
   13SAPS  H11R 1655   5.620   2.849   3.037  0.5005  1.3535  0.5102
   13SAPS  C212 1656   5.774   2.878   3.174 -0.8926  0.5154 -0.2562
   13SAPS  H12R 1657   5.702   2.889   3.256 -1.0824 -1.3685 -0.1114
   13SAPS  C213 1658   5.920   2.910   3.225 -0.2630  0.3255  0.7380
   13SAPS  H13R 1659   5.912   3.013   3.266 -1.7113  1.0075 -1.1240
   13SAPS  H13S 1660   5.986   2.914   3.136 -0.2045  0.2317  0.7767
   13SAPS  C214 1661   5.964   2.812   3.332  0.0823 -0.3375  0.8979
   13SAPS  H14R 1662   5.974   2.705   3.308 -0.6724 -0.8387  2.6400
   13SAPS  C215 1663   5.998   2.838   3.456  0.1830 -0.5292 -0.0148
   13SAPS  H15R 1664   6.030   2.757   3.523 -0.6841 -0.5259  0.4227
   13SAPS  C216 1665   6.013   2.971   3.522  0.2770 -0.3893 -0.2104
   13SAPS  H16R 1666   6.035   3.055   3.453 -1.5639  0.0861 -0.2627
   13SAPS  H16S 1667   6.102   2.954   3.587  0.2289  1.1096  0.2986
   13SAPS  C217 1668   5.891   3.023   3.599 -0.1971 -0.2684  0.7109
   13SAPS  H17R 1669   5.802   3.034   3.533 -0.6982 -0.3192  1.3626
   13SAPS  H17S 1670   5.908   3.126   3.639 -0.0697  0.0178 -0.0738
   13SAPS  C218 1671   5.836   2.929   3.711 -0.2798 -0.7909  0.1097
   13SAPS  H18R 1672   5.922   2.877   3.758 -0.4802 -0.2477  1.1050
   13SAPS  H18S 1673   5.772   2.846   3.673 -1.2699  0.1959 -0.4445
   13SAPS  C219 1674   5.771   3.014   3.823 -0.4139  0.5734 -0.1107
   13SAPS  H19R 1675   5.680   3.069   3.792 -1.2851 -0.6983  0.0784
   13SAPS  H19S 1676   5.845   3.084   3.867  1.2346 -1.5448  0.6881
   13SAPS  C220 1677   5.737   2.918   3.941 -0.0744 -0.7663 -0.1587
   13SAPS  H20R 1678   5.826   2.854   3.960 -0.5890 -1.1961  0.9069
   13SAPS  H20S 1679   5.654   2.852   3.907 -0.2195 -0.8868  0.4226
   13SAPS  H20T 1680   5.700   2.968   4.033 -2.1581 -0.2056 -1.2276
   13SAPS   C33 1681   5.534   3.457   2.701 -0.0163 -0.3919 -0.5110
   13SAPS   H3X 1682   5.634   3.500   2.678 -0.4135  0.4445 -0.7114
   13SAPS   H3Y 1683   5.549   3.353   2.663  2.1066 -0.3086 -0.0666
   13SAPS   C34 1684   5.487   3.440   2.843  0.1040  0.1844  0.6079
   13SAPS   H4X 1685   5.564   3.398   2.912  1.2556  0.4783 -0.4770
   13SAPS   H4Y 1686   5.388   3.389   2.848 -1.3069  2.3936 -2.1418
   13SAPS   C35 1687   5.482   3.577   2.921 -0.2922  0.3736 -0.0221
   13SAPS   H5X 1688   5.400   3.642   2.886 -1.8868 -1.3376  0.3732
   13SAPS   H5Y 1689   5.573   3.637   2.902 -0.1179  0.9210  2.2863
   13SAPS   C36 1690   5.468   3.560   3.072  0.1838  0.3113  0.1132
   13SAPS   H6X 1691   5.501   3.655   3.119 -2.6439  1.6381 -0.3952
   13SAPS   H6Y 1692   5.533   3.482   3.118  2.1719  0.1562 -2.6344
   13SAPS   C37 1693   5.321   3.541   3.120  0.2417 -0.1391  0.5139
   13SAPS   H7X 1694   5.249   3.515   3.040 -0.3232  1.1631  0.5790
   13SAPS   H7Y 1695   5.292   3.636   3.171  1.0347 -0.3911  1.4670
   13SAPS   C38 1696   5.326   3.427   3.225 -0.3498  0.5486  0.8429
   13SAPS   H8X 1697   5.404   3.460   3.297  0.5330  1.3585 -0.4252
   13SAPS   H8Y 1698   5.351   3.325   3.188  0.5372 -1.0042  5.1214
   13SAPS   C39 1699   5.196   3.416   3.315 -0.2434  0.6297 -0.0637
   13SAPS   H9X 1700   5.101   3.413   3.257 -0.8855  1.0621  0.9368
   13SAPS   H9Y 1701   5.188   3.514   3.367  0.6326  1.2823 -1.1071
   13SAPS  C310 1702   5.207   3.299   3.416 -0.3515 -0.6474 -0.3205
   13SAPS  H10X 1703   5.313   3.303   3.448 -0.7903  2.0194  1.0678
   13SAPS  H10Y 1704   5.181   3.206   3.362  0.4246 -0.7708 -0.4901
   13SAPS  C311 1705   5.114   3.316   3.538 -0.7665  0.3639  1.0742
   13SAPS  H11X 1706   5.008   3.332   3.508 -0.3798  0.7685 -0.1420
   13SAPS  H11Y 1707   5.136   3.416   3.580 -0.1010 -0.1361  1.9459
   13SAPS  C312 1708   5.143   3.202   3.640  0.1866  0.6467  0.4960
   13SAPS  H12X 1709   5.250   3.195   3.667 -0.1632  1.9990  2.5188
   13SAPS  H12Y 1710   5.101   3.112   3.590  0.0044  0.6245  0.6837
   13SAPS  C313 1711   5.061   3.210   3.774 -0.0797 -0.9928  0.5568
   13SAPS  H13X 1712   4.955   3.231   3.747 -1.1550 -0.9366  4.2380
   13SAPS  H13Y 1713   5.106   3.294   3.831  0.6400 -0.8854 -0.1461
   13SAPS  C314 1714   5.062   3.083   3.856  0.2114 -1.0268 -0.7246
   13SAPS  H14X 1715   5.166   3.053   3.878  0.1526 -1.4079 -0.9519
   13SAPS  H14Y 1716   5.016   2.998   3.800 -2.4601  1.0010 -1.8574
   13SAPS  C315 1717   4.979   3.118   3.983  0.2297 -0.0379  0.7495
   13SAPS  H15X 1718   4.875   3.144   3.956 -0.1931 -0.9548  1.4146
   13SAPS  H15Y 1719   5.023   3.209   4.029 -1.2179  1.5635 -0.8894
   13SAPS  C316 1720   4.969   3.008   4.090 -0.3031  0.0845  0.7947
   13SAPS  H16X 1721   4.899   2.933   4.049 -1.5447  2.9250 -2.8458
   13SAPS  H16Y 1722   4.935   3.051   4.187 -1.0511 -0.9463  1.0047
   13SAPS  C317 1723   5.094   2.925   4.111 -0.3169  0.3474  0.6908
   13SAPS  H17X 1724   5.184   2.988   4.130  1.0432 -0.9978 -0.9395
   13SAPS  H17Y 1725   5.114   2.854   4.028 -2.5580  0.8931 -0.3831
   13SAPS  C318 1726   5.061   2.837   4.239  0.1221  0.0675 -0.1149
   13SAPS  H18X 1727   5.153   2.784   4.273 -0.3278  0.5227  1.9992
   13SAPS  H18Y 1728   4.984   2.763   4.207 -0.2027  0.9666 -1.4719
   13SAPS  H18Z 1729   5.029   2.895   4.328 -1.2983 -0.7203 -0.0797
   14SAPS     N 1730   3.610   2.417   2.005 -0.3009  0.6144 -0.2647
   14SAPS   HN1 1731   3.539   2.444   2.076  1.3910  1.4003  1.2210
   14SAPS   HN2 1732   3.692   2.374   2.054  0.3119  0.6904 -1.2047
   14SAPS   HN3 1733   3.662   2.494   1.958  1.9066  0.9634  2.4229
   14SAPS   C12 1734   3.569   2.309   1.908 -0.0356  0.1342 -0.3269
   14SAPS  H12A 1735   3.541   2.219   1.960  0.1878  0.0174 -0.4047
   14SAPS   C13 1736   3.442   2.341   1.829  0.0539 -0.6025  0.2756
   14SAPS  O13A 1737   3.373   2.443   1.858  0.5034 -0.3263 -0.7668
   14SAPS  O13B 1738   3.409   2.268   1.735  0.1793 -0.6012  0.1536
   14SAPS   C11 1739   3.679   2.277   1.808  0.4909  0.2972 -0.5590
   14SAPS  H11A 1740   3.699   2.370   1.749 -2.5129  2.5356  1.6444
   14SAPS  H11B 1741   3.651   2.199   1.734  1.1227  1.1250 -1.7130
   14SAPS     P 1742   3.844   2.095   1.916 -0.1846  0.4545 -0.0437
   14SAPS   O13 1743   3.790   2.006   1.813  0.0750  0.2587  0.1710
   14SAPS   O14 1744   3.991   2.096   1.948  0.0980  0.8128 -0.8442
   14SAPS   O12 1745   3.795   2.242   1.881 -0.2435 -0.0430  0.3645
   14SAPS   O11 1746   3.762   2.087   2.053  0.1074 -0.2309 -0.1369
   14SAPS    C1 1747   3.696   1.963   2.079 -0.0751 -0.0427  0.0693
   14SAPS    HA 1748   3.590   1.987   2.060 -0.0048  1.3392  1.2694
   14SAPS    HB 1749   3.724   1.875   2.017  2.3676  2.5311 -2.7705
   14SAPS    C2 1750   3.698   1.931   2.232 -0.5098 -0.0543 -0.3344
   14SAPS    HS 1751   3.626   1.849   2.253  0.4850 -1.1277 -1.0031
   14SAPS   O21 1752   3.668   2.054   2.302 -0.2653  0.4655 -0.4193
   14SAPS   C21 1753   3.544   2.079   2.313  0.3419  0.5419 -0.1171
   14SAPS   O22 1754   3.447   2.023   2.255  0.0189 -0.6459 -0.4680
   14SAPS   C22 1755   3.527   2.199   2.412 -0.3637  0.2457 -0.2668
   14SAPS   H2R 1756   3.578   2.285   2.363  1.4120 -1.1114 -0.9385
   14SAPS   H2S 1757   3.421   2.225   2.429 -0.7706 -1.4240 -0.0703
   14SAPS    C3 1758   3.838   1.884   2.274  0.3356 -0.1713 -0.6687
   14SAPS    HX 1759   3.899   1.976   2.266 -0.4607  0.5310  0.8285
   14SAPS    HY 1760   3.873   1.809   2.200 -3.5863 -1.9464 -0.9882
   14SAPS   O31 1761   3.827   1.828   2.406  0.0537 -0.0499  0.4167
   14SAPS   C31 1762   3.905   1.878   2.495  0.1606  0.5008  0.5160
   14SAPS   O32 1763   4.004   1.946   2.470  0.8962  0.0629  0.6555
   14SAPS   C32 1764   3.864   1.825   2.636  0.0690  0.1114  0.3288
   14SAPS   H2X 1765   3.935   1.740   2.649 -1.3208 -1.2928 -0.8506
   14SAPS   H2Y 1766   3.760   1.786   2.642 -0.4000  0.9607 -1.5304
   14SAPS   C23 1767   3.590   2.170   2.553  0.7787 -0.4123 -0.0409
   14SAPS   H3R 1768   3.686   2.226   2.554  0.2679  0.4865  0.8101
   14SAPS   H3S 1769   3.611   2.061   2.559  1.5631 -0.1677  2.4294
   14SAPS   C24 1770   3.514   2.209   2.674 -0.6200  0.6330 -0.0691
   14SAPS   H4R 1771   3.407   2.178   2.666 -0.1267 -1.0140 -0.7117
   14SAPS   H4S 1772   3.516   2.320   2.678  0.9673  0.5786  1.9264
   14SAPS   C25 1773   3.574   2.173   2.806 -0.3684  0.1343 -0.0573
   14SAPS   H5R 1774   3.676   2.213   2.822 -0.4324  0.6542 -0.8878
   14SAPS   C26 1775   3.520   2.095   2.899 -0.2851 -0.3858  0.4193
   14SAPS   H6R 1776   3.577   2.070   2.990 -0.6518  1.3693  1.1742
   14SAPS   C27 1777   3.381   2.032   2.893 -0.0385 -0.1215 -0.0936
   14SAPS   H7R 1778   3.313   2.064   2.812  1.7855 -1.1161 -2.1086
   14SAPS   H7S 1779   3.330   2.067   2.985  1.3609  0.6307  0.4333
   14SAPS   C28 1780   3.375   1.881   2.896 -0.1374  0.1506 -0.2083
   14SAPS   H8R 1781   3.380   1.828   2.992 -0.4424 -2.0033 -1.3179
   14SAPS   C29 1782   3.352   1.803   2.790 -0.3264 -0.6118 -0.9063
   14SAPS   H9R 1783   3.336   1.695   2.802 -0.7430 -0.3807  0.7644
   14SAPS  C210 1784   3.354   1.857   2.646  0.3330 -0.3853  0.2170
   14SAPS  H10R 1785   3.452   1.845   2.596 -0.6607 -0.4694 -1.8034
   14SAPS  H10S 1786   3.335   1.967   2.643 -3.3869 -0.8914  0.7577
   14SAPS  C211 1787   3.257   1.789   2.552  0.6273 -0.1511 -0.6553
   14SAPS  H11R 1788   3.303   1.723   2.476  1.4795  0.9809 -1.1574
   14SAPS  C212 1789   3.119   1.805   2.564  0.0694  0.6457 -0.5634
   14SAPS  H12R 1790   3.054   1.744   2.499  0.2188  0.1492 -0.2559
   14SAPS  C213 1791   3.037   1.893   2.662 -0.0590 -0.3225  0.0121
   14SAPS  H13R 1792   3.020   1.990   2.610  0.9270  1.1895  2.3526
   14SAPS  H13S 1793   3.087   1.924   2.757 -0.2145  0.1759 -0.0685
   14SAPS  C214 1794   2.899   1.838   2.694  0.5491 -0.4114  0.3458
   14SAPS  H14R 1795   2.832   1.812   2.611 -0.1804  0.8422  0.5204
   14SAPS  C215 1796   2.846   1.825   2.818 -0.1468  0.3807 -0.4839
   14SAPS  H15R 1797   2.754   1.770   2.843 -0.2884  0.3859 -0.9838
   14SAPS  C216 1798   2.926   1.846   2.947  1.0111 -0.4770 -0.4459
   14SAPS  H16R 1799   2.852   1.867   3.028  0.2445 -1.2651 -0.9253
   14SAPS  H16S 1800   2.995   1.933   2.945  2.2626 -1.4319 -0.0806
   14SAPS  C217 1801   3.009   1.724   2.973 -0.2041  0.5438  0.6109
   14SAPS  H17R 1802   3.088   1.714   2.895 -1.0411 -1.1894 -0.0820
   14SAPS  H17S 1803   2.953   1.628   2.969 -0.3076  0.6431 -1.5305
   14SAPS  C218 1804   3.090   1.734   3.100 -0.3802 -0.6458 -0.0321
   14SAPS  H18R 1805   3.128   1.838   3.107 -0.0542 -0.6070 -1.8658
   14SAPS  H18S 1806   3.183   1.674   3.091  0.9635  1.3703 -0.0749
   14SAPS  C219 1807   3.028   1.703   3.232  0.1352  0.4513 -0.8366
   14SAPS  H19R 1808   2.966   1.613   3.216  0.2484  0.5370 -1.7916
   14SAPS  H19S 1809   2.961   1.787   3.262 -0.3058 -0.4258  0.7373
   14SAPS  C220 1810   3.128   1.682   3.345 -0.2412 -0.2875 -0.0408
   14SAPS  H20R 1811   3.174   1.582   3.330  0.5781  0.5024 -3.9384
   14SAPS  H20S 1812   3.084   1.698   3.446 -0.8219 -2.4056  0.0841
   14SAPS  H20T 1813   3.211   1.755   3.333 -1.1151  0.5756 -0.9719
   14SAPS   C33 1814   3.877   1.939   2.739 -0.1896  0.2697  0.1679
   14SAPS   H3X 1815   3.829   2.026   2.690  0.0825 -0.0789 -0.7385
   14SAPS   H3Y 1816   3.985   1.962   2.748 -0.4719  2.0166 -0.6192
   14SAPS   C34 1817   3.808   1.910   2.876 -0.4154  0.1230  0.9185
   14SAPS   H4X 1818   3.702   1.883   2.855 -0.6280  0.4644  1.5032
   14SAPS   H4Y 1819   3.817   2.004   2.935  1.1409  0.7981 -0.3479
   14SAPS   C35 1820   3.878   1.796   2.945  0.1464  0.1373  0.6061
   14SAPS   H5X 1821   3.978   1.832   2.976  0.4244 -1.1988  1.3074
   14SAPS   H5Y 1822   3.885   1.705   2.882 -1.9455 -0.7135  1.4894
   14SAPS   C36 1823   3.814   1.757   3.076  0.2850 -0.3284  0.2566
   14SAPS   H6X 1824   3.841   1.835   3.150  3.6275  0.9047 -2.0476
   14SAPS   H6Y 1825   3.856   1.659   3.105  0.7185 -0.7205 -1.5644
   14SAPS   C37 1826   3.661   1.752   3.067 -0.3976 -0.3827 -0.0848
   14SAPS   H7X 1827   3.621   1.707   2.974 -1.3040  0.0592  0.0823
   14SAPS   H7Y 1828   3.624   1.856   3.077  0.2338 -0.3343  2.7806
   14SAPS   C38 1829   3.607   1.682   3.189  0.3064  0.0303  0.5750
   14SAPS   H8X 1830   3.688   1.612   3.218 -0.6159 -0.7692  1.3151
   14SAPS   H8Y 1831   3.516   1.622   3.164  0.6899 -0.0355 -0.7195
   14SAPS   C39 1832   3.570   1.775   3.302  0.0196  0.4185  0.0378
   14SAPS   H9X 1833   3.500   1.849   3.258  0.8446 -0.2307 -2.5269
   14SAPS   H9Y 1834   3.653   1.840   3.335 -0.8587  1.0851  1.0059
   14SAPS  C310 1835   3.489   1.706   3.411  0.2532 -0.3707 -0.2228
   14SAPS  H10X 1836   3.556   1.634   3.462  0.9313  0.9735  0.8539
   14SAPS  H10Y 1837   3.405   1.648   3.367 -1.5896  0.5120  1.9744
   14SAPS  C311 1838   3.442   1.797   3.522 -0.1917  0.2265  0.0169
   14SAPS  H11X 1839   3.370   1.871   3.481 -1.6861 -2.0831 -1.8751
   14SAPS  H11Y 1840   3.528   1.850   3.566  1.1324 -1.2596 -0.6574
   14SAPS  C312 1841   3.380   1.708   3.635  0.3953  0.1947  0.3657
   14SAPS  H12X 1842   3.320   1.626   3.589  0.4287 -1.1064  2.4774
   14SAPS  H12Y 1843   3.305   1.767   3.693  2.1844  1.1643  1.7938
   14SAPS  C313 1844   3.479   1.639   3.724 -0.1600  0.0572  0.4285
   14SAPS  H13X 1845   3.539   1.708   3.787 -2.9525  1.7723  1.3997
   14SAPS  H13Y 1846   3.551   1.578   3.665  1.1326 -0.4173  2.4342
   14SAPS  C314 1847   3.414   1.538   3.809  0.5300  0.0675 -0.3077
   14SAPS  H14X 1848   3.352   1.462   3.755  0.8244 -2.3567  2.5512
   14SAPS  H14Y 1849   3.333   1.589   3.866 -2.7100 -1.5364 -3.0449
   14SAPS  C315 1850   3.514   1.465   3.893 -0.4706 -0.0732  0.1598
   14SAPS  H15X 1851   3.574   1.538   3.952  0.7567 -1.7867  1.1165
   14SAPS  H15Y 1852   3.584   1.402   3.834 -0.0674 -0.2751  0.8392
   14SAPS  C316 1853   3.439   1.373   3.993  0.3976 -0.3053 -0.0143
   14SAPS  H16X 1854   3.515   1.305   4.037  1.4812  0.0420 -1.2802
   14SAPS  H16Y 1855   3.371   1.308   3.933  0.0740 -0.3309  0.3815
   14SAPS  C317 1856   3.360   1.451   4.096  0.0839 -0.0696 -0.3701
   14SAPS  H17X 1857   3.269   1.487   4.042  1.0522  2.4305 -0.4785
   14SAPS  H17Y 1858   3.415   1.541   4.131 -1.7101  0.8544  0.2029
   14SAPS  C318 1859   3.326   1.375   4.221 -0.0196 -0.1430 -0.1185
   14SAPS  H18X 1860   3.256   1.433   4.286  2.0348 -1.0322  3.1511
   14SAPS  H18Y 1861   3.416   1.358   4.284 -0.2559  0.4734  0.3931
   14SAPS  H18Z 1862   3.281   1.282   4.180 -0.3423 -0.0065 -0.0732
   15SAPS     N 1863   4.495   5.588   1.542 -0.5008  0.8687  0.4608
   15SAPS   HN1 1864   4.476   5.650   1.623 -0.9510  0.2712  0.8198
   15SAPS   HN2 1865   4.557   5.627   1.468  2.0932 -1.9597  0.9352
   15SAPS   HN3 1866   4.403   5.573   1.496  0.4255  0.1904 -1.2665
   15SAPS   C12 1867   4.544   5.454   1.596  1.1597  0.6237 -0.3450
   15SAPS  H12A 1868   4.482   5.382   1.545 -0.1618  1.4841 -0.0204
   15SAPS   C13 1869   4.690   5.416   1.572  0.3189 -0.1324  1.4922
   15SAPS  O13A 1870   4.761   5.498   1.508  0.4716 -0.5327  0.1494
   15SAPS  O13B 1871   4.722   5.298   1.592 -0.2517 -0.2803 -0.2076
   15SAPS   C11 1872   4.511   5.442   1.748  0.1259  0.0519 -1.0015
   15SAPS  H11A 1873   4.588   5.505   1.796  0.2973 -1.7313  1.2250
   15SAPS  H11B 1874   4.517   5.336   1.781  0.0758  0.4294  0.2500
   15SAPS     P 1875   4.284   5.431   1.879 -0.0908 -0.0089 -0.3756
   15SAPS   O13 1876   4.146   5.483   1.867  0.0891 -0.0866 -0.3692
   15SAPS   O14 1877   4.295   5.285   1.879 -0.1272 -0.1166  0.1343
   15SAPS   O12 1878   4.380   5.490   1.775 -0.7101  0.5264 -0.2094
   15SAPS   O11 1879   4.356   5.469   2.015  0.1126  0.0842 -0.0204
   15SAPS    C1 1880   4.420   5.590   2.040 -0.9140 -0.2839 -0.1910
   15SAPS    HA 1881   4.449   5.644   1.948  1.0743  0.2455  0.6964
   15SAPS    HB 1882   4.346   5.652   2.094 -2.3811 -1.8406 -0.3049
   15SAPS    C2 1883   4.555   5.553   2.116  0.4011 -1.1223  1.1644
   15SAPS    HS 1884   4.613   5.495   2.041 -1.0030 -1.2898  0.1582
   15SAPS   O21 1885   4.530   5.467   2.226  0.3853  0.7776 -0.0153
   15SAPS   C21 1886   4.634   5.400   2.272 -0.2277  0.0135 -0.8518
   15SAPS   O22 1887   4.747   5.412   2.232 -0.4435 -0.1276  0.5300
   15SAPS   C22 1888   4.597   5.294   2.378  0.3123  0.3630 -0.0047
   15SAPS   H2R 1889   4.519   5.331   2.448  1.2560 -0.9695  1.8254
   15SAPS   H2S 1890   4.550   5.213   2.319 -2.8426  0.9643  1.4840
   15SAPS    C3 1891   4.641   5.673   2.157  0.1520 -0.3789 -0.2328
   15SAPS    HX 1892   4.669   5.727   2.064  0.0299  1.7437  0.8958
   15SAPS    HY 1893   4.736   5.629   2.195  1.3583  0.4013 -2.2075
   15SAPS   O31 1894   4.573   5.750   2.258  0.5611  0.9209 -0.3131
   15SAPS   C31 1895   4.563   5.878   2.230  0.3005 -0.9682  0.0044
   15SAPS   O32 1896   4.598   5.938   2.131  0.6522  0.3928 -0.0249
   15SAPS   C32 1897   4.475   5.956   2.333 -0.3782  0.2989  0.0943
   15SAPS   H2X 1898   4.518   5.941   2.434 -1.2339  2.2742  0.7963
   15SAPS   H2Y 1899   4.377   5.903   2.340 -0.2412  0.0353  0.0430
   15SAPS   C23 1900   4.722   5.253   2.456  0.9339 -0.8692 -0.2894
   15SAPS   H3R 1901   4.809   5.215   2.398  0.8317 -0.9743 -0.3741
   15SAPS   H3S 1902   4.697   5.161   2.514  2.3287 -1.0991 -0.0032
   15SAPS   C24 1903   4.777   5.367   2.555 -0.5158 -0.1423  0.8239
   15SAPS   H4R 1904   4.791   5.463   2.502  1.8505  0.7332  2.8924
   15SAPS   H4S 1905   4.877   5.328   2.583 -0.8631 -1.3925  0.4312
   15SAPS   C25 1906   4.694   5.383   2.682  0.4624 -0.2147 -0.3497
   15SAPS   H5R 1907   4.693   5.308   2.762 -2.4545  0.5871  0.4801
   15SAPS   C26 1908   4.617   5.492   2.698 -0.9146 -0.9851 -0.1087
   15SAPS   H6R 1909   4.539   5.494   2.775 -1.5237 -0.8997 -0.7167
   15SAPS   C27 1910   4.596   5.611   2.600  0.7408  0.7977  0.3841
   15SAPS   H7R 1911   4.494   5.652   2.617 -0.4161 -1.4750 -0.6928
   15SAPS   H7S 1912   4.595   5.573   2.495 -1.3815  1.4810  0.1047
   15SAPS   C28 1913   4.693   5.723   2.612  0.3326  0.2070 -0.1261
   15SAPS   H8R 1914   4.771   5.701   2.537  1.1806  0.0848  0.7821
   15SAPS   C29 1915   4.713   5.814   2.706 -0.1071 -0.3402  0.3149
   15SAPS   H9R 1916   4.795   5.886   2.690 -0.0240 -0.7130 -1.0084
   15SAPS  C210 1917   4.621   5.833   2.828  0.0764  0.1896  0.3781
   15SAPS  H10R 1918   4.676   5.823   2.924  0.6619  1.9510  0.2623
   15SAPS  H10S 1919   4.540   5.756   2.831  1.2163 -1.1206 -0.8066
   15SAPS  C211 1920   4.572   5.974   2.821  0.3655  0.1565 -0.0352
   15SAPS  H11R 1921   4.551   6.019   2.723  0.1710 -0.7246 -0.4088
   15SAPS  C212 1922   4.538   6.039   2.932 -0.2855 -0.7538 -0.1502
   15SAPS  H12R 1923   4.496   6.140   2.915 -0.5839 -0.0688  3.6478
   15SAPS  C213 1924   4.540   5.981   3.069 -0.2408  0.0597 -0.5103
   15SAPS  H13R 1925   4.645   5.950   3.085 -0.3900 -0.3031 -0.2188
   15SAPS  H13S 1926   4.483   5.886   3.079  0.8436 -0.3956  2.0976
   15SAPS  C214 1927   4.479   6.071   3.176  0.2808  0.0533  0.1181
   15SAPS  H14R 1928   4.388   6.118   3.135 -0.8081  0.4884  2.8522
   15SAPS  C215 1929   4.508   6.089   3.303 -0.7541  0.2138  0.0047
   15SAPS  H15R 1930   4.454   6.165   3.360  1.6353  2.2045 -0.1976
   15SAPS  C216 1931   4.622   6.025   3.382  0.6839 -0.1407  0.5295
   15SAPS  H16R 1932   4.707   6.096   3.373  0.5831  0.1626  1.7265
   15SAPS  H16S 1933   4.653   5.927   3.342  1.1574  0.4155 -0.5263
   15SAPS  C217 1934   4.591   6.010   3.531  0.2933  0.4495 -0.2632
   15SAPS  H17R 1935   4.513   5.932   3.540 -1.1344  1.5396 -2.3333
   15SAPS  H17S 1936   4.557   6.110   3.568 -0.7285  0.2307 -0.5704
   15SAPS  C218 1937   4.712   5.970   3.607  0.2377  0.1855  0.7929
   15SAPS  H18R 1938   4.788   6.051   3.602  0.2789  0.2394  1.9081
   15SAPS  H18S 1939   4.761   5.883   3.557  1.3761  0.8226  0.7451
   15SAPS  C219 1940   4.684   5.928   3.746 -0.6464 -0.1595  0.2746
   15SAPS  H19R 1941   4.638   5.827   3.759  1.5344 -0.9516  2.8807
   15SAPS  H19S 1942   4.619   6.004   3.795 -0.8323  1.5637 -2.4546
   15SAPS  C220 1943   4.814   5.924   3.827 -0.2110  0.3023 -0.0361
   15SAPS  H20R 1944   4.803   5.906   3.936  1.8703 -0.9580  0.0208
   15SAPS  H20S 1945   4.865   6.022   3.819  1.2517 -0.3639  0.6283
   15SAPS  H20T 1946   4.886   5.855   3.777 -0.9792 -1.2709  0.9459
   15SAPS   C33 1947   4.453   6.099   2.289 -0.4130  0.7335  0.0128
   15SAPS   H3X 1948   4.423   6.117   2.183 -1.7778  1.9109  0.5593
   15SAPS   H3Y 1949   4.541   6.166   2.298 -2.0332  3.0900 -0.7081
   15SAPS   C34 1950   4.326   6.161   2.345 -0.5205 -0.3383 -0.7029
   15SAPS   H4X 1951   4.249   6.082   2.329  0.5813 -1.1522 -2.1544
   15SAPS   H4Y 1952   4.313   6.261   2.300 -0.2270  0.5161  1.0077
   15SAPS   C35 1953   4.338   6.175   2.500 -0.2496 -0.6296 -0.0293
   15SAPS   H5X 1954   4.419   6.251   2.512 -1.6642  0.8045  0.8677
   15SAPS   H5Y 1955   4.368   6.077   2.543 -1.0393 -0.9850 -0.2736
   15SAPS   C36 1956   4.214   6.228   2.564  0.7103  0.3665  0.5295
   15SAPS   H6X 1957   4.130   6.160   2.538 -0.7852  2.2974  0.1385
   15SAPS   H6Y 1958   4.188   6.329   2.528 -1.6119 -0.2548  0.3007
   15SAPS   C37 1959   4.237   6.239   2.723  1.4184 -0.2719  0.0077
   15SAPS   H7X 1960   4.320   6.309   2.744 -0.2325  0.5640  5.2048
   15SAPS   H7Y 1961   4.269   6.149   2.781 -0.2830 -0.3538  0.8804
   15SAPS   C38 1962   4.117   6.313   2.780  0.3684  0.2874  0.2349
   15SAPS   H8X 1963   4.029   6.255   2.745  0.8478  0.4963 -1.3874
   15SAPS   H8Y 1964   4.119   6.416   2.740  1.7292  0.0485 -0.3466
   15SAPS   C39 1965   4.111   6.323   2.934 -0.4066  0.3919 -0.0632
   15SAPS   H9X 1966   4.092   6.225   2.982  1.7052  0.2109  0.5223
   15SAPS   H9Y 1967   4.028   6.390   2.965 -0.5755 -0.7302  2.1042
   15SAPS  C310 1968   4.249   6.382   2.977 -0.7246  0.1185  0.2937
   15SAPS  H10X 1969   4.290   6.445   2.896  2.1325 -1.6278  0.2306
   15SAPS  H10Y 1970   4.324   6.303   2.998  1.8267  2.4975  0.6502
   15SAPS  C311 1971   4.248   6.478   3.100  0.1369 -0.3206  0.5238
   15SAPS  H11X 1972   4.188   6.419   3.172 -0.9268  1.3860  1.0970
   15SAPS  H11Y 1973   4.200   6.574   3.071  0.9262 -0.8753 -3.1044
   15SAPS  C312 1974   4.385   6.507   3.150 -0.3029 -0.5698 -0.1983
   15SAPS  H12X 1975   4.448   6.533   3.062  0.3280  1.1520  0.7183
   15SAPS  H12Y 1976   4.429   6.414   3.192 -2.0777 -0.0087  3.2002
   15SAPS  C313 1977   4.408   6.613   3.258 -1.1163 -0.3335 -0.0039
   15SAPS  H13X 1978   4.370   6.711   3.222  0.0195  0.7749  1.6694
   15SAPS  H13Y 1979   4.513   6.636   3.286 -1.7543  0.0867  2.1996
   15SAPS  C314 1980   4.327   6.583   3.390  0.4774  0.1761  0.5267
   15SAPS  H14X 1981   4.353   6.475   3.401  2.3101  0.5079 -0.1642
   15SAPS  H14Y 1982   4.219   6.610   3.380  0.9584  2.2739  0.5670
   15SAPS  C315 1983   4.399   6.656   3.505 -0.1440 -0.6811 -1.0375
   15SAPS  H15X 1984   4.342   6.751   3.514 -0.4431 -1.0598  2.0517
   15SAPS  H15Y 1985   4.502   6.677   3.469  0.2808 -0.6893  0.1339
   15SAPS  C316 1986   4.385   6.590   3.642  0.6843 -0.4329 -0.6411
   15SAPS  H16X 1987   4.425   6.486   3.635 -1.1132 -1.1610 -0.5684
   15SAPS  H16Y 1988   4.277   6.565   3.642  0.5911 -0.0405 -1.2196
   15SAPS  C317 1989   4.413   6.670   3.773  0.2905  0.7907  0.0500
   15SAPS  H17X 1990   4.376   6.615   3.862 -2.5252  0.2761 -1.3055
   15SAPS  H17Y 1991   4.351   6.763   3.776  1.5193  1.6152  0.7222
   15SAPS  C318 1992   4.559   6.698   3.786 -0.5090 -0.3452 -0.3962
   15SAPS  H18X 1993   4.602   6.599   3.813 -1.3543 -0.6458 -0.1173
   15SAPS  H18Y 1994   4.600   6.769   3.862  1.2627 -1.2092 -0.5017
   15SAPS  H18Z 1995   4.597   6.736   3.689 -0.9332  1.0073 -0.0610
   16SAPS     N 1996   5.988   4.023   1.631 -0.8618 -0.0177 -0.3999
   16SAPS   HN1 1997   5.938   4.057   1.716  0.7622  1.6586 -0.0605
   16SAPS   HN2 1998   6.012   4.095   1.560 -0.9204 -0.4570 -0.8677
   16SAPS   HN3 1999   5.923   3.961   1.579 -0.0132 -0.7581 -0.5996
   16SAPS   C12 2000   6.110   3.944   1.660  0.1162 -0.0981  0.3651
   16SAPS  H12A 2001   6.072   3.843   1.666  1.0342 -0.6836 -2.4084
   16SAPS   C13 2002   6.205   3.935   1.536  0.5017 -0.0761 -0.2308
   16SAPS  O13A 2003   6.191   4.017   1.439  0.7530  0.4200  0.0877
   16SAPS  O13B 2004   6.299   3.858   1.543  0.1203  0.4466 -0.1454
   16SAPS   C11 2005   6.185   3.991   1.791  0.4746  0.0360  0.4044
   16SAPS  H11A 2006   6.241   4.083   1.765 -0.8971  1.3591  1.9019
   16SAPS  H11B 2007   6.254   3.912   1.827  0.5739  0.2072  0.5913
   16SAPS     P 2008   6.112   4.150   1.986  0.4369 -0.0823  0.3166
   16SAPS   O13 2009   6.251   4.187   1.991  0.4049  0.4115 -0.0838
   16SAPS   O14 2010   6.015   4.252   1.948  0.2083 -0.3659 -0.9493
   16SAPS   O12 2011   6.088   4.021   1.890  0.6475 -0.4813  0.2549
   16SAPS   O11 2012   6.066   4.104   2.129  0.0225  0.7554 -0.1210
   16SAPS    C1 2013   5.934   4.040   2.138  0.5371 -0.0383  0.2940
   16SAPS    HA 2014   5.907   3.987   2.044  3.2265  1.2767 -1.3671
   16SAPS    HB 2015   5.938   3.969   2.223  1.5396 -0.3429  0.0065
   16SAPS    C2 2016   5.827   4.145   2.185 -0.1021 -0.2961  0.0611
   16SAPS    HS 2017   5.847   4.237   2.125  2.3110 -0.2609  0.8015
   16SAPS   O21 2018   5.835   4.166   2.328  0.0401 -0.0830 -0.1418
   16SAPS   C21 2019   5.835   4.291   2.377  0.1012  0.8098 -0.2766
   16SAPS   O22 2020   5.828   4.392   2.308 -0.0424 -1.1456  0.2670
   16SAPS   C22 2021   5.832   4.298   2.519 -0.8856  0.5853 -0.0053
   16SAPS   H2R 2022   5.725   4.282   2.543 -0.8160 -1.8926 -1.0392
   16SAPS   H2S 2023   5.893   4.212   2.553  0.6389  0.7113 -2.1796
   16SAPS    C3 2024   5.687   4.093   2.153 -0.1782 -0.5589 -0.1594
   16SAPS    HX 2025   5.666   4.006   2.219 -2.2536  0.3325  0.4301
   16SAPS    HY 2026   5.680   4.040   2.055  1.1617 -1.8697  0.4098
   16SAPS   O31 2027   5.574   4.178   2.182 -0.0575  0.1469 -0.0256
   16SAPS   C31 2028   5.563   4.271   2.089  0.8869  0.3521  0.2225
   16SAPS   O32 2029   5.625   4.277   1.984 -0.6936 -0.4174  0.2974
   16SAPS   C32 2030   5.465   4.379   2.137  0.3869  0.0525  0.0656
   16SAPS   H2X 2031   5.411   4.410   2.045  3.2016 -2.5388 -2.7201
   16SAPS   H2Y 2032   5.516   4.468   2.181 -1.7763  0.5651  1.6606
   16SAPS   C23 2033   5.883   4.430   2.580 -0.0793  0.1909 -0.1962
   16SAPS   H3R 2034   5.829   4.521   2.547  1.2163  0.8505 -0.5966
   16SAPS   H3S 2035   5.988   4.432   2.542  0.0653  3.3368  0.0994
   16SAPS   C24 2036   5.885   4.434   2.730 -0.6148 -0.1937 -0.8109
   16SAPS   H4R 2037   5.945   4.349   2.768  1.1431  1.9584  1.6030
   16SAPS   H4S 2038   5.781   4.419   2.767 -1.0508  2.5315 -0.7266
   16SAPS   C25 2039   5.953   4.564   2.775  0.5526 -0.0345  0.5401
   16SAPS   H5R 2040   5.947   4.648   2.704  0.1023 -0.0970  0.4999
   16SAPS   C26 2041   6.006   4.583   2.894 -0.4784  0.0278 -0.5833
   16SAPS   H6R 2042   6.039   4.686   2.914 -2.4973  0.8878 -1.3686
   16SAPS   C27 2043   6.022   4.476   3.001 -0.9079 -0.1460 -0.0823
   16SAPS   H7R 2044   5.957   4.388   2.981 -0.9285  0.1673 -1.5308
   16SAPS   H7S 2045   5.971   4.524   3.086 -3.5784 -1.4630 -0.8166
   16SAPS   C28 2046   6.161   4.433   3.019 -0.9412  0.2619 -0.0335
   16SAPS   H8R 2047   6.231   4.455   2.938 -0.8046 -0.3104 -0.0807
   16SAPS   C29 2048   6.219   4.370   3.123 -0.1012 -0.4376  0.3988
   16SAPS   H9R 2049   6.329   4.368   3.131 -0.0201 -1.9892 -0.7077
   16SAPS  C210 2050   6.143   4.357   3.246  0.1931 -0.2746 -0.8470
   16SAPS  H10R 2051   6.096   4.259   3.226 -2.9447  1.6813 -4.4186
   16SAPS  H10S 2052   6.058   4.429   3.253  0.5537  0.2798 -1.9511
   16SAPS  C211 2053   6.235   4.348   3.368 -0.4050 -0.1529  0.8750
   16SAPS  H11R 2054   6.249   4.449   3.411  1.4492  0.5019 -1.0727
   16SAPS  C212 2055   6.280   4.241   3.438  0.0116 -0.6150  0.7336
   16SAPS  H12R 2056   6.359   4.261   3.512 -0.9640 -2.0065  2.2170
   16SAPS  C213 2057   6.256   4.095   3.423  0.6801 -0.0667 -0.0931
   16SAPS  H13R 2058   6.340   4.053   3.364  0.6483  1.4352 -1.2674
   16SAPS  H13S 2059   6.176   4.062   3.353  1.4635  0.4273 -1.2442
   16SAPS  C214 2060   6.254   4.023   3.555 -0.1571  0.0581  0.7064
   16SAPS  H14R 2061   6.279   4.078   3.647  1.7975  0.6346 -0.1163
   16SAPS  C215 2062   6.229   3.891   3.580 -0.7018 -0.9023 -0.5838
   16SAPS  H15R 2063   6.240   3.865   3.686  0.2295  1.1793 -0.1306
   16SAPS  C216 2064   6.196   3.777   3.489  0.4205 -0.0380 -0.3026
   16SAPS  H16R 2065   6.194   3.815   3.384  0.8292 -0.8446 -0.6128
   16SAPS  H16S 2066   6.097   3.734   3.514  0.5635 -0.2409 -0.0865
   16SAPS  C217 2067   6.308   3.679   3.475 -0.7673  0.7552  0.1940
   16SAPS  H17R 2068   6.333   3.628   3.570 -0.0785  1.1744  0.2530
   16SAPS  H17S 2069   6.398   3.737   3.443 -0.5359  1.3637  1.8440
   16SAPS  C218 2070   6.290   3.560   3.369  0.1039  0.0568 -0.2627
   16SAPS  H18R 2071   6.204   3.495   3.397  0.6180  0.0327  1.4113
   16SAPS  H18S 2072   6.385   3.503   3.365  2.2654  3.0248  2.8832
   16SAPS  C219 2073   6.253   3.591   3.223  0.9805  0.2848 -0.3590
   16SAPS  H19R 2074   6.305   3.680   3.181  1.0258  0.0556 -0.7937
   16SAPS  H19S 2075   6.145   3.616   3.217  0.5687 -1.6317 -2.0325
   16SAPS  C220 2076   6.270   3.472   3.122  0.5417 -0.0774 -0.3179
   16SAPS  H20R 2077   6.247   3.505   3.018  1.2856  2.5370  0.2768
   16SAPS  H20S 2078   6.209   3.384   3.152  2.1902 -0.5025  2.0517
   16SAPS  H20T 2079   6.378   3.445   3.121  0.6045  0.1799 -1.0203
   16SAPS   C33 2080   5.354   4.334   2.240  0.0903  0.1989 -0.1718
   16SAPS   H3X 2081   5.344   4.224   2.242 -1.2954  0.3133  0.3095
   16SAPS   H3Y 2082   5.257   4.382   2.216 -0.8094 -2.1618 -1.5415
   16SAPS   C34 2083   5.389   4.385   2.389  0.0966 -0.2440 -0.0862
   16SAPS   H4X 2084   5.415   4.493   2.386  1.0374 -0.4659 -0.2888
   16SAPS   H4Y 2085   5.481   4.327   2.415  0.9402  0.8160 -0.6203
   16SAPS   C35 2086   5.270   4.369   2.484 -0.0374  0.3373  0.0264
   16SAPS   H5X 2087   5.227   4.267   2.476  0.2653  0.0116  2.0233
   16SAPS   H5Y 2088   5.199   4.451   2.461  0.1685  0.7014  0.6754
   16SAPS   C36 2089   5.310   4.372   2.635 -0.3235  0.6906  0.4867
   16SAPS   H6X 2090   5.389   4.295   2.648 -0.3690  0.5489 -0.0425
   16SAPS   H6Y 2091   5.219   4.342   2.691  0.0269 -2.4132 -0.3636
   16SAPS   C37 2092   5.362   4.509   2.680 -0.0774 -0.4591 -0.0618
   16SAPS   H7X 2093   5.300   4.591   2.638 -0.3533  0.1142  1.4049
   16SAPS   H7Y 2094   5.467   4.523   2.646 -0.7091  0.7206 -1.6558
   16SAPS   C38 2095   5.364   4.518   2.839  0.8784  0.0064  1.2041
   16SAPS   H8X 2096   5.428   4.435   2.876  1.2617 -0.2629  0.0056
   16SAPS   H8Y 2097   5.262   4.493   2.876 -0.4832  1.8542 -1.0052
   16SAPS   C39 2098   5.410   4.650   2.892 -0.1157 -0.3340 -0.4320
   16SAPS   H9X 2099   5.357   4.736   2.846 -1.1392  1.1898  3.2399
   16SAPS   H9Y 2100   5.521   4.659   2.882 -0.2006  0.1047 -1.0076
   16SAPS  C310 2101   5.368   4.664   3.041 -0.3466 -0.4091 -0.5568
   16SAPS  H10X 2102   5.267   4.622   3.058  0.2472 -0.7468  2.9454
   16SAPS  H10Y 2103   5.360   4.771   3.072 -0.2027 -0.7974  0.9192
   16SAPS  C311 2104   5.470   4.600   3.141 -0.1189 -0.8468  0.2607
   16SAPS  H11X 2105   5.556   4.670   3.143 -2.1334  1.9711 -2.5999
   16SAPS  H11Y 2106   5.495   4.498   3.104  1.4218 -0.9350  1.4396
   16SAPS  C312 2107   5.409   4.596   3.281 -0.5103 -0.4496 -0.2052
   16SAPS  H12X 2108   5.305   4.560   3.266 -0.5271 -0.8733  0.8849
   16SAPS  H12Y 2109   5.420   4.699   3.322  0.4392 -1.8341  3.3593
   16SAPS  C313 2110   5.498   4.493   3.358 -0.5883 -0.3458  0.3013
   16SAPS  H13X 2111   5.568   4.556   3.417  0.8997 -0.5692 -1.1488
   16SAPS  H13Y 2112   5.563   4.431   3.292  0.2427 -1.0011  1.6635
   16SAPS  C314 2113   5.418   4.395   3.443 -0.6684 -0.1693 -0.4991
   16SAPS  H14X 2114   5.479   4.305   3.464 -1.2873 -0.2497  1.0931
   16SAPS  H14Y 2115   5.337   4.360   3.374 -2.1977 -0.0606  1.1652
   16SAPS  C315 2116   5.352   4.468   3.557 -0.5567  0.2972 -0.0790
   16SAPS  H15X 2117   5.297   4.561   3.528 -0.1614  1.1101  1.6812
   16SAPS  H15Y 2118   5.440   4.504   3.614 -0.7227 -1.1704  1.1637
   16SAPS  C316 2119   5.267   4.370   3.639  0.2290  0.4626  0.2903
   16SAPS  H16X 2120   5.330   4.292   3.688 -0.1575  0.3198  0.5659
   16SAPS  H16Y 2121   5.202   4.316   3.567 -0.2225  1.1676  0.1660
   16SAPS  C317 2122   5.172   4.445   3.731  0.7754  0.0778  0.3044
   16SAPS  H17X 2123   5.128   4.531   3.677  2.1879  0.7879  0.2254
   16SAPS  H17Y 2124   5.243   4.496   3.801 -0.1722 -0.6093  1.8128
   16SAPS  C318 2125   5.081   4.362   3.816  0.6938  0.0133  0.1390
   16SAPS  H18X 2126   5.133   4.312   3.901 -0.4594 -1.5142  0.0043
   16SAPS  H18Y 2127   5.017   4.291   3.759 -1.0145  1.6793 -0.1400
   16SAPS  H18Z 2128   5.007   4.426   3.868  1.4615  1.2639 -0.2751
   17SAPS     N 2129   2.676   5.778   1.866 -0.1026  0.2215  0.2227
   17SAPS   HN1 2130   2.617   5.832   1.932 -1.8594  0.6452 -1.5840
   17SAPS   HN2 2131   2.672   5.679   1.897  0.3708  0.1760  0.1538
   17SAPS   HN3 2132   2.775   5.806   1.881 -0.7192  2.2095  0.8374
   17SAPS   C12 2133   2.644   5.793   1.723 -0.0888 -0.7509  0.4925
   17SAPS  H12A 2134   2.666   5.894   1.690 -0.0308 -1.3984 -1.5932
   17SAPS   C13 2135   2.724   5.694   1.634  0.4141 -0.1504 -0.4347
   17SAPS  O13A 2136   2.795   5.609   1.692 -0.2528  0.0584 -0.9097
   17SAPS  O13B 2137   2.731   5.720   1.514  0.6040 -0.1693 -0.4177
   17SAPS   C11 2138   2.488   5.770   1.698 -0.2039 -0.3523  0.2268
   17SAPS  H11A 2139   2.464   5.668   1.734 -2.1239  0.4082  1.2786
   17SAPS  H11B 2140   2.452   5.774   1.593  1.9351  2.4136 -0.5431
   17SAPS     P 2141   2.258   5.857   1.790  0.3382  0.2500  0.3835
   17SAPS   O13 2142   2.217   5.955   1.892 -0.0834  0.1061 -0.4916
   17SAPS   O14 2143   2.202   5.885   1.654  0.2267  0.3695 -0.0633
   17SAPS   O12 2144   2.412   5.866   1.771  0.2543 -0.4841 -0.0684
   17SAPS   O11 2145   2.228   5.714   1.838 -0.1535 -0.0798  0.2329
   17SAPS    C1 2146   2.292   5.652   1.948  0.0582 -0.2784 -0.2459
   17SAPS    HA 2147   2.392   5.608   1.928 -0.3414 -0.6199 -1.5680
   17SAPS    HB 2148   2.309   5.731   2.024 -0.9579 -1.1398  0.9254
   17SAPS    C2 2149   2.194   5.549   2.013  0.0089 -0.3184 -0.1440
   17SAPS    HS 2150   2.166   5.469   1.942 -1.5047 -0.2198  0.2912
   17SAPS   O21 2151   2.081   5.625   2.065 -0.6915  0.4937 -0.5478
   17SAPS   C21 2152   1.975   5.626   1.987  0.3409  0.7451 -0.4837
   17SAPS   O22 2153   1.973   5.574   1.872  0.0881 -0.6581 -0.9180
   17SAPS   C22 2154   1.863   5.699   2.049  0.4624  0.1020  0.0121
   17SAPS   H2R 2155   1.775   5.633   2.066  1.7201 -1.6446  0.1356
   17SAPS   H2S 2156   1.886   5.748   2.146 -2.4158 -0.3002  0.9831
   17SAPS    C3 2157   2.263   5.485   2.129 -0.4636 -0.5787  0.4344
   17SAPS    HX 2158   2.366   5.474   2.090 -0.5901  1.2914 -0.5384
   17SAPS    HY 2159   2.212   5.388   2.146  0.6005 -0.9544  1.6174
   17SAPS   O31 2160   2.266   5.562   2.250 -0.5550 -0.3495 -0.1259
   17SAPS   C31 2161   2.176   5.528   2.339 -0.0835  0.3343 -0.3946
   17SAPS   O32 2162   2.076   5.461   2.323  0.5656 -0.5081 -0.0515
   17SAPS   C32 2163   2.228   5.570   2.476  0.7273  0.0586  0.8129
   17SAPS   H2X 2164   2.168   5.654   2.518  0.0446 -0.6691  1.3223
   17SAPS   H2Y 2165   2.330   5.606   2.453  0.3226  0.1357 -1.0258
   17SAPS   C23 2166   1.822   5.818   1.950  0.2799 -0.2223 -0.0636
   17SAPS   H3R 2167   1.828   5.788   1.843  0.4241 -2.1459  0.4515
   17SAPS   H3S 2168   1.901   5.894   1.969  0.2956 -0.3724  0.4719
   17SAPS   C24 2169   1.681   5.873   1.974 -0.0583  0.0240 -0.1509
   17SAPS   H4R 2170   1.677   5.975   1.931  1.0795 -0.0535 -0.4900
   17SAPS   H4S 2171   1.668   5.890   2.083  0.9649 -0.6731  0.0931
   17SAPS   C25 2172   1.585   5.785   1.897  0.3240  0.1362  0.3707
   17SAPS   H5R 2173   1.611   5.780   1.791 -0.3658  0.1633  0.1928
   17SAPS   C26 2174   1.473   5.715   1.933 -0.1504  0.3528 -0.4384
   17SAPS   H6R 2175   1.425   5.649   1.859  1.3974 -1.1893 -0.1597
   17SAPS   C27 2176   1.425   5.696   2.077 -0.1882  0.9916 -0.3990
   17SAPS   H7R 2177   1.314   5.693   2.089  0.1578  0.3796  5.9670
   17SAPS   H7S 2178   1.467   5.778   2.140 -0.0119  1.5233 -1.1988
   17SAPS   C28 2179   1.475   5.568   2.145  0.7061  0.8641 -0.1786
   17SAPS   H8R 2180   1.472   5.485   2.074  2.4615  0.2906  0.3774
   17SAPS   C29 2181   1.539   5.547   2.264 -0.1896 -0.0636 -0.1443
   17SAPS   H9R 2182   1.557   5.440   2.287 -0.3516  0.0586  0.5731
   17SAPS  C210 2183   1.580   5.645   2.376 -0.1556 -0.4558 -0.7054
   17SAPS  H10R 2184   1.533   5.609   2.470  1.9525  2.9081  1.8705
   17SAPS  H10S 2185   1.544   5.747   2.352  0.3189  0.0960  0.8350
   17SAPS  C211 2186   1.728   5.651   2.381  0.4751 -0.9874  0.2494
   17SAPS  H11R 2187   1.777   5.703   2.297  1.1089 -1.6821  0.1735
   17SAPS  C212 2188   1.804   5.625   2.488 -0.2771  0.1875 -0.1328
   17SAPS  H12R 2189   1.914   5.623   2.476  0.1437  1.6553  2.5306
   17SAPS  C213 2190   1.765   5.572   2.625 -0.2057 -0.5362 -1.3001
   17SAPS  H13R 2191   1.704   5.648   2.679  0.9917  0.3047 -1.0701
   17SAPS  H13S 2192   1.854   5.575   2.692 -1.8205 -2.1545  1.0685
   17SAPS  C214 2193   1.700   5.433   2.621 -0.2364  0.5488  0.0289
   17SAPS  H14R 2194   1.633   5.413   2.537 -0.0021  2.2759 -0.6190
   17SAPS  C215 2195   1.731   5.345   2.719  0.8713  0.1716 -0.1766
   17SAPS  H15R 2196   1.686   5.245   2.708  1.2861  0.1845 -2.4698
   17SAPS  C216 2197   1.832   5.354   2.835  0.8595 -0.2694  0.1490
   17SAPS  H16R 2198   1.826   5.460   2.867  0.0951 -0.1060 -0.4792
   17SAPS  H16S 2199   1.931   5.338   2.788  0.2706  0.2323 -1.3286
   17SAPS  C217 2200   1.812   5.263   2.954  0.3283  0.4923  0.2311
   17SAPS  H17R 2201   1.824   5.155   2.929 -2.7311 -0.3340  1.7590
   17SAPS  H17S 2202   1.705   5.279   2.980 -0.4307 -1.1896 -1.6674
   17SAPS  C218 2203   1.895   5.300   3.073  0.4264  0.2770 -0.2796
   17SAPS  H18R 2204   1.882   5.408   3.095  0.8030 -0.1030  2.1285
   17SAPS  H18S 2205   1.998   5.277   3.039  0.3166 -1.5081  0.4952
   17SAPS  C219 2206   1.845   5.222   3.201 -0.0777  0.4928  0.4505
   17SAPS  H19R 2207   1.855   5.114   3.179  0.1568  0.6828 -0.4108
   17SAPS  H19S 2208   1.738   5.247   3.216 -0.2968 -0.0368 -0.2192
   17SAPS  C220 2209   1.938   5.259   3.320  0.2481 -0.2953  0.0072
   17SAPS  H20R 2210   1.950   5.370   3.323  0.8143 -0.1612 -3.1741
   17SAPS  H20S 2211   2.034   5.207   3.303  0.5677  0.4022 -0.4103
   17SAPS  H20T 2212   1.892   5.223   3.414 -0.9523 -0.8082 -0.7447
   17SAPS   C33 2213   2.233   5.448   2.571 -0.5786  0.0426  0.5061
   17SAPS   H3X 2214   2.281   5.363   2.518  2.6157 -0.0874  3.2745
   17SAPS   H3Y 2215   2.130   5.411   2.590  0.2945 -2.0026  1.5663
   17SAPS   C34 2216   2.306   5.460   2.713  0.0213  0.6243  0.6369
   17SAPS   H4X 2217   2.412   5.486   2.694  0.1671 -1.9175 -2.9621
   17SAPS   H4Y 2218   2.299   5.365   2.770  3.4106 -0.8990 -1.1824
   17SAPS   C35 2219   2.225   5.572   2.782 -0.3605  1.1935 -0.2265
   17SAPS   H5X 2220   2.124   5.556   2.740 -0.4988 -1.0462  0.7922
   17SAPS   H5Y 2221   2.269   5.669   2.752 -0.0306  1.5475  1.2880
   17SAPS   C36 2222   2.234   5.564   2.934  0.1628  0.2299 -0.1725
   17SAPS   H6X 2223   2.335   5.581   2.976  0.3795 -0.3465 -0.4500
   17SAPS   H6Y 2224   2.207   5.458   2.956  1.6383 -0.0695  0.3538
   17SAPS   C37 2225   2.121   5.644   2.998  0.7142 -0.0417 -0.1187
   17SAPS   H7X 2226   2.025   5.617   2.949  1.3505  0.2462 -1.5629
   17SAPS   H7Y 2227   2.149   5.750   2.981 -1.6999  0.7494  0.4672
   17SAPS   C38 2228   2.109   5.597   3.145  0.1269  0.2714 -0.1527
   17SAPS   H8X 2229   2.056   5.499   3.146  0.5731 -0.0987 -3.0148
   17SAPS   H8Y 2230   2.047   5.666   3.207 -0.1497 -0.5165  0.4649
   17SAPS   C39 2231   2.237   5.567   3.224 -0.0304  0.2048  0.3161
   17SAPS   H9X 2232   2.307   5.496   3.176  1.3985  0.6974  1.5727
   17SAPS   H9Y 2233   2.197   5.520   3.316 -1.6808 -2.6260 -1.7183
   17SAPS  C310 2234   2.326   5.686   3.254  0.1637  0.3044 -0.5780
   17SAPS  H10X 2235   2.296   5.768   3.186 -1.3823  1.2706  1.1777
   17SAPS  H10Y 2236   2.432   5.660   3.238  0.5556  0.9005  0.9068
   17SAPS  C311 2237   2.312   5.727   3.400 -0.1448 -0.1572 -0.3425
   17SAPS  H11X 2238   2.396   5.796   3.424  0.4688 -0.7529 -0.7295
   17SAPS  H11Y 2239   2.342   5.633   3.451  1.5456 -1.0923 -2.8591
   17SAPS  C312 2240   2.186   5.804   3.441  0.2781  0.2020 -0.0334
   17SAPS  H12X 2241   2.098   5.740   3.414  0.8400 -0.1922 -0.9936
   17SAPS  H12Y 2242   2.168   5.907   3.405  0.3977 -0.5378 -2.3688
   17SAPS  C313 2243   2.191   5.819   3.596  0.0317 -0.0254 -0.1151
   17SAPS  H13X 2244   2.274   5.888   3.620  0.1029  0.4753 -1.7166
   17SAPS  H13Y 2245   2.222   5.723   3.643 -0.5525  0.7280  1.8931
   17SAPS  C314 2246   2.061   5.866   3.665  0.0648  0.1547 -0.3223
   17SAPS  H14X 2247   1.983   5.787   3.662  1.4692 -1.2320 -2.2556
   17SAPS  H14Y 2248   2.017   5.942   3.597  0.4728 -0.7154 -1.6063
   17SAPS  C315 2249   2.077   5.922   3.808 -0.2642  0.2822  0.0730
   17SAPS  H15X 2250   2.143   6.010   3.802 -0.9144  0.9440  1.8881
   17SAPS  H15Y 2251   2.140   5.855   3.870  1.1764 -1.2002 -2.7649
   17SAPS  C316 2252   1.946   5.961   3.875  0.6692  0.1439  0.0627
   17SAPS  H16X 2253   1.900   6.026   3.798 -0.7534  2.1416  2.4828
   17SAPS  H16Y 2254   1.965   6.022   3.966  1.6881  0.7948 -0.5620
   17SAPS  C317 2255   1.855   5.844   3.904 -0.4662 -0.4136  0.0251
   17SAPS  H17X 2256   1.901   5.760   3.960 -2.4292 -0.4799  1.6587
   17SAPS  H17Y 2257   1.827   5.798   3.807 -2.0147  0.2322  0.1373
   17SAPS  C318 2258   1.725   5.883   3.978  0.0281 -0.5177 -0.2302
   17SAPS  H18X 2259   1.752   5.915   4.081 -1.0815  3.4884 -1.0109
   17SAPS  H18Y 2260   1.656   5.796   3.976  0.5856 -0.9414 -1.7011
   17SAPS  H18Z 2261   1.686   5.978   3.936 -2.0104  0.0256  2.5100
   18SAPS     N 2262   6.446   3.647   1.625 -0.4823  0.7440  0.3583
   18SAPS   HN1 2263   6.528   3.710   1.626 -0.1102  0.4817 -2.8233
   18SAPS   HN2 2264   6.366   3.689   1.574  0.6549  3.3438  0.5508
   18SAPS   HN3 2265   6.408   3.615   1.717  0.8403 -0.2609  0.5789
   18SAPS   C12 2266   6.485   3.512   1.568  0.6963 -0.5002  0.2733
   18SAPS  H12A 2267   6.397   3.449   1.576  0.0641  0.5428  1.8931
   18SAPS   C13 2268   6.516   3.505   1.417  0.1855 -0.2882 -0.6412
   18SAPS  O13A 2269   6.564   3.603   1.352  0.0459 -0.9200 -0.0657
   18SAPS  O13B 2270   6.523   3.388   1.370  0.1265 -0.2098  0.1216
   18SAPS   C11 2271   6.604   3.456   1.646  0.2582  0.4429  0.0426
   18SAPS  H11A 2272   6.691   3.524   1.632  0.4780  0.0395 -0.5363
   18SAPS  H11B 2273   6.629   3.358   1.601  0.5545  0.5914 -0.1201
   18SAPS     P 2274   6.495   3.318   1.843 -0.5353 -0.0695  0.0598
   18SAPS   O13 2275   6.349   3.344   1.871 -0.5259  0.1393 -0.1024
   18SAPS   O14 2276   6.521   3.201   1.752 -0.1595 -0.3386  0.0412
   18SAPS   O12 2277   6.560   3.451   1.779 -0.9940  0.7239 -0.5821
   18SAPS   O11 2278   6.567   3.310   1.979 -0.2097 -0.2084 -1.2879
   18SAPS    C1 2279   6.599   3.431   2.051  0.6108  0.7317 -1.0371
   18SAPS    HA 2280   6.699   3.469   2.020  1.6885  0.7286  2.1585
   18SAPS    HB 2281   6.527   3.510   2.019 -1.0665  0.1265  1.0736
   18SAPS    C2 2282   6.612   3.410   2.204 -0.0487 -0.3439 -0.1883
   18SAPS    HS 2283   6.640   3.503   2.258 -0.4038 -0.8215  0.8550
   18SAPS   O21 2284   6.691   3.289   2.231  0.2171  1.0202  0.0208
   18SAPS   C21 2285   6.821   3.322   2.242 -0.0037  0.0577  0.0777
   18SAPS   O22 2286   6.858   3.436   2.215 -0.1021  0.0987 -0.0796
   18SAPS   C22 2287   6.910   3.215   2.309  0.2657 -0.1059 -0.1243
   18SAPS   H2R 2288   6.843   3.148   2.367 -0.8722  1.5500  0.5635
   18SAPS   H2S 2289   6.945   3.154   2.223 -0.6126 -1.2418  0.2982
   18SAPS    C3 2290   6.469   3.399   2.249 -0.2247 -0.4343  0.1020
   18SAPS    HX 2291   6.429   3.302   2.212 -0.7151 -0.3746  0.4615
   18SAPS    HY 2292   6.405   3.486   2.221 -0.7086  0.0932  2.5832
   18SAPS   O31 2293   6.467   3.407   2.394 -0.0538  0.2027 -1.3626
   18SAPS   C31 2294   6.475   3.288   2.455 -0.0263  0.4664  0.1405
   18SAPS   O32 2295   6.494   3.181   2.400 -0.0523 -0.7640 -0.3523
   18SAPS   C32 2296   6.460   3.303   2.611 -0.5252 -0.3208  1.1076
   18SAPS   H2X 2297   6.364   3.359   2.614  0.1711  1.4452 -3.0106
   18SAPS   H2Y 2298   6.545   3.371   2.633 -0.2403 -1.2897  3.2615
   18SAPS   C23 2299   7.015   3.278   2.394 -0.1484  0.9850  0.3311
   18SAPS   H3R 2300   7.058   3.363   2.338 -1.3415  1.3707 -0.0294
   18SAPS   H3S 2301   7.089   3.203   2.428 -1.4125  0.1126  1.2621
   18SAPS   C24 2302   6.959   3.343   2.522 -0.4246  0.5410  0.8528
   18SAPS   H4R 2303   6.894   3.428   2.494  1.5469  1.6615 -0.5568
   18SAPS   H4S 2304   7.044   3.386   2.581  1.3712  0.8537 -1.8036
   18SAPS   C25 2305   6.880   3.244   2.614  0.0160  0.0990 -0.3511
   18SAPS   H5R 2306   6.781   3.213   2.578  0.4505 -0.2700 -1.2603
   18SAPS   C26 2307   6.929   3.183   2.729 -0.3035 -0.7281  0.2461
   18SAPS   H6R 2308   6.864   3.107   2.776 -1.0159  0.5245  1.3550
   18SAPS   C27 2309   7.054   3.198   2.810  0.1976  0.3271  0.9263
   18SAPS   H7R 2310   7.135   3.242   2.747  0.6521 -0.6676  0.7951
   18SAPS   H7S 2311   7.105   3.101   2.833 -0.0412 -0.4568 -1.6127
   18SAPS   C28 2312   7.047   3.284   2.927  0.6755 -0.3830 -0.1999
   18SAPS   H8R 2313   7.012   3.388   2.915  1.2692  0.2212  2.7013
   18SAPS   C29 2314   7.086   3.248   3.053 -0.4154  0.6308 -0.8703
   18SAPS   H9R 2315   7.080   3.329   3.127  0.8148 -1.0788  1.2008
   18SAPS  C210 2316   7.152   3.125   3.111  0.1383  0.1315  0.3260
   18SAPS  H10R 2317   7.187   3.062   3.027 -0.6098 -1.6198  1.2831
   18SAPS  H10S 2318   7.079   3.062   3.166 -1.3427 -0.0712 -1.7293
   18SAPS  C211 2319   7.275   3.138   3.199 -0.7942 -0.2514 -0.2165
   18SAPS  H11R 2320   7.342   3.218   3.164 -1.5561  0.2156 -0.6295
   18SAPS  C212 2321   7.303   3.071   3.307 -0.5009  0.5691 -0.3967
   18SAPS  H12R 2322   7.396   3.096   3.360 -1.3782  1.0554  0.9715
   18SAPS  C213 2323   7.224   2.952   3.372  0.3669 -0.8226 -0.2709
   18SAPS  H13R 2324   7.286   2.860   3.365  2.3257  0.3274  1.1603
   18SAPS  H13S 2325   7.134   2.934   3.309  1.2074  1.8778 -2.4002
   18SAPS  C214 2326   7.184   2.979   3.513  0.5526  0.0437  0.0697
   18SAPS  H14R 2327   7.087   3.025   3.537  0.2555 -0.5825  0.0665
   18SAPS  C215 2328   7.263   2.974   3.620  0.8069  0.0616  0.5063
   18SAPS  H15R 2329   7.215   2.977   3.719 -1.1123  1.9322 -0.3973
   18SAPS  C216 2330   7.402   2.924   3.610 -0.4157 -0.1348  0.1469
   18SAPS  H16R 2331   7.460   2.957   3.698 -0.8128  0.2710  0.2553
   18SAPS  H16S 2332   7.458   2.974   3.528 -0.8878  3.5275  1.9105
   18SAPS  C217 2333   7.421   2.768   3.607 -0.4166  0.3472 -0.1759
   18SAPS  H17R 2334   7.522   2.734   3.575 -0.7919  1.0227 -2.2067
   18SAPS  H17S 2335   7.354   2.726   3.529  2.4435 -0.9428 -2.1504
   18SAPS  C218 2336   7.410   2.694   3.748 -0.6097  0.3420  0.5012
   18SAPS  H18R 2337   7.314   2.728   3.793 -0.5090  2.5122 -0.7444
   18SAPS  H18S 2338   7.491   2.734   3.813  0.7512  0.7606 -1.3429
   18SAPS  C219 2339   7.418   2.546   3.749 -0.3017  0.2249 -0.4204
   18SAPS  H19R 2340   7.509   2.523   3.690 -0.8087 -3.3476 -0.0174
   18SAPS  H19S 2341   7.326   2.511   3.698 -1.7420  3.6250 -0.4334
   18SAPS  C220 2342   7.435   2.488   3.886  0.2894 -0.2331  0.0326
   18SAPS  H20R 2343   7.354   2.515   3.956  0.2740  2.2187 -0.8346
   18SAPS  H20S 2344   7.536   2.515   3.924  1.2456 -0.7604 -1.9506
   18SAPS  H20T 2345   7.432   2.378   3.869 -3.4097  0.0075 -1.8285
   18SAPS   C33 2346   6.457   3.171   2.690  0.7888 -0.3239  0.4903
   18SAPS   H3X 2347   6.563   3.137   2.688  0.8684 -0.0330 -0.3445
   18SAPS   H3Y 2348   6.388   3.098   2.643  3.2670 -1.3857 -1.7353
   18SAPS   C34 2349   6.415   3.197   2.837  0.0955  0.5841 -0.0770
   18SAPS   H4X 2350   6.317   3.250   2.825 -0.3162 -0.3205 -0.8195
   18SAPS   H4Y 2351   6.485   3.274   2.876  2.6879 -1.6138 -0.1578
   18SAPS   C35 2352   6.392   3.068   2.921 -0.5878 -0.0841  0.1368
   18SAPS   H5X 2353   6.486   3.009   2.925 -1.3347 -1.6162 -2.3170
   18SAPS   H5Y 2354   6.327   2.993   2.871  1.0593 -0.7777 -1.0503
   18SAPS   C36 2355   6.339   3.116   3.050  0.0460 -0.4487  0.4475
   18SAPS   H6X 2356   6.236   3.152   3.029  0.6752 -0.1231 -2.4965
   18SAPS   H6Y 2357   6.404   3.202   3.077  1.3104 -0.9788 -0.8103
   18SAPS   C37 2358   6.332   3.021   3.171  0.2132  0.0049 -0.8834
   18SAPS   H7X 2359   6.430   2.982   3.207 -0.5512 -0.9431  0.2256
   18SAPS   H7Y 2360   6.263   2.940   3.139 -1.6745  0.3246  2.0144
   18SAPS   C38 2361   6.261   3.071   3.300  0.5001  0.0629 -0.1927
   18SAPS   H8X 2362   6.236   2.988   3.368 -0.3924  2.5035  2.6843
   18SAPS   H8Y 2363   6.166   3.126   3.285  0.1988 -0.5595 -0.6050
   18SAPS   C39 2364   6.354   3.174   3.378 -0.2090 -0.1887  0.5007
   18SAPS   H9X 2365   6.334   3.273   3.331  0.6575 -1.4287 -2.7124
   18SAPS   H9Y 2366   6.461   3.148   3.360 -0.5365 -0.5402 -1.0889
   18SAPS  C310 2367   6.330   3.163   3.529  0.2446 -0.0947 -0.2926
   18SAPS  H10X 2368   6.329   3.061   3.572  0.1982 -0.0754 -0.2481
   18SAPS  H10Y 2369   6.229   3.203   3.552  0.4983  0.0611  0.5868
   18SAPS  C311 2370   6.428   3.241   3.615  0.7403  1.1871  0.0296
   18SAPS  H11X 2371   6.441   3.343   3.573  1.5694  0.5424 -1.3328
   18SAPS  H11Y 2372   6.530   3.197   3.610  0.8469  1.1861  1.6766
   18SAPS  C312 2373   6.387   3.243   3.764 -0.1887 -0.8145  0.4836
   18SAPS  H12X 2374   6.480   3.266   3.821  0.8633 -2.0729 -0.6562
   18SAPS  H12Y 2375   6.358   3.141   3.796  0.4925 -1.1412  0.0968
   18SAPS  C313 2376   6.277   3.343   3.789  0.2710 -0.3614  0.8267
   18SAPS  H13X 2377   6.177   3.295   3.793 -0.6501  1.4926  3.7415
   18SAPS  H13Y 2378   6.283   3.411   3.702  1.9744 -0.9158  0.4755
   18SAPS  C314 2379   6.293   3.430   3.909  0.4614 -0.3041 -0.0456
   18SAPS  H14X 2380   6.377   3.500   3.891  0.9077 -0.5576  0.9698
   18SAPS  H14Y 2381   6.315   3.376   4.003  1.3328  0.2894  0.1093
   18SAPS  C315 2382   6.179   3.528   3.938  0.2985 -0.1889  0.3399
   18SAPS  H15X 2383   6.087   3.470   3.961  1.3246 -2.4684 -0.9489
   18SAPS  H15Y 2384   6.144   3.587   3.850  1.2707 -1.0528 -0.6550
   18SAPS  C316 2385   6.220   3.625   4.045 -0.1895 -0.6781  0.6136
   18SAPS  H16X 2386   6.296   3.592   4.119  0.1024  0.1451  0.6924
   18SAPS  H16Y 2387   6.132   3.664   4.101  0.9720 -0.8239  2.6565
   18SAPS  C317 2388   6.282   3.750   3.978  0.1522 -0.5817 -0.2714
   18SAPS  H17X 2389   6.203   3.808   3.925 -1.1367 -0.2869  1.8115
   18SAPS  H17Y 2390   6.359   3.706   3.912  0.8410 -0.8101  0.6581
   18SAPS  C318 2391   6.343   3.844   4.086 -0.0693  0.4591  0.2482
   18SAPS  H18X 2392   6.406   3.919   4.034  0.4777  0.3615  0.7539
   18SAPS  H18Y 2393   6.408   3.785   4.154 -1.0627  0.3299  1.1121
   18SAPS  H18Z 2394   6.262   3.881   4.152  0.4523  0.0721  1.1339
   19SAPS     N 2395   2.533   1.237   1.932 -0.4591 -0.1820 -0.2064
   19SAPS   HN1 2396   2.509   1.338   1.929 -1.0247 -0.3360 -1.6867
   19SAPS   HN2 2397   2.509   1.191   2.022 -0.6161 -2.7934 -1.4885
   19SAPS   HN3 2398   2.637   1.242   1.942 -0.5892  3.4221  0.9750
   19SAPS   C12 2399   2.491   1.163   1.811 -0.1644  0.5875  0.0279
   19SAPS  H12A 2400   2.384   1.153   1.819 -0.0009 -2.2086 -0.4565
   19SAPS   C13 2401   2.530   1.227   1.679  0.3793  0.1332 -0.3615
   19SAPS  O13A 2402   2.607   1.330   1.673  0.1060 -0.2282 -0.2729
   19SAPS  O13B 2403   2.486   1.182   1.572  0.1338  0.5166 -0.1640
   19SAPS   C11 2404   2.558   1.025   1.828  0.0456 -0.2644  0.0221
   19SAPS  H11A 2405   2.533   0.977   1.730  0.8580 -0.8964  0.1189
   19SAPS  H11B 2406   2.512   0.958   1.904  0.7422 -2.1200 -1.1259
   19SAPS     P 2407   2.805   0.944   1.780  0.1728 -0.4535  0.3752
   19SAPS   O13 2408   2.752   0.873   1.664 -0.1887  0.6524  0.0421
   19SAPS   O14 2409   2.921   1.030   1.766 -0.4483 -0.6013 -0.0363
   19SAPS   O12 2410   2.698   1.031   1.842 -0.0733 -0.5229 -0.4075
   19SAPS   O11 2411   2.827   0.845   1.895  0.1387 -0.1276 -0.5676
   19SAPS    C1 2412   2.944   0.763   1.902 -0.3823  0.7221  0.3707
   19SAPS    HA 2413   3.007   0.768   1.810  0.1606 -0.7581  0.6343
   19SAPS    HB 2414   3.012   0.798   1.982  0.9054  1.2806 -0.9169
   19SAPS    C2 2415   2.922   0.613   1.944 -0.3310  0.0352  0.1868
   19SAPS    HS 2416   2.853   0.572   1.867  0.1163 -0.7860  0.2041
   19SAPS   O21 2417   2.858   0.604   2.071  0.0542 -0.5779  0.1795
   19SAPS   C21 2418   2.830   0.489   2.122 -0.0219 -0.0405 -0.1992
   19SAPS   O22 2419   2.828   0.383   2.062  0.0201 -0.3739  0.0339
   19SAPS   C22 2420   2.790   0.503   2.270  0.4271 -0.7597 -0.0211
   19SAPS   H2R 2421   2.796   0.611   2.295 -2.6990 -0.7493  1.1915
   19SAPS   H2S 2422   2.681   0.480   2.270  0.0810  0.7435  0.1186
   19SAPS    C3 2423   3.055   0.528   1.938 -0.0345  0.8763 -0.1270
   19SAPS    HX 2424   3.089   0.547   1.834 -2.5855  1.1960 -0.9722
   19SAPS    HY 2425   3.033   0.419   1.947  2.0511  0.4021 -0.4052
   19SAPS   O31 2426   3.156   0.562   2.040  0.0827 -0.4071  0.7896
   19SAPS   C31 2427   3.252   0.649   2.019  0.6028  0.8032  0.4330
   19SAPS   O32 2428   3.274   0.705   1.913 -0.0532 -0.0336  0.2161
   19SAPS   C32 2429   3.335   0.668   2.148 -0.0984 -0.4541 -0.4702
   19SAPS   H2X 2430   3.421   0.599   2.163 -0.6966 -0.8531  1.3082
   19SAPS   H2Y 2431   3.267   0.651   2.234  0.7443 -2.8884 -0.2097
   19SAPS   C23 2432   2.876   0.420   2.361 -1.2339  0.7776  0.3012
   19SAPS   H3R 2433   2.984   0.439   2.349 -0.5999 -0.9111  2.6690
   19SAPS   H3S 2434   2.863   0.315   2.327 -0.5985  0.0497  2.2129
   19SAPS   C24 2435   2.845   0.430   2.516  0.2420  0.3632 -0.4852
   19SAPS   H4R 2436   2.759   0.364   2.542  1.2426 -0.2123  1.6070
   19SAPS   H4S 2437   2.798   0.529   2.535  0.0398 -0.1148  1.8408
   19SAPS   C25 2438   2.966   0.389   2.597  0.0561  0.6160 -0.6177
   19SAPS   H5R 2439   2.973   0.284   2.630  0.1527  0.4942 -1.0188
   19SAPS   C26 2440   3.059   0.475   2.646  0.2210  0.2616  0.3977
   19SAPS   H6R 2441   3.145   0.434   2.701 -0.6354 -0.9574  0.8838
   19SAPS   C27 2442   3.043   0.623   2.634 -0.2205 -0.6743 -0.2160
   19SAPS   H7R 2443   2.934   0.643   2.636 -0.1046  0.2914 -1.7476
   19SAPS   H7S 2444   3.060   0.651   2.528 -2.4889 -0.2850 -0.5309
   19SAPS   C28 2445   3.114   0.721   2.727  0.4449 -0.5458  0.2257
   19SAPS   H8R 2446   3.195   0.780   2.682 -0.5979  0.1357 -0.8087
   19SAPS   C29 2447   3.112   0.725   2.863 -0.3461 -0.4118 -0.0153
   19SAPS   H9R 2448   3.156   0.814   2.910 -0.3303 -0.0646 -0.6713
   19SAPS  C210 2449   3.026   0.641   2.954 -0.4233  0.1193  0.2184
   19SAPS  H10R 2450   3.053   0.663   3.059  0.9299 -1.0649  0.1479
   19SAPS  H10S 2451   3.050   0.535   2.932  0.9261  0.0033  2.0499
   19SAPS  C211 2452   2.877   0.659   2.927  0.1048  0.4500 -0.2396
   19SAPS  H11R 2453   2.851   0.690   2.825  0.6196  1.0558 -0.1938
   19SAPS  C212 2454   2.770   0.648   3.021 -0.3412 -0.4798  0.0853
   19SAPS  H12R 2455   2.672   0.674   2.978  0.8150  2.1053 -1.2352
   19SAPS  C213 2456   2.786   0.616   3.164  0.3520 -0.7413 -0.3352
   19SAPS  H13R 2457   2.783   0.712   3.220 -1.3197  0.1502 -1.8391
   19SAPS  H13S 2458   2.892   0.585   3.177  1.1638  0.8040 -2.5877
   19SAPS  C214 2459   2.689   0.517   3.213  0.7373  0.9722  0.6778
   19SAPS  H14R 2460   2.733   0.422   3.246 -1.2095  0.6271  2.5052
   19SAPS  C215 2461   2.561   0.527   3.259 -0.0324 -0.0789 -0.3226
   19SAPS  H15R 2462   2.508   0.434   3.284 -1.8882  1.4505  1.7966
   19SAPS  C216 2463   2.484   0.657   3.273 -0.2111 -0.1676 -0.5318
   19SAPS  H16R 2464   2.389   0.642   3.218  0.1424  1.6477 -1.7235
   19SAPS  H16S 2465   2.551   0.733   3.226 -1.3575  0.9804 -0.3580
   19SAPS  C217 2466   2.467   0.699   3.414  0.1423  0.0522 -0.1146
   19SAPS  H17R 2467   2.569   0.717   3.455  0.0067  1.3085 -0.2973
   19SAPS  H17S 2468   2.427   0.614   3.472  1.2461 -0.3513  0.0844
   19SAPS  C218 2469   2.375   0.817   3.428  0.5690  0.3090 -0.1224
   19SAPS  H18R 2470   2.277   0.786   3.385  1.0868 -0.6020 -0.6678
   19SAPS  H18S 2471   2.415   0.890   3.354  1.2527  0.9894  0.8893
   19SAPS  C219 2472   2.333   0.865   3.562  0.5620  0.4026 -0.3606
   19SAPS  H19R 2473   2.316   0.780   3.632  0.6848  1.3735  0.8777
   19SAPS  H19S 2474   2.231   0.909   3.555  0.6958  0.5390 -1.6484
   19SAPS  C220 2475   2.426   0.966   3.628  0.4616 -0.4444 -0.2230
   19SAPS  H20R 2476   2.437   1.058   3.566 -0.2643 -0.4056 -0.3128
   19SAPS  H20S 2477   2.525   0.924   3.654  0.7515 -0.1295 -0.7941
   19SAPS  H20T 2478   2.373   1.004   3.718 -1.7142 -1.9083 -0.7869
   19SAPS   C33 2479   3.400   0.811   2.162  0.0375 -0.4605  0.7422
   19SAPS   H3X 2480   3.313   0.878   2.144 -0.2129 -0.4781  1.8328
   19SAPS   H3Y 2481   3.474   0.846   2.087 -1.1199 -0.4630 -0.4533
   19SAPS   C34 2482   3.470   0.834   2.295 -0.0855  1.2875 -0.3115
   19SAPS   H4X 2483   3.568   0.781   2.296 -0.1694  1.0978  1.3929
   19SAPS   H4Y 2484   3.413   0.810   2.387  0.8713  2.3931  0.6018
   19SAPS   C35 2485   3.498   0.987   2.329  0.3529  0.1555  0.0194
   19SAPS   H5X 2486   3.403   1.045   2.327  0.5458  0.4883  0.3502
   19SAPS   H5Y 2487   3.564   1.020   2.246  1.1231 -1.0768  0.1141
   19SAPS   C36 2488   3.563   1.019   2.465 -0.3687 -0.4340  0.7923
   19SAPS   H6X 2489   3.594   1.125   2.463  0.1573 -0.5885  0.3797
   19SAPS   H6Y 2490   3.653   0.953   2.472 -1.0588 -1.3974  0.8504
   19SAPS   C37 2491   3.478   0.998   2.595 -1.0921 -0.1926  0.1333
   19SAPS   H7X 2492   3.473   0.888   2.606 -0.8096 -0.4654 -2.0510
   19SAPS   H7Y 2493   3.376   1.040   2.583 -0.9477  0.3200  0.6465
   19SAPS   C38 2494   3.535   1.081   2.714  0.1342 -0.4498 -0.4981
   19SAPS   H8X 2495   3.541   1.184   2.672 -0.3576  0.0439  0.6022
   19SAPS   H8Y 2496   3.638   1.047   2.737  0.6917  3.4071  4.1441
   19SAPS   C39 2497   3.439   1.098   2.839  0.2594  0.4944 -0.1448
   19SAPS   H9X 2498   3.338   1.123   2.801  0.2949  1.2986  0.2644
   19SAPS   H9Y 2499   3.472   1.184   2.901  0.7820 -0.1357  0.4671
   19SAPS  C310 2500   3.448   0.975   2.930  0.1991  0.8917 -0.3262
   19SAPS  H10X 2501   3.552   0.985   2.968  0.3314  2.2846 -0.9776
   19SAPS  H10Y 2502   3.442   0.881   2.871 -0.3180  0.3595  0.5658
   19SAPS  C311 2503   3.347   0.978   3.043 -0.2889  0.3052  0.7488
   19SAPS  H11X 2504   3.245   0.987   3.000  0.3671  0.7978 -0.8026
   19SAPS  H11Y 2505   3.362   1.068   3.106  2.1495 -0.0108  0.7208
   19SAPS  C312 2506   3.355   0.846   3.125  0.3446  0.5058 -0.3796
   19SAPS  H12X 2507   3.454   0.828   3.173 -0.5902  1.2388  2.0266
   19SAPS  H12Y 2508   3.336   0.758   3.061  1.8586  0.3863 -0.6975
   19SAPS  C313 2509   3.257   0.847   3.242 -0.0082  0.8988  0.1603
   19SAPS  H13X 2510   3.157   0.881   3.209 -0.3264  1.3370  1.5355
   19SAPS  H13Y 2511   3.291   0.937   3.297 -0.8055  0.6907  1.0149
   19SAPS  C314 2512   3.265   0.721   3.338 -0.2462 -0.0988  0.3976
   19SAPS  H14X 2513   3.374   0.706   3.356 -0.2421 -2.3135 -1.0759
   19SAPS  H14Y 2514   3.226   0.628   3.291  0.1970 -1.9322  3.4069
   19SAPS  C315 2515   3.199   0.732   3.474  0.6716  0.4394 -0.0899
   19SAPS  H15X 2516   3.231   0.833   3.506  0.6730 -0.4655  3.1350
   19SAPS  H15Y 2517   3.244   0.664   3.550 -0.9144 -0.7605 -0.1599
   19SAPS  C316 2518   3.043   0.722   3.485  0.0252  0.0042  0.1754
   19SAPS  H16X 2519   3.007   0.619   3.463  0.4807 -0.9154  3.3353
   19SAPS  H16Y 2520   3.000   0.785   3.403 -1.7425 -0.7733  0.4559
   19SAPS  C317 2521   2.982   0.785   3.611 -0.4976 -0.4514  1.3250
   19SAPS  H17X 2522   2.883   0.832   3.593 -0.3223 -0.3966  0.4461
   19SAPS  H17Y 2523   3.051   0.863   3.650  1.1792  0.1219 -2.3114
   19SAPS  C318 2524   2.952   0.674   3.708  0.3413 -0.5607 -0.3944
   19SAPS  H18X 2525   2.901   0.717   3.797  1.7943 -1.1548  0.7609
   19SAPS  H18Y 2526   3.047   0.628   3.742  0.1717 -0.8751 -0.3421
   19SAPS  H18Z 2527   2.888   0.594   3.665 -0.8073  0.8514 -1.3978
   20SAPS     N 2528   4.474   0.703   1.188  0.5230 -0.3454  0.1630
   20SAPS   HN1 2529   4.468   0.602   1.166 -0.3878 -0.1404 -0.6283
   20SAPS   HN2 2530   4.486   0.757   1.100  1.4520  0.1349  0.5733
   20SAPS   HN3 2531   4.558   0.706   1.249  1.3104  0.2122 -0.9280
   20SAPS   C12 2532   4.353   0.749   1.258  0.4235  0.4669 -0.1381
   20SAPS  H12A 2533   4.376   0.853   1.277  0.8151  0.0432  1.9789
   20SAPS   C13 2534   4.220   0.725   1.174  0.3451  0.0355  0.4557
   20SAPS  O13A 2535   4.237   0.675   1.062  0.3184  0.2394  0.4514
   20SAPS  O13B 2536   4.106   0.743   1.224 -0.1891 -0.3705 -0.6143
   20SAPS   C11 2537   4.348   0.670   1.398  0.6821  1.1171  0.2179
   20SAPS  H11A 2538   4.345   0.562   1.370 -1.6159  1.7576 -2.4662
   20SAPS  H11B 2539   4.249   0.694   1.443  0.2779 -0.5629  0.3051
   20SAPS     P 2540   4.461   0.797   1.600 -0.1579 -0.5935  0.1401
   20SAPS   O13 2541   4.597   0.846   1.633  0.1184  0.1490 -0.1125
   20SAPS   O14 2542   4.365   0.907   1.552 -0.0601  0.1394  0.0696
   20SAPS   O12 2543   4.455   0.686   1.490 -0.0764  0.2980  0.2309
   20SAPS   O11 2544   4.399   0.726   1.729 -0.0222  0.1109  0.0291
   20SAPS    C1 2545   4.389   0.579   1.729  0.8372 -0.2957 -0.2987
   20SAPS    HA 2546   4.336   0.537   1.641  0.5357 -1.6355  0.4908
   20SAPS    HB 2547   4.490   0.533   1.722 -0.2016 -2.4503 -2.4539
   20SAPS    C2 2548   4.318   0.529   1.856 -0.2294  0.3136 -1.3159
   20SAPS    HS 2549   4.211   0.557   1.854 -0.1371  0.7213 -0.7690
   20SAPS   O21 2550   4.377   0.587   1.976  0.1322 -0.4414 -0.5077
   20SAPS   C21 2551   4.290   0.635   2.063 -0.4526  0.1813  0.5475
   20SAPS   O22 2552   4.172   0.641   2.051 -0.1978 -0.2783 -0.4019
   20SAPS   C22 2553   4.363   0.677   2.192  0.7434  0.1953  0.4137
   20SAPS   H2R 2554   4.469   0.645   2.197  0.6447 -0.0881  0.8047
   20SAPS   H2S 2555   4.360   0.787   2.205 -0.8499  0.3080 -0.6273
   20SAPS    C3 2556   4.325   0.372   1.868 -0.5811  0.2800 -0.0170
   20SAPS    HX 2557   4.429   0.335   1.874 -0.9689 -0.7490  0.5916
   20SAPS    HY 2558   4.300   0.334   1.767  1.5501 -0.9452 -0.1262
   20SAPS   O31 2559   4.250   0.322   1.982 -0.5903  0.4630  0.2953
   20SAPS   C31 2560   4.116   0.329   1.963  0.1664 -0.4673  1.2841
   20SAPS   O32 2561   4.065   0.383   1.866  0.9456  0.1506  0.6673
   20SAPS   C32 2562   4.032   0.274   2.081  0.0225 -0.0049  0.8925
   20SAPS   H2X 2563   4.069   0.172   2.108  0.8504 -0.0476 -0.3121
   20SAPS   H2Y 2564   3.931   0.260   2.038  0.6177  0.6988 -0.7808
   20SAPS   C23 2565   4.299   0.608   2.314 -0.0804  0.3208  0.1566
   20SAPS   H3R 2566   4.294   0.501   2.286 -3.3841  0.4396 -0.0198
   20SAPS   H3S 2567   4.194   0.637   2.336 -0.2667 -0.8391  0.8850
   20SAPS   C24 2568   4.381   0.644   2.440  0.4567  0.1398  0.3098
   20SAPS   H4R 2569   4.373   0.755   2.446  2.4887  0.3333 -0.0104
   20SAPS   H4S 2570   4.490   0.628   2.425  0.2946 -0.9080  0.2077
   20SAPS   C25 2571   4.326   0.582   2.566  0.3459  0.3351  0.1364
   20SAPS   H5R 2572   4.236   0.632   2.607 -2.0030 -1.8111 -1.9989
   20SAPS   C26 2573   4.364   0.461   2.615  0.0333 -0.5922  0.6878
   20SAPS   H6R 2574   4.293   0.421   2.689 -0.0734  0.1620  1.0103
   20SAPS   C27 2575   4.466   0.375   2.554  0.3479  0.6285  0.1997
   20SAPS   H7R 2576   4.545   0.433   2.501  1.3815 -2.3170 -1.7501
   20SAPS   H7S 2577   4.410   0.312   2.481  2.3087  0.1315 -0.9502
   20SAPS   C28 2578   4.525   0.283   2.662 -0.0116  0.5821  0.6093
   20SAPS   H8R 2579   4.494   0.178   2.658  2.2846 -0.1601  0.8796
   20SAPS   C29 2580   4.608   0.318   2.766  0.1515  0.5061 -0.3802
   20SAPS   H9R 2581   4.661   0.235   2.815 -1.6339 -0.3094  0.2699
   20SAPS  C210 2582   4.658   0.455   2.801 -0.1775 -0.3994 -0.4056
   20SAPS  H10R 2583   4.631   0.473   2.908  2.1716  2.0468 -0.0960
   20SAPS  H10S 2584   4.606   0.535   2.744 -0.5183  0.3408  0.8834
   20SAPS  C211 2585   4.799   0.483   2.763  0.7102 -0.4418  1.0737
   20SAPS  H11R 2586   4.829   0.461   2.660 -0.5844  0.2286  0.5330
   20SAPS  C212 2587   4.893   0.535   2.851  0.0540 -0.1468  0.1612
   20SAPS  H12R 2588   4.997   0.538   2.815  0.2384  0.3073  0.7195
   20SAPS  C213 2589   4.874   0.572   2.994  0.0537  0.6473 -0.0078
   20SAPS  H13R 2590   4.898   0.475   3.042 -2.0260  0.1936  0.1715
   20SAPS  H13S 2591   4.769   0.594   3.021  0.7096  1.2855  2.2621
   20SAPS  C214 2592   4.959   0.684   3.047 -0.4222 -0.1059  0.6443
   20SAPS  H14R 2593   4.942   0.779   2.993  0.5839 -1.5823 -2.5453
   20SAPS  C215 2594   5.036   0.687   3.160 -0.4690  1.0131 -0.0436
   20SAPS  H15R 2595   5.104   0.771   3.180  1.7889 -0.7606  0.1210
   20SAPS  C216 2596   5.078   0.568   3.243 -0.6524 -0.4660  0.2130
   20SAPS  H16R 2597   5.185   0.584   3.271 -0.9235  1.7405  0.2074
   20SAPS  H16S 2598   5.079   0.476   3.182  0.7504 -1.4138  1.5982
   20SAPS  C217 2599   5.001   0.547   3.375 -0.1629  0.2220  0.0880
   20SAPS  H17R 2600   5.028   0.450   3.422  1.2555  0.7091  0.3092
   20SAPS  H17S 2601   4.894   0.530   3.351 -0.1133 -0.3254  0.2456
   20SAPS  C218 2602   4.999   0.668   3.471  0.1028  0.6283 -0.3865
   20SAPS  H18R 2603   4.964   0.759   3.418  1.5159  1.4910  0.1231
   20SAPS  H18S 2604   5.101   0.660   3.512  0.3953 -2.7826 -1.4564
   20SAPS  C219 2605   4.896   0.642   3.580  0.6231  0.2598  0.7906
   20SAPS  H19R 2606   4.926   0.706   3.665  1.8821  0.3868  0.2651
   20SAPS  H19S 2607   4.909   0.540   3.623 -2.0438 -1.0356 -1.1942
   20SAPS  C220 2608   4.750   0.666   3.534  0.3144 -0.3600  0.1649
   20SAPS  H20R 2609   4.686   0.660   3.624 -0.3586  0.0072 -0.2803
   20SAPS  H20S 2610   4.723   0.590   3.457 -0.7421  0.6648 -0.5202
   20SAPS  H20T 2611   4.734   0.761   3.479  2.1688  1.0664  1.9674
   20SAPS   C33 2612   4.049   0.365   2.206  0.7755  0.0835  0.6218
   20SAPS   H3X 2613   4.007   0.467   2.199 -2.3370 -1.0396  1.2881
   20SAPS   H3Y 2614   4.154   0.382   2.238  0.0408 -0.0501  3.3600
   20SAPS   C34 2615   3.973   0.295   2.320 -0.6998  0.7691  0.0890
   20SAPS   H4X 2616   4.038   0.214   2.360 -0.0620  0.8135 -0.8234
   20SAPS   H4Y 2617   3.879   0.257   2.275 -1.1341 -0.5934  1.9923
   20SAPS   C35 2618   3.947   0.391   2.436  0.1922  0.2821 -0.3480
   20SAPS   H5X 2619   3.888   0.477   2.398  0.7347  0.9487  0.3075
   20SAPS   H5Y 2620   4.040   0.441   2.468 -0.1390 -0.6652  2.2892
   20SAPS   C36 2621   3.880   0.330   2.555 -0.8014 -0.0254  0.5502
   20SAPS   H6X 2622   3.834   0.238   2.513  1.5969 -0.8039 -0.5745
   20SAPS   H6Y 2623   3.808   0.405   2.594  0.2283  1.5602 -0.4562
   20SAPS   C37 2624   3.978   0.292   2.666 -0.2144 -0.0766 -0.1850
   20SAPS   H7X 2625   4.043   0.374   2.701  0.3327 -0.7229  0.3400
   20SAPS   H7Y 2626   4.061   0.229   2.629  2.0162  3.2197 -1.2286
   20SAPS   C38 2627   3.907   0.234   2.791 -0.2147  0.1740 -0.1495
   20SAPS   H8X 2628   3.831   0.155   2.771  0.7373 -0.8367  0.0671
   20SAPS   H8Y 2629   3.859   0.315   2.849  0.7496  0.5957  0.0714
   20SAPS   C39 2630   4.012   0.169   2.886 -0.0365 -0.3081 -0.3191
   20SAPS   H9X 2631   4.068   0.257   2.925 -1.5191  0.3177  0.4658
   20SAPS   H9Y 2632   4.083   0.101   2.835  0.0299 -1.9620  1.8256
   20SAPS  C310 2633   3.959   0.101   3.015 -0.4267  0.7851  0.2845
   20SAPS  H10X 2634   4.038   0.046   3.070 -0.3356  0.9171  0.2860
   20SAPS  H10Y 2635   3.865   0.047   2.991  0.9798 -0.6236 -2.4637
   20SAPS  C311 2636   3.916   0.209   3.120 -0.1887 -0.2451 -0.4094
   20SAPS  H11X 2637   3.834   0.277   3.089 -1.9148 -0.7323  2.6617
   20SAPS  H11Y 2638   4.001   0.281   3.121  1.3875 -2.0315 -0.7064
   20SAPS  C312 2639   3.874   0.146   3.249  0.2465 -0.4320  0.3624
   20SAPS  H12X 2640   3.954   0.075   3.278  0.0365 -2.1586 -2.8212
   20SAPS  H12Y 2641   3.793   0.072   3.230 -0.4069  0.1016  0.9931
   20SAPS  C313 2642   3.837   0.251   3.362  0.0148  0.6938  0.3727
   20SAPS  H13X 2643   3.772   0.328   3.315  0.0364  1.9122  2.2376
   20SAPS  H13Y 2644   3.934   0.293   3.397 -0.5518  0.1838  2.6721
   20SAPS  C314 2645   3.750   0.184   3.472 -0.2695  0.2771 -0.8738
   20SAPS  H14X 2646   3.673   0.118   3.426  2.0104 -0.9030 -3.3104
   20SAPS  H14Y 2647   3.717   0.264   3.541 -0.8786 -2.3204  2.0825
   20SAPS  C315 2648   3.836   0.085   3.551 -0.3946 -0.3985 -0.2300
   20SAPS  H15X 2649   3.944   0.109   3.557 -0.3113 -1.0206  1.0011
   20SAPS  H15Y 2650   3.826  -0.015   3.503  1.7895 -0.5794 -0.4224
   20SAPS  C316 2651   3.781   0.055   3.694  0.3043  0.1721  0.0986
   20SAPS  H16X 2652   3.672   0.036   3.683  0.2620 -1.7419  2.7581
   20SAPS  H16Y 2653   3.792   0.151   3.747 -2.2871  1.6549 -1.7988
   20SAPS  C317 2654   3.857  -0.051   3.774 -0.0469  0.1257  0.6179
   20SAPS  H17X 2655   3.961  -0.018   3.794  0.5764 -1.5141  0.2465
   20SAPS  H17Y 2656   3.863  -0.141   3.709  1.4754 -0.2299  1.1870
   20SAPS  C318 2657   3.779  -0.097   3.901  0.2129 -0.2579  0.2733
   20SAPS  H18X 2658   3.727  -0.011   3.948 -0.1257 -1.1983  1.6667
   20SAPS  H18Y 2659   3.847  -0.135   3.980  0.1428  1.1274  1.0310
   20SAPS  H18Z 2660   3.709  -0.178   3.871 -0.2612  0.5718 -0.9471
   21CHL1    C3 2661   2.964   4.074   5.536 -0.6416  0.2211 -0.0026
   21CHL1    H3 2662   2.963   3.963   5.524  1.7876  0.1273  0.2413
   21CHL1    O3 2663   2.993   4.111   5.668  0.1450  0.0857 -0.5871
   21CHL1   H3' 2664   3.077   4.068   5.685  1.3422  2.8487  1.1466
   21CHL1    C4 2665   3.061   4.155   5.445  0.9080  0.0484 -0.4628
   21CHL1   H4A 2666   3.051   4.265   5.454  0.4568 -0.1072  1.3247
   21CHL1   H4B 2667   3.164   4.124   5.475  1.3126  1.2093 -0.6190
   21CHL1    C5 2668   3.023   4.098   5.312 -0.0109  0.6443 -0.0524
   21CHL1    C6 2669   3.113   4.028   5.243 -0.3166  0.2026  0.5750
   21CHL1    H6 2670   3.207   4.001   5.292 -0.7170 -3.5868 -0.4546
   21CHL1    C7 2671   3.098   3.978   5.100 -0.2038  0.4636  0.0795
   21CHL1   H7A 2672   3.198   3.983   5.053  0.9629 -2.7763  1.8591
   21CHL1   H7B 2673   3.062   3.873   5.095 -0.2961  0.5464 -4.0943
   21CHL1    C8 2674   2.991   4.069   5.038 -0.3325 -0.4001 -0.4307
   21CHL1    H8 2675   3.029   4.172   5.018  3.2672 -1.1482  1.6997
   21CHL1   C14 2676   2.957   4.000   4.906  0.2544  0.0023  0.7040
   21CHL1   H14 2677   2.923   3.897   4.930  0.3670 -0.0194  0.7736
   21CHL1   C15 2678   3.068   3.978   4.803  0.5261  0.0940  1.2878
   21CHL1  H15A 2679   3.106   4.082   4.805  2.8394 -0.7046  2.4459
   21CHL1  H15B 2680   3.155   3.917   4.835  1.7716  1.6962  1.0804
   21CHL1   C16 2681   2.993   3.933   4.674 -0.0965  0.0740 -0.1406
   21CHL1  H16A 2682   3.057   3.966   4.589  1.8438  0.4781  1.3928
   21CHL1  H16B 2683   2.985   3.823   4.661 -2.8806  0.2718 -0.6690
   21CHL1   C17 2684   2.846   3.977   4.687  0.0941 -0.2803  0.1520
   21CHL1   H17 2685   2.784   3.887   4.709 -2.0122  0.7450 -1.2865
   21CHL1   C13 2686   2.841   4.060   4.817  0.8262  0.7232  0.0491
   21CHL1   C18 2687   2.870   4.202   4.789 -0.0240 -0.4033  0.3051
   21CHL1  H18A 2688   2.780   4.247   4.742  1.1648  0.3050 -1.4085
   21CHL1  H18B 2689   2.887   4.264   4.879  0.2401  0.4882 -0.3497
   21CHL1  H18C 2690   2.956   4.220   4.721  1.3646  1.1995  2.3855
   21CHL1   C12 2691   2.710   4.051   4.890  0.3020  0.0328  0.3083
   21CHL1  H12A 2692   2.626   4.104   4.840  0.5946 -0.7026 -1.0232
   21CHL1  H12B 2693   2.685   3.943   4.893  2.3784 -0.5079  0.2574
   21CHL1   C11 2694   2.727   4.111   5.032 -0.6741 -0.1325  0.1782
   21CHL1  H11A 2695   2.743   4.220   5.016  3.4939 -0.3950  1.2185
   21CHL1  H11B 2696   2.643   4.087   5.100  0.8843 -2.0648  1.5489
   21CHL1    C9 2697   2.860   4.068   5.111  0.1962 -0.3510 -0.3204
   21CHL1    H9 2698   2.831   3.963   5.131 -1.7232  0.2355  0.1411
   21CHL1   C10 2699   2.888   4.126   5.258  0.5052 -0.2526  0.0463
   21CHL1   C19 2700   2.862   4.281   5.246  0.4594  0.5048 -0.6463
   21CHL1  H19A 2701   2.864   4.324   5.348  2.4864  1.6752 -1.1326
   21CHL1  H19B 2702   2.945   4.332   5.193  1.1436 -0.0724 -0.1433
   21CHL1  H19C 2703   2.762   4.303   5.203  0.1393 -0.5083 -0.4523
   21CHL1    C1 2704   2.780   4.077   5.364 -0.0813  0.0723 -0.0413
   21CHL1   H1A 2705   2.682   4.121   5.338  0.2260  1.2148  0.6687
   21CHL1   H1B 2706   2.774   3.966   5.360  0.3269  0.0231  0.6128
   21CHL1    C2 2707   2.815   4.121   5.505 -0.0267 -0.0033  0.4725
   21CHL1   H2A 2708   2.743   4.080   5.579  0.9233 -0.8286  0.9575
   21CHL1   H2B 2709   2.809   4.232   5.518  0.5112 -0.0191  0.8704
   21CHL1   C20 2710   2.794   4.038   4.555 -0.3895 -0.7033 -0.4017
   21CHL1   H20 2711   2.811   4.148   4.552 -4.4743  0.1055 -0.5612
   21CHL1   C21 2712   2.636   4.031   4.556  0.3633  0.7315  0.5698
   21CHL1  H21A 2713   2.596   4.090   4.471  2.1969  0.2115 -0.7110
   21CHL1  H21B 2714   2.612   4.079   4.653 -0.3694 -0.4783  1.0064
   21CHL1  H21C 2715   2.595   3.928   4.546 -1.7040  1.5948 -0.6205
   21CHL1   C22 2716   2.845   3.975   4.424 -0.0197  0.1682  0.1878
   21CHL1  H22A 2717   2.954   3.994   4.414  0.9103 -4.4899 -1.0584
   21CHL1  H22B 2718   2.833   3.865   4.434  1.4069  0.1542  2.3864
   21CHL1   C23 2719   2.778   4.027   4.296  0.0731  0.0224 -0.2815
   21CHL1  H23A 2720   2.669   4.020   4.314  0.2243  0.8306  1.1582
   21CHL1  H23B 2721   2.791   4.137   4.287 -1.3505  0.2692  0.3282
   21CHL1   C24 2722   2.822   3.958   4.160 -0.0427  0.0093 -0.0456
   21CHL1  H24A 2723   2.803   3.848   4.162  2.9004 -0.6751 -2.2980
   21CHL1  H24B 2724   2.775   4.005   4.072  1.8787  2.0300 -0.0617
   21CHL1   C25 2725   2.972   3.965   4.126  0.1132 -0.7356 -0.6592
   21CHL1   H25 2726   3.028   3.914   4.207 -0.0683  1.0257  0.6323
   21CHL1   C26 2727   2.978   3.910   3.986 -0.2618  0.8331 -0.1371
   21CHL1  H26A 2728   2.933   3.977   3.909 -1.6720  1.7066  1.3863
   21CHL1  H26B 2729   3.080   3.881   3.953 -0.9994  0.8781 -2.6713
   21CHL1  H26C 2730   2.916   3.818   3.985 -3.0508  2.5538  2.0934
   21CHL1   C27 2731   3.002   4.120   4.131  0.4520  0.8153  0.0222
   21CHL1  H27A 2732   3.080   4.152   4.058  0.6104  1.5228  0.5007
   21CHL1  H27B 2733   2.907   4.163   4.094 -2.0129 -4.0781 -0.1563
   21CHL1  H27C 2734   3.030   4.167   4.227 -2.1570  0.0044  1.2782
   22CHL1    C3 2735   2.907   3.455   5.658  0.2572 -0.3736  0.8054
   22CHL1    H3 2736   2.835   3.370   5.661 -1.5382  1.0578 -0.1023
   22CHL1    O3 2737   2.953   3.481   5.793  0.5911  0.7381 -0.1759
   22CHL1   H3' 2738   3.008   3.560   5.788  3.4330 -0.5306  4.7042
   22CHL1    C4 2739   3.028   3.414   5.572  0.0629 -0.4538 -0.0408
   22CHL1   H4A 2740   3.096   3.501   5.584  0.0301 -0.5308  0.7265
   22CHL1   H4B 2741   3.069   3.320   5.614  0.1529 -0.1647  0.5262
   22CHL1    C5 2742   2.990   3.410   5.424 -0.0884 -0.3603 -0.6889
   22CHL1    C6 2743   3.010   3.301   5.354 -0.4941  0.2284 -0.5171
   22CHL1    H6 2744   3.072   3.224   5.402 -0.8508  1.2446  1.7361
   22CHL1    C7 2745   2.973   3.287   5.208 -0.3953 -0.0745 -0.0992
   22CHL1   H7A 2746   3.046   3.222   5.154 -0.8976 -0.0056 -0.8784
   22CHL1   H7B 2747   2.879   3.228   5.208  0.1147 -0.9110 -0.1670
   22CHL1    C8 2748   2.944   3.413   5.135  0.0859  0.6661  0.0426
   22CHL1    H8 2749   3.042   3.463   5.119  0.9441 -0.6141  1.0935
   22CHL1   C14 2750   2.880   3.381   5.006 -0.3208  0.0426  0.2689
   22CHL1   H14 2751   2.787   3.325   5.028 -0.0146 -0.1195  1.2281
   22CHL1   C15 2752   2.965   3.296   4.904  0.8679  0.1965 -0.3473
   22CHL1  H15A 2753   3.066   3.342   4.892  1.3564 -0.4428  1.0884
   22CHL1  H15B 2754   2.966   3.192   4.942 -3.9662  0.0530 -0.0500
   22CHL1   C16 2755   2.895   3.325   4.771 -0.5451  0.5144  0.2123
   22CHL1  H16A 2756   2.962   3.336   4.683 -4.0845 -0.9867 -2.9314
   22CHL1  H16B 2757   2.828   3.240   4.746  1.3455 -0.5524 -1.4891
   22CHL1   C17 2758   2.794   3.435   4.792  0.3019 -0.4008  0.0979
   22CHL1   H17 2759   2.695   3.394   4.822  0.1904  0.2440  0.6096
   22CHL1   C13 2760   2.840   3.505   4.926 -0.1165  0.6095 -0.7370
   22CHL1   C18 2761   2.964   3.585   4.879  0.7288  0.3462  0.2611
   22CHL1  H18A 2762   2.935   3.666   4.808  1.4013 -0.7723 -1.3576
   22CHL1  H18B 2763   3.014   3.630   4.967  1.1221  1.1589 -0.3559
   22CHL1  H18C 2764   3.039   3.528   4.821 -0.4106  0.7095 -1.6768
   22CHL1   C12 2765   2.742   3.586   5.010 -0.2973 -0.8854  0.3651
   22CHL1  H12A 2766   2.724   3.684   4.960  3.1430 -0.1482  0.2977
   22CHL1  H12B 2767   2.647   3.533   5.030 -1.6465  0.5984 -1.6209
   22CHL1   C11 2768   2.796   3.629   5.147 -0.7438  0.7794 -0.0448
   22CHL1  H11A 2769   2.889   3.689   5.136 -1.1678  1.2625 -1.0884
   22CHL1  H11B 2770   2.722   3.681   5.211  1.2896 -0.4966  3.6530
   22CHL1    C9 2771   2.849   3.499   5.219  0.2164 -0.8072 -0.1855
   22CHL1    H9 2772   2.758   3.437   5.235 -1.0136  0.5024 -1.7880
   22CHL1   C10 2773   2.914   3.530   5.360  0.1917  0.5004  0.0618
   22CHL1   C19 2774   3.027   3.632   5.345  0.0539 -0.4168 -0.3600
   22CHL1  H19A 2775   3.093   3.599   5.262  1.5501  0.6609  0.3588
   22CHL1  H19B 2776   2.982   3.728   5.313 -0.8759 -1.2380 -1.6189
   22CHL1  H19C 2777   3.087   3.655   5.435 -1.2454  4.5949 -0.4814
   22CHL1    C1 2778   2.796   3.568   5.456 -0.2518 -0.2034  0.2851
   22CHL1   H1A 2779   2.757   3.667   5.423 -0.7166 -0.1166  1.0678
   22CHL1   H1B 2780   2.707   3.502   5.443 -0.7793  0.1416  1.8864
   22CHL1    C2 2781   2.829   3.576   5.601 -0.4071  0.3464 -0.6277
   22CHL1   H2A 2782   2.737   3.581   5.661 -0.2634 -1.8315 -0.1397
   22CHL1   H2B 2783   2.889   3.669   5.611  1.2812 -0.6564 -0.8245
   22CHL1   C20 2784   2.768   3.516   4.668  0.7752 -0.2301  0.3729
   22CHL1   H20 2785   2.868   3.551   4.634  0.7220 -1.1590 -0.8152
   22CHL1   C21 2786   2.684   3.639   4.687 -0.0523  0.3766 -0.1153
   22CHL1  H21A 2787   2.731   3.712   4.756  0.9833 -0.5827  0.2373
   22CHL1  H21B 2788   2.584   3.616   4.730 -0.5384  2.0003 -0.3312
   22CHL1  H21C 2789   2.673   3.699   4.595 -0.3472  1.0187  0.3338
   22CHL1   C22 2790   2.698   3.441   4.554  0.0877  0.1406 -0.2778
   22CHL1  H22A 2791   2.736   3.339   4.532  1.8687  0.8796 -0.7843
   22CHL1  H22B 2792   2.601   3.416   4.601  0.5049  1.8350  1.6518
   22CHL1   C23 2793   2.664   3.493   4.412 -0.3630 -0.4881  0.6546
   22CHL1  H23A 2794   2.599   3.583   4.421  0.1774 -0.2001  1.8260
   22CHL1  H23B 2795   2.760   3.535   4.375  0.5223 -0.5999  2.7264
   22CHL1   C24 2796   2.604   3.394   4.322  0.2852 -0.4587 -0.0836
   22CHL1  H24A 2797   2.675   3.321   4.277 -0.9237 -1.3673 -0.6060
   22CHL1  H24B 2798   2.533   3.341   4.389  2.3446  0.5078  3.0513
   22CHL1   C25 2799   2.523   3.454   4.204 -0.8036 -0.4546 -0.2026
   22CHL1   H25 2800   2.487   3.372   4.138 -0.5802 -0.4325 -0.3548
   22CHL1   C26 2801   2.397   3.529   4.245  0.2928  0.5311  0.4254
   22CHL1  H26A 2802   2.355   3.582   4.156  1.6522 -0.3539 -0.7885
   22CHL1  H26B 2803   2.315   3.455   4.258  0.4273 -0.1134 -1.9267
   22CHL1  H26C 2804   2.408   3.590   4.337  0.4125 -1.0632  1.4991
   22CHL1   C27 2805   2.617   3.524   4.101  0.2232 -0.3301 -0.0843
   22CHL1  H27A 2806   2.549   3.532   4.013 -0.5227 -1.6133  0.3507
   22CHL1  H27B 2807   2.636   3.625   4.143 -0.8109 -0.1922  0.0830
   22CHL1  H27C 2808   2.708   3.472   4.065  0.1400 -0.7613  0.3170
   23CHL1    C3 2809   2.430   3.838   5.516 -0.5122 -0.4970 -0.3263
   23CHL1    H3 2810   2.541   3.829   5.505 -0.5239  0.6558 -1.7021
   23CHL1    O3 2811   2.389   3.917   5.631 -0.7677 -0.4222 -0.1771
   23CHL1   H3' 2812   2.302   3.953   5.611 -1.3374 -1.2933  0.6254
   23CHL1    C4 2813   2.378   3.912   5.396  0.6214 -0.2906 -0.9543
   23CHL1   H4A 2814   2.282   3.959   5.428  1.6352  0.0107  1.9112
   23CHL1   H4B 2815   2.444   4.001   5.394  0.8622 -0.4042  0.7654
   23CHL1    C5 2816   2.374   3.840   5.266 -0.8619  0.5347  0.3198
   23CHL1    C6 2817   2.425   3.894   5.149  0.8690 -0.7070 -0.2835
   23CHL1    H6 2818   2.462   3.997   5.141  1.9418 -0.8142  2.4627
   23CHL1    C7 2819   2.419   3.814   5.024  0.1846  0.5996  0.0781
   23CHL1   H7A 2820   2.388   3.880   4.940  0.5797  0.0123 -0.5357
   23CHL1   H7B 2821   2.513   3.771   4.981 -1.5499 -0.9532 -2.4692
   23CHL1    C8 2822   2.314   3.699   5.024 -0.3351 -0.4353  0.2785
   23CHL1    H8 2823   2.215   3.750   5.022  0.9196  2.1379 -0.7064
   23CHL1   C14 2824   2.333   3.614   4.900 -0.8809 -0.6649  0.6903
   23CHL1   H14 2825   2.434   3.570   4.903 -1.3951 -2.0963 -0.9338
   23CHL1   C15 2826   2.327   3.682   4.759  0.1233 -0.1746  0.1311
   23CHL1  H15A 2827   2.241   3.751   4.744 -0.7573 -1.5317 -1.4039
   23CHL1  H15B 2828   2.419   3.743   4.751 -1.0360  2.0182  2.2147
   23CHL1   C16 2829   2.297   3.566   4.663  0.5825 -0.7781  0.2815
   23CHL1  H16A 2830   2.198   3.584   4.615  0.4347 -0.6164  0.6371
   23CHL1  H16B 2831   2.365   3.553   4.576 -0.2237 -3.1790 -0.0666
   23CHL1   C17 2832   2.283   3.435   4.749 -0.0627 -0.8239  0.3356
   23CHL1   H17 2833   2.386   3.392   4.755 -0.5464 -1.9976  0.4826
   23CHL1   C13 2834   2.244   3.488   4.889 -0.3024  0.7910 -0.1522
   23CHL1   C18 2835   2.093   3.525   4.875 -0.1277 -0.5639 -0.2511
   23CHL1  H18A 2836   2.073   3.588   4.965  0.6320  0.0966 -0.5347
   23CHL1  H18B 2837   2.075   3.596   4.791  0.8370 -0.6412 -0.5339
   23CHL1  H18C 2838   2.024   3.439   4.868  0.1051 -0.8048  0.3381
   23CHL1   C12 2839   2.280   3.404   5.014  0.5374 -0.2488 -0.6471
   23CHL1  H12A 2840   2.225   3.308   5.019  2.3748 -1.3604 -0.6937
   23CHL1  H12B 2841   2.386   3.371   5.003  1.4349  2.3524 -0.4553
   23CHL1   C11 2842   2.261   3.483   5.141 -0.0280  0.5074 -0.2230
   23CHL1  H11A 2843   2.153   3.499   5.162  0.2869  2.0938  0.3038
   23CHL1  H11B 2844   2.286   3.408   5.219 -2.9872 -2.5843 -1.9670
   23CHL1    C9 2845   2.332   3.615   5.150 -1.0018  0.3400 -1.2233
   23CHL1    H9 2846   2.441   3.593   5.150 -1.3674 -1.7008 -1.4853
   23CHL1   C10 2847   2.315   3.697   5.281  0.2881 -0.5082  0.1525
   23CHL1   C19 2848   2.164   3.716   5.307 -1.4322  0.4783 -0.4055
   23CHL1  H19A 2849   2.150   3.790   5.389  1.1734 -1.8879  2.3738
   23CHL1  H19B 2850   2.115   3.744   5.211  0.1107 -0.5991 -1.5462
   23CHL1  H19C 2851   2.115   3.623   5.342  2.6892 -2.3095 -1.2988
   23CHL1    C1 2852   2.381   3.623   5.402  0.9410  0.4601 -0.1875
   23CHL1   H1A 2853   2.320   3.532   5.424 -2.0385  2.2993 -0.2650
   23CHL1   H1B 2854   2.486   3.590   5.387  0.4300 -2.3912  1.6918
   23CHL1    C2 2855   2.368   3.702   5.536  0.1581  0.3061  0.2543
   23CHL1   H2A 2856   2.419   3.638   5.610  2.4374 -0.0721 -1.5503
   23CHL1   H2B 2857   2.258   3.715   5.551 -0.2136  1.3678 -2.6018
   23CHL1   C20 2858   2.209   3.324   4.673  0.7391  0.9515  0.3552
   23CHL1   H20 2859   2.102   3.350   4.654 -0.0563 -1.0457  1.7331
   23CHL1   C21 2860   2.194   3.206   4.772  0.3415  0.0823  0.5102
   23CHL1  H21A 2861   2.293   3.196   4.821  0.1439 -0.7339  0.7732
   23CHL1  H21B 2862   2.174   3.109   4.721  1.6166 -0.1922  0.4891
   23CHL1  H21C 2863   2.112   3.228   4.844 -0.1763  0.8447 -0.2941
   23CHL1   C22 2864   2.268   3.283   4.538 -0.0709 -0.1595  0.6127
   23CHL1  H22A 2865   2.264   3.370   4.468 -2.2690 -1.6429 -1.2567
   23CHL1  H22B 2866   2.376   3.264   4.556  0.7768  2.8259 -0.5667
   23CHL1   C23 2867   2.198   3.175   4.456  0.6487 -0.3067  0.8781
   23CHL1  H23A 2868   2.186   3.084   4.519 -0.5799  0.0064  1.1301
   23CHL1  H23B 2869   2.094   3.212   4.441  1.0272  2.1178  3.5810
   23CHL1   C24 2870   2.270   3.131   4.326 -0.2549  0.7583  0.0884
   23CHL1  H24A 2871   2.279   3.217   4.256 -0.0323  0.0101 -0.8260
   23CHL1  H24B 2872   2.376   3.107   4.345 -0.1036  0.5009 -1.0002
   23CHL1   C25 2873   2.202   3.019   4.253  0.1976 -0.2469  0.7323
   23CHL1   H25 2874   2.092   3.032   4.257  0.3619  0.9989  2.2281
   23CHL1   C26 2875   2.240   3.019   4.104  0.5585  0.7322 -0.4553
   23CHL1  H26A 2876   2.345   2.982   4.099  0.8928  1.4797  0.7230
   23CHL1  H26B 2877   2.180   2.943   4.050 -2.2733  1.6570  1.1827
   23CHL1  H26C 2878   2.234   3.120   4.060  1.0321  1.1004  0.3007
   23CHL1   C27 2879   2.234   2.882   4.304  0.2844 -0.7007 -0.4274
   23CHL1  H27A 2880   2.144   2.825   4.272  1.1593 -1.8491 -0.9303
   23CHL1  H27B 2881   2.324   2.833   4.262 -0.3426 -2.9800  0.7091
   23CHL1  H27C 2882   2.229   2.871   4.415 -2.9583 -2.2746 -0.5942
   24CHL1    C3 2883   3.051   4.739   5.346 -0.1990 -0.2217  0.7248
   24CHL1    H3 2884   2.973   4.818   5.343 -0.5415 -0.4999  1.5979
   24CHL1    O3 2885   3.093   4.725   5.476 -0.0192 -0.2343  0.3801
   24CHL1   H3' 2886   3.143   4.644   5.472 -2.4104 -1.8050  0.5671
   24CHL1    C4 2887   2.985   4.602   5.306 -0.3305  0.7675  0.3280
   24CHL1   H4A 2888   3.066   4.526   5.318 -1.5221 -0.3223  1.9569
   24CHL1   H4B 2889   2.901   4.572   5.372 -0.8209  0.7503 -0.2951
   24CHL1    C5 2890   2.940   4.616   5.159  0.1536 -0.7933 -0.0023
   24CHL1    C6 2891   2.807   4.592   5.126 -0.2322 -0.5145  0.7882
   24CHL1    H6 2892   2.737   4.566   5.207  0.7570 -1.2326  1.4307
   24CHL1    C7 2893   2.760   4.610   4.981 -0.0321 -0.6406 -0.1961
   24CHL1   H7A 2894   2.695   4.524   4.952 -1.4936  0.3699 -0.0152
   24CHL1   H7B 2895   2.686   4.693   4.977  0.5240 -0.1374 -0.1309
   24CHL1    C8 2896   2.875   4.613   4.875  0.2497 -0.7544 -0.6730
   24CHL1    H8 2897   2.912   4.509   4.869  1.6986 -0.2992 -0.0537
   24CHL1   C14 2898   2.821   4.649   4.733 -0.4446 -0.0298 -1.1506
   24CHL1   H14 2899   2.801   4.759   4.739  3.3503  0.7268  1.6739
   24CHL1   C15 2900   2.703   4.576   4.672 -0.4109  0.3596 -0.2786
   24CHL1  H15A 2901   2.725   4.470   4.699 -0.6298  1.0832  3.1428
   24CHL1  H15B 2902   2.600   4.606   4.701 -0.9517 -0.3193 -1.3831
   24CHL1   C16 2903   2.713   4.598   4.527  0.2699  0.1571  0.4915
   24CHL1  H16A 2904   2.701   4.498   4.480  1.8662  0.1645 -0.0167
   24CHL1  H16B 2905   2.630   4.661   4.489  1.1140  1.2630  0.3994
   24CHL1   C17 2906   2.846   4.677   4.494 -0.0070  0.4232 -0.4954
   24CHL1   H17 2907   2.820   4.785   4.497 -3.4944 -0.2555 -1.5997
   24CHL1   C13 2908   2.928   4.658   4.625 -0.9007  0.7260 -0.0478
   24CHL1   C18 2909   2.991   4.518   4.617 -0.2248  0.4164 -0.2342
   24CHL1  H18A 2910   3.086   4.529   4.560  1.1859  1.0538  2.1120
   24CHL1  H18B 2911   3.022   4.497   4.722  0.1652 -0.6391 -0.5433
   24CHL1  H18C 2912   2.921   4.440   4.580 -1.3768 -0.5885  3.6348
   24CHL1   C12 2913   3.032   4.767   4.666  0.4279  0.5488  0.8170
   24CHL1  H12A 2914   3.118   4.764   4.595 -0.1155 -1.6996  0.1796
   24CHL1  H12B 2915   2.975   4.862   4.661 -0.7338 -0.1585  0.2159
   24CHL1   C11 2916   3.093   4.734   4.798  0.4440  0.6864 -0.1018
   24CHL1  H11A 2917   3.160   4.646   4.790 -0.6663 -0.1364 -0.6042
   24CHL1  H11B 2918   3.156   4.820   4.830 -0.0648  1.1176 -0.2527
   24CHL1    C9 2919   2.984   4.710   4.916  0.2480  0.1156  0.2688
   24CHL1    H9 2920   2.935   4.809   4.929 -2.1608 -0.6628 -1.9739
   24CHL1   C10 2921   3.042   4.665   5.053 -0.0885  0.5645 -0.2348
   24CHL1   C19 2922   3.137   4.540   5.041  0.7349  0.6745 -0.0065
   24CHL1  H19A 2923   3.215   4.551   4.963 -1.0440 -0.7096 -2.1044
   24CHL1  H19B 2924   3.202   4.525   5.130  0.2447  2.4147  0.6837
   24CHL1  H19C 2925   3.079   4.447   5.021  0.4745  1.0047 -0.8330
   24CHL1    C1 2926   3.116   4.787   5.110 -0.0549  0.2225  0.5717
   24CHL1   H1A 2927   3.204   4.814   5.048 -0.8877 -1.9384 -1.7009
   24CHL1   H1B 2928   3.046   4.873   5.104  0.0651  0.2629 -0.4561
   24CHL1    C2 2929   3.165   4.781   5.260 -0.2633  0.2606 -0.5295
   24CHL1   H2A 2930   3.198   4.879   5.300  0.1550 -0.4646  0.9838
   24CHL1   H2B 2931   3.246   4.705   5.265 -0.4496  0.1249  1.9322
   24CHL1   C20 2932   2.910   4.644   4.364 -0.3626  0.5414 -0.2116
   24CHL1   H20 2933   2.933   4.536   4.365  2.1973  1.0380 -0.5044
   24CHL1   C21 2934   3.038   4.707   4.323 -0.1582 -0.2047 -0.3382
   24CHL1  H21A 2935   3.057   4.706   4.214 -0.2534  1.9484 -0.4253
   24CHL1  H21B 2936   3.125   4.666   4.377 -0.0586 -1.3961 -1.3703
   24CHL1  H21C 2937   3.041   4.815   4.351 -0.8395 -0.2581 -0.0230
   24CHL1   C22 2938   2.803   4.658   4.247 -0.2228  0.1283 -0.3887
   24CHL1  H22A 2939   2.839   4.630   4.146 -1.7175  2.1965 -1.5916
   24CHL1  H22B 2940   2.717   4.591   4.269  0.6453 -0.6859  0.6318
   24CHL1   C23 2941   2.753   4.805   4.241  0.5495  0.2105  0.8741
   24CHL1  H23A 2942   2.702   4.825   4.337 -1.8057  0.8769 -0.4343
   24CHL1  H23B 2943   2.840   4.874   4.239  1.0719 -0.4304  0.6140
   24CHL1   C24 2944   2.654   4.821   4.112 -0.5688 -0.1931 -0.2724
   24CHL1  H24A 2945   2.638   4.929   4.094  2.1485  0.4937  0.8379
   24CHL1  H24B 2946   2.714   4.795   4.022  1.0293  2.7578 -0.1637
   24CHL1   C25 2947   2.515   4.749   4.125 -0.3600 -0.3854 -0.2820
   24CHL1   H25 2948   2.531   4.641   4.148 -0.3031 -0.5687 -1.1444
   24CHL1   C26 2949   2.434   4.810   4.239 -0.3558 -0.5284  0.2852
   24CHL1  H26A 2950   2.339   4.751   4.242  0.1824 -1.5303 -1.3521
   24CHL1  H26B 2951   2.485   4.793   4.336 -0.5414 -1.0843  0.2961
   24CHL1  H26C 2952   2.419   4.919   4.224 -1.1812 -0.6949 -0.2168
   24CHL1   C27 2953   2.448   4.762   3.992 -0.0657  0.5367 -0.2140
   24CHL1  H27A 2954   2.521   4.728   3.915  0.6687 -0.0850  0.7260
   24CHL1  H27B 2955   2.358   4.698   3.986  0.1136 -0.0945  2.5432
   24CHL1  H27C 2956   2.423   4.867   3.969  1.9493  1.1009 -0.0707
   25CHL1    C3 2957   3.440   5.254   5.401 -0.9277 -0.4897 -0.4247
   25CHL1    H3 2958   3.516   5.178   5.429 -0.6936  0.2300  0.9560
   25CHL1    O3 2959   3.420   5.324   5.523  0.2978  0.1290 -1.0399
   25CHL1   H3' 2960   3.495   5.382   5.539  0.9124 -1.1607  1.0806
   25CHL1    C4 2961   3.492   5.359   5.297  0.2258 -0.2901  0.7370
   25CHL1   H4A 2962   3.415   5.438   5.287  0.0243 -0.4433  1.0228
   25CHL1   H4B 2963   3.582   5.419   5.319  0.2040 -0.1712  0.4988
   25CHL1    C5 2964   3.524   5.283   5.167  0.4087 -0.4987  0.0912
   25CHL1    C6 2965   3.648   5.278   5.123  0.6610 -0.4155 -0.2389
   25CHL1    H6 2966   3.729   5.329   5.176  1.5590 -0.6428 -1.3675
   25CHL1    C7 2967   3.691   5.205   4.998 -0.3434  0.8461 -0.4117
   25CHL1   H7A 2968   3.756   5.267   4.933  2.0732 -2.0848 -1.0406
   25CHL1   H7B 2969   3.736   5.107   5.024 -1.5385  0.0636 -1.1784
   25CHL1    C8 2970   3.570   5.178   4.901  0.6578  0.1447  0.3404
   25CHL1    H8 2971   3.538   5.274   4.855  1.0311  1.1592  2.0934
   25CHL1   C14 2972   3.610   5.079   4.796 -0.1380  0.1400  0.0687
   25CHL1   H14 2973   3.630   4.981   4.846 -1.6335 -0.5030 -0.5333
   25CHL1   C15 2974   3.743   5.106   4.724 -0.1842 -0.5247  0.0886
   25CHL1  H15A 2975   3.743   5.214   4.698 -2.8765 -0.0409  1.7419
   25CHL1  H15B 2976   3.832   5.078   4.784 -0.0763 -0.8926 -0.2422
   25CHL1   C16 2977   3.731   5.012   4.602  0.4978 -0.7566 -0.0088
   25CHL1  H16A 2978   3.729   5.073   4.509  2.3310  0.6017  0.7938
   25CHL1  H16B 2979   3.805   4.931   4.614 -0.1116 -1.2432  0.5588
   25CHL1   C17 2980   3.591   4.945   4.606  0.0271  0.5975 -1.3078
   25CHL1   H17 2981   3.602   4.851   4.664  0.7946  0.6171 -1.4174
   25CHL1   C13 2982   3.505   5.042   4.694  0.1214 -0.0669 -0.1414
   25CHL1   C18 2983   3.468   5.167   4.614  0.5866  0.1287  0.1369
   25CHL1  H18A 2984   3.423   5.253   4.668  1.3613 -0.0804  1.1612
   25CHL1  H18B 2985   3.553   5.219   4.566 -0.7006  0.5156 -1.8202
   25CHL1  H18C 2986   3.406   5.144   4.525  1.7163 -0.0768 -0.6077
   25CHL1   C12 2987   3.380   4.988   4.761  0.6867 -0.1228 -0.4936
   25CHL1  H12A 2988   3.297   4.988   4.688  0.2532 -0.3007 -0.0019
   25CHL1  H12B 2989   3.396   4.882   4.793  0.5699 -0.5895 -1.9255
   25CHL1   C11 2990   3.331   5.072   4.877  0.1765  0.2785  0.6219
   25CHL1  H11A 2991   3.283   5.162   4.833  1.7822  0.2649 -1.3276
   25CHL1  H11B 2992   3.260   5.011   4.937 -1.0696  0.4167 -0.6651
   25CHL1    C9 2993   3.449   5.117   4.973  0.2135  0.4094 -0.2540
   25CHL1    H9 2994   3.489   5.025   5.021  0.0746  0.6852  0.4057
   25CHL1   C10 2995   3.413   5.201   5.102  0.1478  0.0568 -0.7649
   25CHL1   C19 2996   3.304   5.308   5.065  0.4822  0.6243  0.1583
   25CHL1  H19A 2997   3.334   5.365   4.974 -2.7346  1.1930 -0.6796
   25CHL1  H19B 2998   3.202   5.264   5.053  1.8376 -2.3244 -1.6060
   25CHL1  H19C 2999   3.285   5.386   5.142 -0.5881  0.5871 -0.0500
   25CHL1    C1 3000   3.356   5.110   5.213 -0.2509  0.1207 -0.3943
   25CHL1   H1A 3001   3.260   5.068   5.173 -1.6915  0.4273  2.5095
   25CHL1   H1B 3002   3.417   5.026   5.252 -0.4136 -0.0527 -0.5070
   25CHL1    C2 3003   3.318   5.183   5.352  0.0007  0.4783  0.8603
   25CHL1   H2A 3004   3.284   5.100   5.418  0.8974  0.0120  0.7446
   25CHL1   H2B 3005   3.236   5.259   5.346 -0.0870  0.2904 -1.1025
   25CHL1   C20 3006   3.543   4.896   4.467 -0.1887 -0.0066 -0.1947
   25CHL1   H20 3007   3.524   4.984   4.402  0.7710  1.5274  1.5390
   25CHL1   C21 3008   3.404   4.823   4.475 -0.4453 -0.3098 -0.7520
   25CHL1  H21A 3009   3.387   4.773   4.378 -1.1101  0.5607 -1.0956
   25CHL1  H21B 3010   3.333   4.903   4.505 -0.9009 -1.1530  0.4849
   25CHL1  H21C 3011   3.400   4.746   4.555  0.9544 -1.1501 -1.4574
   25CHL1   C22 3012   3.652   4.804   4.401  0.7600  0.5095  0.7825
   25CHL1  H22A 3013   3.740   4.871   4.404  0.2701  1.1356  2.7694
   25CHL1  H22B 3014   3.677   4.715   4.464 -0.0364  0.3446  0.8900
   25CHL1   C23 3015   3.622   4.755   4.261 -0.1913 -0.5925 -0.2471
   25CHL1  H23A 3016   3.529   4.695   4.270 -1.5687  1.5854  0.9462
   25CHL1  H23B 3017   3.603   4.853   4.212  1.4671  0.7257  1.5977
   25CHL1   C24 3018   3.741   4.683   4.200  0.2328 -0.1887  0.3313
   25CHL1  H24A 3019   3.823   4.680   4.274  0.0054 -0.2770  0.5829
   25CHL1  H24B 3020   3.715   4.578   4.178  0.4127 -0.3692  0.9776
   25CHL1   C25 3021   3.794   4.747   4.072 -0.0506  0.1800 -0.0780
   25CHL1   H25 3022   3.805   4.856   4.093 -2.7820 -0.0094  3.3923
   25CHL1   C26 3023   3.940   4.693   4.041  0.2383  0.0383 -0.2862
   25CHL1  H26A 3024   3.989   4.772   3.979  2.1567  1.6487  3.0271
   25CHL1  H26B 3025   3.999   4.685   4.134 -1.8525  0.2026  1.1269
   25CHL1  H26C 3026   3.929   4.588   4.005  3.0082 -0.3949 -0.0655
   25CHL1   C27 3027   3.696   4.734   3.952 -0.1612 -0.2474  0.0849
   25CHL1  H27A 3028   3.695   4.629   3.917 -1.6639  0.1225 -1.0667
   25CHL1  H27B 3029   3.595   4.774   3.976 -0.4097 -0.5327 -0.4581
   25CHL1  H27C 3030   3.736   4.791   3.867  0.1144 -2.5802 -1.4513
   26CHL1    C3 3031   3.040   2.749   5.630  0.2677 -0.6087 -0.1159
   26CHL1    H3 3032   2.932   2.729   5.613  0.1685 -1.4486  1.2754
   26CHL1    O3 3033   3.073   2.739   5.772  0.1717 -0.3935 -0.2240
   26CHL1   H3' 3034   3.010   2.796   5.817  0.0514  0.1794 -1.0874
   26CHL1    C4 3035   3.123   2.643   5.555  0.5372  0.5891 -0.1054
   26CHL1   H4A 3036   3.232   2.658   5.569  0.8407  1.9230 -3.0857
   26CHL1   H4B 3037   3.099   2.542   5.593 -0.2290  0.6346 -0.4360
   26CHL1    C5 3038   3.109   2.658   5.405  0.7760 -0.0212 -0.3642
   26CHL1    C6 3039   3.066   2.551   5.339  0.3885 -0.3041 -0.1041
   26CHL1    H6 3040   3.031   2.462   5.394  2.3178 -0.0059  1.7156
   26CHL1    C7 3041   3.055   2.558   5.190  0.7556 -0.4800  0.2297
   26CHL1   H7A 3042   3.073   2.455   5.154 -0.5695 -1.7325  2.9268
   26CHL1   H7B 3043   2.952   2.596   5.175  1.5977  1.4949 -0.9992
   26CHL1    C8 3044   3.147   2.671   5.135  0.6653  0.3832  0.3282
   26CHL1    H8 3045   3.251   2.637   5.152  0.5419  0.0133  0.3465
   26CHL1   C14 3046   3.124   2.674   4.984 -0.5524 -0.3974  0.2456
   26CHL1   H14 3047   3.015   2.676   4.962 -0.8077  0.1931  1.4755
   26CHL1   C15 3048   3.159   2.548   4.897  0.0914  0.2123 -0.0959
   26CHL1  H15A 3049   3.258   2.512   4.933 -0.5452 -0.0389  1.5025
   26CHL1  H15B 3050   3.092   2.461   4.910  1.4178 -0.9575 -0.7780
   26CHL1   C16 3051   3.161   2.603   4.751  0.0047 -0.0078 -0.2857
   26CHL1  H16A 3052   3.256   2.584   4.696  0.0306  0.0865 -0.2729
   26CHL1  H16B 3053   3.076   2.559   4.695 -0.2408 -1.1343  0.9176
   26CHL1   C17 3054   3.140   2.758   4.769  0.5368 -0.7869  0.0816
   26CHL1   H17 3055   3.032   2.782   4.772  0.2907 -1.5728 -1.3258
   26CHL1   C13 3056   3.189   2.795   4.907  0.3367 -0.2615  0.5814
   26CHL1   C18 3057   3.343   2.781   4.912  0.3034  0.1922 -0.1610
   26CHL1  H18A 3058   3.379   2.722   4.825 -1.8427 -0.5232 -0.6294
   26CHL1  H18B 3059   3.392   2.881   4.906 -0.3023  0.4297 -1.5987
   26CHL1  H18C 3060   3.373   2.734   5.008 -1.6114 -0.1791  0.3042
   26CHL1   C12 3061   3.157   2.928   4.975  0.6167  0.0999 -0.9228
   26CHL1  H12A 3062   3.216   3.018   4.946  0.1009  1.6184  2.2829
   26CHL1  H12B 3063   3.047   2.940   4.969  0.7131  1.5610 -0.4130
   26CHL1   C11 3064   3.185   2.929   5.126 -0.3753 -0.5706  0.2707
   26CHL1  H11A 3065   3.296   2.922   5.136 -0.3473  1.0350  1.5598
   26CHL1  H11B 3066   3.149   3.029   5.159 -0.1325  0.2935 -1.8817
   26CHL1    C9 3067   3.116   2.801   5.202 -0.1137 -0.1075  0.3325
   26CHL1    H9 3068   3.009   2.823   5.183  0.5734  1.0809 -2.7861
   26CHL1   C10 3069   3.148   2.795   5.352 -0.8461  0.2386  0.7633
   26CHL1   C19 3070   3.297   2.822   5.378  0.1949  0.2097 -0.1257
   26CHL1  H19A 3071   3.324   2.817   5.485 -0.3825  0.8864  0.0576
   26CHL1  H19B 3072   3.368   2.754   5.326  2.9718  1.3867  1.9374
   26CHL1  H19C 3073   3.324   2.924   5.342  0.9452 -0.5995 -1.9863
   26CHL1    C1 3074   3.072   2.904   5.430 -0.8096 -0.3867 -0.4390
   26CHL1   H1A 3075   3.122   2.994   5.389  2.3116 -1.8406 -0.1162
   26CHL1   H1B 3076   2.966   2.910   5.397 -0.6129  1.2449 -0.8728
   26CHL1    C2 3077   3.074   2.891   5.584 -0.1650 -0.0056 -0.2765
   26CHL1   H2A 3078   2.996   2.955   5.629 -1.3913 -0.2032 -2.0002
   26CHL1   H2B 3079   3.174   2.921   5.621 -0.1067  0.1370 -0.5485
   26CHL1   C20 3080   3.193   2.848   4.656  0.1805 -0.2096 -0.2530
   26CHL1   H20 3081   3.296   2.883   4.678 -0.7822  1.2398  2.3732
   26CHL1   C21 3082   3.105   2.981   4.652 -0.5894  0.0794 -0.1722
   26CHL1  H21A 3083   3.116   3.043   4.744 -0.6228  0.3890 -0.3785
   26CHL1  H21B 3084   3.000   2.947   4.643 -0.3046 -1.3617  1.3276
   26CHL1  H21C 3085   3.135   3.043   4.565  2.0740 -1.0734 -0.1689
   26CHL1   C22 3086   3.201   2.784   4.511  0.1046  0.0829  0.0801
   26CHL1  H22A 3087   3.239   2.680   4.513  0.6264  0.2672  0.0896
   26CHL1  H22B 3088   3.097   2.787   4.471  0.1316  1.8173  0.0483
   26CHL1   C23 3089   3.298   2.863   4.426  0.5172 -0.1764 -0.0444
   26CHL1  H23A 3090   3.249   2.950   4.377  0.3052 -0.6961 -0.7754
   26CHL1  H23B 3091   3.379   2.894   4.494  0.5174 -0.8411  0.2623
   26CHL1   C24 3092   3.360   2.772   4.322 -0.0235  0.3399 -1.2855
   26CHL1  H24A 3093   3.419   2.697   4.378 -1.0761 -0.1592 -0.8121
   26CHL1  H24B 3094   3.281   2.722   4.263 -1.5274  0.6570  0.3421
   26CHL1   C25 3095   3.465   2.845   4.236 -0.1694  0.2591  0.7206
   26CHL1   H25 3096   3.524   2.912   4.303 -0.4225  0.7951  0.4218
   26CHL1   C26 3097   3.547   2.737   4.159 -0.3415  0.5166  0.1475
   26CHL1  H26A 3098   3.627   2.787   4.100 -0.6703  0.8525 -0.0198
   26CHL1  H26B 3099   3.595   2.673   4.235  0.9423  0.7793 -0.4185
   26CHL1  H26C 3100   3.488   2.673   4.089 -1.1379  1.4042 -0.0252
   26CHL1   C27 3101   3.394   2.926   4.126  0.7551  0.2441 -0.1636
   26CHL1  H27A 3102   3.467   2.980   4.063  0.9170  0.9822  0.6240
   26CHL1  H27B 3103   3.334   2.868   4.053  0.3589 -0.8452  0.9916
   26CHL1  H27C 3104   3.325   2.999   4.175  0.6402 -1.2975  2.1210
   27CHL1    C3 3105   2.519   3.031   5.724 -0.6903  0.2775 -0.1963
   27CHL1    H3 3106   2.443   2.952   5.743  1.4451 -2.0440 -0.7097
   27CHL1    O3 3107   2.547   3.095   5.852 -0.1068  0.4781  1.1330
   27CHL1   H3' 3108   2.635   3.059   5.867 -0.7946 -2.7143 -1.3832
   27CHL1    C4 3109   2.650   2.967   5.675  0.0635 -0.2332  0.0820
   27CHL1   H4A 3110   2.738   3.032   5.693  1.3188 -2.1064  1.0733
   27CHL1   H4B 3111   2.662   2.879   5.741 -0.6480  0.3297  0.9831
   27CHL1    C5 3112   2.652   2.926   5.529  0.8975 -0.9692 -0.0014
   27CHL1    C6 3113   2.685   2.802   5.488 -0.0884 -1.1823  0.1639
   27CHL1    H6 3114   2.708   2.721   5.560 -2.3459 -1.5971  0.5159
   27CHL1    C7 3115   2.695   2.761   5.344 -0.4312  0.0960 -0.5231
   27CHL1   H7A 3116   2.794   2.725   5.311 -0.2094  0.9192 -0.7749
   27CHL1   H7B 3117   2.617   2.686   5.316 -1.3180  0.6101  0.4817
   27CHL1    C8 3118   2.683   2.885   5.246 -0.1997 -0.6329  0.4570
   27CHL1    H8 3119   2.781   2.935   5.233  1.0570 -2.4187  2.4424
   27CHL1   C14 3120   2.632   2.830   5.105  0.0094 -0.5695  0.0234
   27CHL1   H14 3121   2.533   2.790   5.136 -0.1589  0.5909  1.0672
   27CHL1   C15 3122   2.696   2.706   5.039  0.8696 -0.1170 -0.3565
   27CHL1  H15A 3123   2.807   2.702   5.037  1.0191  2.0607  0.7835
   27CHL1  H15B 3124   2.661   2.621   5.102 -1.5104  2.0377  1.4544
   27CHL1   C16 3125   2.640   2.708   4.897  0.6076 -0.1415 -0.4391
   27CHL1  H16A 3126   2.720   2.702   4.820 -0.4659 -0.4766 -1.5621
   27CHL1  H16B 3127   2.576   2.617   4.892  0.4267 -0.2313  2.1966
   27CHL1   C17 3128   2.566   2.846   4.882  0.2284  0.0743  0.4163
   27CHL1   H17 3129   2.459   2.815   4.888  0.4043 -0.3366  1.9272
   27CHL1   C13 3130   2.606   2.930   5.003  0.3157 -0.3521 -0.1364
   27CHL1   C18 3131   2.734   3.004   4.971 -0.0015  0.7262 -0.1932
   27CHL1  H18A 3132   2.784   3.042   5.063  0.3486  1.7895 -0.8082
   27CHL1  H18B 3133   2.806   2.931   4.926  0.1108  0.2407  0.7448
   27CHL1  H18C 3134   2.717   3.088   4.900 -1.6265  1.3708  0.8952
   27CHL1   C12 3135   2.500   3.027   5.046  0.1795  0.7258  0.8319
   27CHL1  H12A 3136   2.487   3.109   4.971 -0.8543  0.4515  0.6855
   27CHL1  H12B 3137   2.403   2.975   5.060  0.1168  0.8931  1.0169
   27CHL1   C11 3138   2.537   3.091   5.184  0.3407 -0.0973 -0.1984
   27CHL1  H11A 3139   2.628   3.151   5.163 -1.0510  1.2525 -3.0397
   27CHL1  H11B 3140   2.461   3.170   5.205  0.1162  0.3604 -2.3894
   27CHL1    C9 3141   2.574   2.981   5.290  0.5875  0.4480  0.4732
   27CHL1    H9 3142   2.481   2.921   5.299  0.8607 -0.1994 -0.8058
   27CHL1   C10 3143   2.595   3.036   5.440  0.3467 -0.5962  0.2533
   27CHL1   C19 3144   2.706   3.140   5.426  0.5601 -0.1531 -0.4320
   27CHL1  H19A 3145   2.741   3.182   5.523 -0.0013 -0.1285 -0.2374
   27CHL1  H19B 3146   2.796   3.098   5.375  0.1359 -0.2115 -1.1412
   27CHL1  H19C 3147   2.670   3.230   5.372 -1.8337 -0.4118  0.6048
   27CHL1    C1 3148   2.461   3.092   5.489  0.4680 -0.3326 -0.2682
   27CHL1   H1A 3149   2.425   3.171   5.419 -1.0673  0.0185  0.8667
   27CHL1   H1B 3150   2.382   3.014   5.495 -0.9861  1.2147  2.7474
   27CHL1    C2 3151   2.460   3.143   5.631  0.2201  0.2964  0.0967
   27CHL1   H2A 3152   2.363   3.176   5.674 -1.4817 -0.2455 -3.0565
   27CHL1   H2B 3153   2.528   3.231   5.634 -2.3170  2.3799  3.1174
   27CHL1   C20 3154   2.593   2.905   4.737  0.8391  0.0937 -0.3411
   27CHL1   H20 3155   2.700   2.932   4.732  0.1652  3.0900 -0.3586
   27CHL1   C21 3156   2.497   3.023   4.720 -0.3340  0.5344  0.4580
   27CHL1  H21A 3157   2.400   3.003   4.770 -0.5454  0.5984  0.0819
   27CHL1  H21B 3158   2.470   3.046   4.614 -2.2941  2.9179  1.3649
   27CHL1  H21C 3159   2.551   3.106   4.769 -0.4675 -0.1222  1.7488
   27CHL1   C22 3160   2.563   2.796   4.625  0.9494  0.3718  0.3711
   27CHL1  H22A 3161   2.613   2.699   4.640 -0.5712 -0.2409  1.8480
   27CHL1  H22B 3162   2.452   2.782   4.625  0.7717  1.6002 -0.3481
   27CHL1   C23 3163   2.599   2.829   4.480  0.4803 -0.0859 -0.4622
   27CHL1  H23A 3164   2.526   2.909   4.452 -0.7694 -0.4001  1.6322
   27CHL1  H23B 3165   2.705   2.861   4.473  0.3010  0.0770 -3.2226
   27CHL1   C24 3166   2.582   2.707   4.377  0.5601 -0.1530 -0.7303
   27CHL1  H24A 3167   2.625   2.614   4.419  1.2287  1.0301  1.3496
   27CHL1  H24B 3168   2.474   2.680   4.366  0.8462 -0.7789 -2.3032
   27CHL1   C25 3169   2.619   2.744   4.231 -0.2147 -0.7342 -0.0934
   27CHL1   H25 3170   2.575   2.839   4.195  1.2866 -0.3866 -1.0989
   27CHL1   C26 3171   2.770   2.773   4.218  0.3410  0.2002 -0.6350
   27CHL1  H26A 3172   2.828   2.700   4.279  0.1011 -0.5482 -1.2785
   27CHL1  H26B 3173   2.820   2.768   4.119  3.9095  1.2056  0.9481
   27CHL1  H26C 3174   2.785   2.876   4.254 -0.6990 -0.3697  1.6096
   27CHL1   C27 3175   2.563   2.633   4.141 -0.6532  0.2972  0.3868
   27CHL1  H27A 3176   2.574   2.531   4.183 -1.6989  0.4184  0.9816
   27CHL1  H27B 3177   2.602   2.656   4.039 -2.2430  0.7767 -0.1417
   27CHL1  H27C 3178   2.453   2.651   4.143 -0.4709  2.3380 -2.0942
   28CHL1    C3 3179   4.497   2.210   5.695  0.9731  0.1938  1.2456
   28CHL1    H3 3180   4.551   2.304   5.719  0.9817  0.6166 -0.3296
   28CHL1    O3 3181   4.496   2.124   5.805 -0.4471 -0.4819 -0.4693
   28CHL1   H3' 3182   4.589   2.119   5.829 -0.2810  1.8049 -0.3855
   28CHL1    C4 3183   4.354   2.235   5.650 -0.0570  0.1943  0.0500
   28CHL1   H4A 3184   4.297   2.140   5.658  1.1833 -0.5631  0.2735
   28CHL1   H4B 3185   4.312   2.295   5.733  1.9706 -0.1767  1.4366
   28CHL1    C5 3186   4.327   2.298   5.515  0.3175  0.3734  0.4941
   28CHL1    C6 3187   4.233   2.394   5.492 -0.1102  0.1110 -0.3320
   28CHL1    H6 3188   4.181   2.434   5.581  0.8608 -1.8606  1.2242
   28CHL1    C7 3189   4.211   2.453   5.354 -0.0370 -0.3120 -0.7200
   28CHL1   H7A 3190   4.104   2.479   5.339 -0.1731 -1.4854 -1.8761
   28CHL1   H7B 3191   4.264   2.550   5.346  1.4532 -1.1781 -1.7072
   28CHL1    C8 3192   4.253   2.368   5.235 -0.1041  0.7986  0.0394
   28CHL1    H8 3193   4.180   2.285   5.227 -1.0404  1.4869  1.1533
   28CHL1   C14 3194   4.256   2.436   5.102  0.1168  0.2141 -0.9517
   28CHL1   H14 3195   4.350   2.494   5.110  1.4998 -2.1066  0.8185
   28CHL1   C15 3196   4.149   2.533   5.055 -0.5689 -0.0841  0.8727
   28CHL1  H15A 3197   4.061   2.472   5.084  0.1111 -2.7334 -2.1103
   28CHL1  H15B 3198   4.151   2.636   5.097 -0.2504  0.8544 -1.3195
   28CHL1   C16 3199   4.151   2.531   4.903 -0.0752  0.2781 -0.4646
   28CHL1  H16A 3200   4.065   2.466   4.879 -0.0078 -0.6088  1.4615
   28CHL1  H16B 3201   4.143   2.633   4.861 -0.1080 -0.1675 -1.5557
   28CHL1   C17 3202   4.271   2.444   4.867  0.6430 -0.0544 -0.3914
   28CHL1   H17 3203   4.360   2.510   4.874  0.9408 -0.4237 -0.6357
   28CHL1   C13 3204   4.287   2.351   4.981 -0.8202  0.5437 -0.1115
   28CHL1   C18 3205   4.181   2.239   4.977  0.4377 -0.2338 -0.9301
   28CHL1  H18A 3206   4.207   2.164   5.055  0.2335  0.1042 -0.5342
   28CHL1  H18B 3207   4.074   2.266   4.987  0.9595  1.8909 -0.6340
   28CHL1  H18C 3208   4.183   2.173   4.887  1.9772 -0.3065 -0.8762
   28CHL1   C12 3209   4.435   2.298   4.994 -0.3937 -0.2349  0.3203
   28CHL1  H12A 3210   4.452   2.223   4.914  1.4371  1.4622 -0.9665
   28CHL1  H12B 3211   4.496   2.390   4.981  1.4741 -1.8302 -4.2832
   28CHL1   C11 3212   4.459   2.233   5.128 -0.5276 -0.2264  0.3724
   28CHL1  H11A 3213   4.426   2.127   5.127 -0.3450 -0.3108  1.9377
   28CHL1  H11B 3214   4.567   2.218   5.146 -0.9503 -2.7825  1.1437
   28CHL1    C9 3215   4.390   2.300   5.257 -0.2557  0.3233  0.2949
   28CHL1    H9 3216   4.456   2.388   5.272 -1.5834  1.2118  1.1872
   28CHL1   C10 3217   4.396   2.227   5.400 -0.5766 -0.2985 -0.0893
   28CHL1   C19 3218   4.322   2.095   5.379 -0.1036 -0.1814 -0.4048
   28CHL1  H19A 3219   4.376   2.035   5.303 -1.5182 -0.9257 -0.8790
   28CHL1  H19B 3220   4.311   2.023   5.463  2.0039 -2.5287 -2.0079
   28CHL1  H19C 3221   4.220   2.116   5.340  0.1772  0.7582 -0.6555
   28CHL1    C1 3222   4.542   2.195   5.437 -0.2254 -0.3358 -0.3512
   28CHL1   H1A 3223   4.587   2.121   5.367 -0.0623  0.2721 -0.9008
   28CHL1   H1B 3224   4.594   2.293   5.444 -2.3690  0.7781  1.0253
   28CHL1    C2 3225   4.564   2.139   5.579 -0.2308 -0.0053  0.5831
   28CHL1   H2A 3226   4.670   2.121   5.606  0.0208  2.6858  1.6740
   28CHL1   H2B 3227   4.534   2.033   5.590 -1.5825  0.5705  3.3345
   28CHL1   C20 3228   4.278   2.400   4.720 -0.3952 -0.1563 -1.0189
   28CHL1   H20 3229   4.355   2.321   4.714 -1.6874 -1.6163  0.6319
   28CHL1   C21 3230   4.323   2.524   4.633 -0.2036 -0.0293 -0.7058
   28CHL1  H21A 3231   4.248   2.605   4.620 -1.1453 -0.3201  2.1786
   28CHL1  H21B 3232   4.362   2.490   4.535  1.1423  1.9392 -0.9297
   28CHL1  H21C 3233   4.407   2.567   4.693 -1.1160 -0.2980  0.8014
   28CHL1   C22 3234   4.146   2.339   4.670  0.4746 -0.3497  0.6380
   28CHL1  H22A 3235   4.083   2.288   4.746 -1.1727 -0.9916 -1.0639
   28CHL1  H22B 3236   4.086   2.426   4.636  1.7458 -0.3122 -1.7527
   28CHL1   C23 3237   4.167   2.237   4.561  0.0902  0.2716  0.4716
   28CHL1  H23A 3238   4.211   2.278   4.467  1.6873 -4.2013 -0.9822
   28CHL1  H23B 3239   4.243   2.163   4.593 -0.4192 -0.9883 -1.0787
   28CHL1   C24 3240   4.043   2.154   4.525 -0.6546 -0.4563  0.3254
   28CHL1  H24A 3241   4.020   2.086   4.609  0.3250 -1.4193 -0.1641
   28CHL1  H24B 3242   3.960   2.226   4.506 -1.2531 -0.4375  2.7236
   28CHL1   C25 3243   4.063   2.060   4.407  0.1373 -0.0557  0.2006
   28CHL1   H25 3244   4.106   2.124   4.326  0.2549  0.8552  0.9655
   28CHL1   C26 3245   4.142   1.937   4.448  0.1369 -0.1832  0.4498
   28CHL1  H26A 3246   4.242   1.972   4.479 -0.5815  1.1384  1.3645
   28CHL1  H26B 3247   4.081   1.884   4.524 -1.0251 -0.3921 -0.5818
   28CHL1  H26C 3248   4.150   1.864   4.364 -1.2049  1.4682 -1.1985
   28CHL1   C27 3249   3.935   2.014   4.349  0.3167 -0.1169  0.4562
   28CHL1  H27A 3250   3.875   2.102   4.317 -0.7281 -0.4922  1.3465
   28CHL1  H27B 3251   3.938   1.938   4.268 -3.1858 -1.6715  1.6049
   28CHL1  H27C 3252   3.865   1.964   4.419  0.7279 -1.5564 -0.1266
   29CHL1    C3 3253   1.837   3.935   5.529  0.1840  0.3250  0.0918
   29CHL1    H3 3254   1.933   3.878   5.526  0.8929  1.5261 -1.2541
   29CHL1    O3 3255   1.792   3.942   5.667 -0.3054 -0.3949  0.3172
   29CHL1   H3' 3256   1.869   3.924   5.721 -2.0758 -2.6216  2.3048
   29CHL1    C4 3257   1.865   4.077   5.470  0.5365  0.3245  0.2722
   29CHL1   H4A 3258   1.775   4.136   5.495 -2.1531 -3.1353 -0.4070
   29CHL1   H4B 3259   1.956   4.114   5.522 -0.9209  2.1540  1.6348
   29CHL1    C5 3260   1.899   4.082   5.321 -0.1833 -0.2523 -0.4217
   29CHL1    C6 3261   2.010   4.142   5.275  0.0727 -0.2378  1.2502
   29CHL1    H6 3262   2.079   4.202   5.337 -0.1682  0.3428  0.9648
   29CHL1    C7 3263   2.040   4.161   5.133 -0.2699 -0.4391  0.7274
   29CHL1   H7A 3264   2.051   4.269   5.110 -0.9252 -0.2605  1.2345
   29CHL1   H7B 3265   2.146   4.135   5.109 -0.8023 -1.7000 -0.4225
   29CHL1    C8 3266   1.936   4.109   5.035 -0.1402 -0.1208 -0.1911
   29CHL1    H8 3267   1.857   4.187   5.021 -1.0960 -1.0374 -0.0804
   29CHL1   C14 3268   2.005   4.073   4.903  0.0595  0.8861 -0.4262
   29CHL1   H14 3269   2.080   3.995   4.926 -2.6505 -2.2381 -1.3531
   29CHL1   C15 3270   2.081   4.184   4.837 -0.2211  0.9676 -0.0989
   29CHL1  H15A 3271   2.037   4.286   4.838 -2.5447  0.0468  2.0027
   29CHL1  H15B 3272   2.182   4.192   4.880  0.1217 -0.3224 -0.5919
   29CHL1   C16 3273   2.092   4.139   4.688  0.3708 -0.2357  0.1244
   29CHL1  H16A 3274   2.032   4.206   4.623  0.1678 -0.8890 -0.3769
   29CHL1  H16B 3275   2.196   4.120   4.654  0.2856  0.6064 -0.6491
   29CHL1   C17 3276   2.021   4.004   4.675  0.4258 -0.3988 -0.4588
   29CHL1   H17 3277   2.086   3.922   4.714  1.5183  1.3488  1.6872
   29CHL1   C13 3278   1.914   4.008   4.790 -0.5052  0.0202 -0.4122
   29CHL1   C18 3279   1.792   4.099   4.754  0.1198  0.4943 -0.0412
   29CHL1  H18A 3280   1.716   4.040   4.699  1.2341 -1.5384  0.4831
   29CHL1  H18B 3281   1.736   4.140   4.840 -0.2681  1.2250 -0.6397
   29CHL1  H18C 3282   1.827   4.181   4.689 -0.6183  1.1735  0.4070
   29CHL1   C12 3283   1.863   3.878   4.831 -0.5611  0.1375 -0.1978
   29CHL1  H12A 3284   1.785   3.828   4.770 -0.6420  1.2207 -0.9999
   29CHL1  H12B 3285   1.949   3.814   4.863  0.0876  1.0920  0.0108
   29CHL1   C11 3286   1.802   3.902   4.974  0.4919 -0.8223  0.0003
   29CHL1  H11A 3287   1.704   3.953   4.964  0.2252 -0.9208  1.7403
   29CHL1  H11B 3288   1.771   3.800   5.007 -1.3973 -0.5164 -0.7238
   29CHL1    C9 3289   1.880   3.979   5.086 -0.0137 -0.4410  0.3246
   29CHL1    H9 3290   1.971   3.918   5.104  1.3623  0.2902 -3.3045
   29CHL1   C10 3291   1.810   3.995   5.227  0.2242  0.4276  0.2195
   29CHL1   C19 3292   1.674   4.065   5.211  0.0957  0.9179  0.1118
   29CHL1  H19A 3293   1.603   4.014   5.143 -0.2547  1.7533 -0.1682
   29CHL1  H19B 3294   1.637   4.079   5.315 -0.2749 -0.7023  0.2141
   29CHL1  H19C 3295   1.681   4.159   5.151  2.0507  0.4939 -0.3776
   29CHL1    C1 3296   1.778   3.858   5.289  0.2050  0.5528  0.6148
   29CHL1   H1A 3297   1.695   3.812   5.232  1.2086  3.0951 -3.2556
   29CHL1   H1B 3298   1.867   3.792   5.278  0.4379  1.1450 -1.2598
   29CHL1    C2 3299   1.730   3.865   5.440 -0.3574  0.3874 -1.1211
   29CHL1   H2A 3300   1.719   3.765   5.486  3.4485  0.4697  0.3788
   29CHL1   H2B 3301   1.643   3.931   5.458  0.4591  0.9531  1.1377
   29CHL1   C20 3302   1.993   3.970   4.531  0.1927 -0.4535  0.2886
   29CHL1   H20 3303   1.898   4.015   4.494  0.4372 -1.3165 -1.5418
   29CHL1   C21 3304   1.977   3.816   4.527  0.2386  1.0343 -0.2801
   29CHL1  H21A 3305   2.079   3.773   4.538  0.0037 -0.2096 -2.3736
   29CHL1  H21B 3306   1.937   3.765   4.437 -0.8498 -1.1540  1.3531
   29CHL1  H21C 3307   1.905   3.786   4.606  0.3022  0.5485 -0.4000
   29CHL1   C22 3308   2.101   4.010   4.423  0.2702 -0.5354  0.0186
   29CHL1  H22A 3309   2.106   4.121   4.413 -1.4310 -0.4360 -0.0049
   29CHL1  H22B 3310   2.198   3.972   4.462  0.2962  0.6330  1.1486
   29CHL1   C23 3311   2.063   3.969   4.281  0.3186 -0.7081  0.4407
   29CHL1  H23A 3312   2.057   3.858   4.277  5.0634 -1.2848  2.2494
   29CHL1  H23B 3313   1.965   4.017   4.260  0.8486  1.0926  1.7539
   29CHL1   C24 3314   2.169   4.016   4.180 -0.2054  0.1823  0.3221
   29CHL1  H24A 3315   2.204   4.118   4.208  2.3894 -0.4138 -0.4211
   29CHL1  H24B 3316   2.256   3.948   4.196  0.9606  1.6974  0.5996
   29CHL1   C25 3317   2.134   4.003   4.036  1.0488 -0.5297 -0.0916
   29CHL1   H25 3318   2.105   3.899   4.009 -2.2805  0.5582 -1.2168
   29CHL1   C26 3319   2.017   4.087   3.979 -0.7296  0.3228 -0.0494
   29CHL1  H26A 3320   2.008   4.062   3.871  0.7156  1.0664 -0.3807
   29CHL1  H26B 3321   1.924   4.062   4.034 -1.3377 -0.9262 -1.5869
   29CHL1  H26C 3322   2.050   4.193   3.986  1.1280  0.0741 -3.0880
   29CHL1   C27 3323   2.254   4.035   3.959  0.3393 -0.5778  0.2674
   29CHL1  H27A 3324   2.340   3.969   3.982 -0.2921 -1.3697  0.3976
   29CHL1  H27B 3325   2.230   4.011   3.853  0.9545 -1.8098  0.3891
   29CHL1  H27C 3326   2.282   4.140   3.982  0.2323 -0.1893 -1.2247
   30CHL1    C3 3327   2.685   5.233   5.667  0.3546 -0.3747  0.5429
   30CHL1    H3 3328   2.580   5.266   5.650  0.0123 -1.7706 -0.2010
   30CHL1    O3 3329   2.699   5.220   5.801 -0.2171  0.0369  0.1100
   30CHL1   H3' 3330   2.769   5.155   5.813 -0.5426 -0.5303 -0.8725
   30CHL1    C4 3331   2.709   5.098   5.599  0.3831 -0.0289  0.1134
   30CHL1   H4A 3332   2.809   5.058   5.626  0.1490  0.2309  1.4112
   30CHL1   H4B 3333   2.643   5.020   5.643  1.6988 -1.1340  0.1912
   30CHL1    C5 3334   2.704   5.110   5.448  0.2954 -0.4762 -0.2987
   30CHL1    C6 3335   2.624   5.036   5.374  0.3264 -0.1593  0.3413
   30CHL1    H6 3336   2.547   4.970   5.415 -0.5917  1.8527  2.0379
   30CHL1    C7 3337   2.638   5.030   5.224 -0.3742 -0.1822  0.4616
   30CHL1   H7A 3338   2.644   4.932   5.173  1.4477  0.0485  0.1730
   30CHL1   H7B 3339   2.549   5.064   5.167 -0.3401 -0.7272  0.0747
   30CHL1    C8 3340   2.756   5.111   5.165 -0.9751 -0.4075  0.3165
   30CHL1    H8 3341   2.848   5.049   5.165 -0.6194 -0.0613 -3.0070
   30CHL1   C14 3342   2.729   5.147   5.018  0.5891 -0.1643  0.1814
   30CHL1   H14 3343   2.645   5.220   5.019  2.7609  2.6104 -2.1906
   30CHL1   C15 3344   2.688   5.029   4.927 -0.6506  0.2417  0.5939
   30CHL1  H15A 3345   2.755   4.940   4.930 -0.4734  0.2820 -1.0341
   30CHL1  H15B 3346   2.585   4.991   4.941 -0.3926 -0.7691 -0.0983
   30CHL1   C16 3347   2.707   5.087   4.782  0.2109  0.0494 -0.3077
   30CHL1  H16A 3348   2.757   5.003   4.729 -4.3124 -2.1927 -1.4326
   30CHL1  H16B 3349   2.611   5.087   4.726 -0.1015 -1.0442  0.2034
   30CHL1   C17 3350   2.773   5.222   4.802  0.3306 -0.2151  0.1449
   30CHL1   H17 3351   2.683   5.287   4.812  0.2062 -0.0735 -1.6421
   30CHL1   C13 3352   2.835   5.215   4.945 -0.4182  0.4603  0.2129
   30CHL1   C18 3353   2.966   5.132   4.931 -1.0079  0.0111  0.9025
   30CHL1  H18A 3354   3.052   5.192   4.894 -0.8659  0.0916  1.3564
   30CHL1  H18B 3355   2.988   5.076   5.024  2.3929  1.4293  1.0815
   30CHL1  H18C 3356   2.938   5.054   4.857 -2.4678  1.1387  0.2239
   30CHL1   C12 3357   2.860   5.349   5.015 -0.1347 -0.6872 -0.4926
   30CHL1  H12A 3358   2.934   5.417   4.967 -2.2041  0.3508 -2.4026
   30CHL1  H12B 3359   2.764   5.405   5.006 -0.0080 -0.5502 -0.9826
   30CHL1   C11 3360   2.897   5.325   5.163  0.3865 -0.1870 -1.2201
   30CHL1  H11A 3361   2.995   5.271   5.166  1.3496  1.5140 -0.6521
   30CHL1  H11B 3362   2.915   5.422   5.214  0.1566 -1.5527  1.6779
   30CHL1    C9 3363   2.791   5.237   5.238 -1.0162  0.2788  0.5730
   30CHL1    H9 3364   2.704   5.304   5.228 -0.2334  1.1160 -1.0107
   30CHL1   C10 3365   2.807   5.216   5.390 -0.4676  0.1064 -0.5831
   30CHL1   C19 3366   2.949   5.161   5.421  0.6259  0.9940  0.0547
   30CHL1  H19A 3367   3.021   5.232   5.376 -1.0432  1.9426 -1.2278
   30CHL1  H19B 3368   2.976   5.136   5.526 -0.1138 -0.6685 -0.1060
   30CHL1  H19C 3369   2.966   5.062   5.373 -3.5091  0.6606 -1.1783
   30CHL1    C1 3370   2.769   5.350   5.464 -0.5418  0.6022  0.4076
   30CHL1   H1A 3371   2.838   5.430   5.430  1.1968 -0.4631  1.2838
   30CHL1   H1B 3372   2.664   5.371   5.436 -0.1344  1.5091 -0.5127
   30CHL1    C2 3373   2.786   5.338   5.617  0.0462 -0.5706 -0.3954
   30CHL1   H2A 3374   2.772   5.429   5.678 -2.8657 -2.0699  1.3866
   30CHL1   H2B 3375   2.886   5.297   5.643  0.5432 -0.5612 -2.1335
   30CHL1   C20 3376   2.852   5.280   4.689 -0.6192 -0.3854  0.3225
   30CHL1   H20 3377   2.931   5.350   4.723  0.7511 -0.6222 -2.1583
   30CHL1   C21 3378   2.754   5.361   4.603  0.3261 -0.1101  0.1471
   30CHL1  H21A 3379   2.821   5.420   4.536 -0.6646  2.6795  1.4243
   30CHL1  H21B 3380   2.693   5.436   4.659  0.6359 -1.0029  1.7297
   30CHL1  H21C 3381   2.691   5.296   4.539  0.1786 -0.8985  1.0757
   30CHL1   C22 3382   2.928   5.174   4.603 -0.1584 -0.3959  0.0845
   30CHL1  H22A 3383   3.007   5.132   4.669  1.3851 -0.1299 -1.5322
   30CHL1  H22B 3384   2.865   5.093   4.562  0.7641 -1.2209  0.2681
   30CHL1   C23 3385   3.010   5.235   4.490  0.2477 -0.2612 -0.2062
   30CHL1  H23A 3386   2.938   5.269   4.413 -1.2261  0.2660  1.3194
   30CHL1  H23B 3387   3.068   5.321   4.530  1.1484 -0.8772 -0.1694
   30CHL1   C24 3388   3.103   5.136   4.423 -0.1210 -0.1232  0.7765
   30CHL1  H24A 3389   3.180   5.102   4.496  0.8467 -1.3893 -0.7515
   30CHL1  H24B 3390   3.038   5.050   4.397 -1.2984  0.5844  1.3200
   30CHL1   C25 3391   3.158   5.175   4.289  0.2420  0.4093 -0.0068
   30CHL1   H25 3392   3.069   5.192   4.225  1.6786 -2.5803 -3.0610
   30CHL1   C26 3393   3.237   5.308   4.298  0.2203 -0.4981 -0.3154
   30CHL1  H26A 3394   3.266   5.334   4.193  3.0378  0.6836  0.6382
   30CHL1  H26B 3395   3.187   5.394   4.347 -1.6681 -2.1288  0.7341
   30CHL1  H26C 3396   3.320   5.288   4.369 -0.2704  0.7431  0.6572
   30CHL1   C27 3397   3.257   5.072   4.230  0.2863 -0.3491 -0.8489
   30CHL1  H27A 3398   3.285   5.115   4.132 -0.7738  2.9333  0.1731
   30CHL1  H27B 3399   3.354   5.070   4.286  0.8474  1.5434 -1.6823
   30CHL1  H27C 3400   3.217   4.968   4.222 -1.6517  0.2378  0.5305
   31CHL1    C3 3401   1.602   5.069   5.642 -0.4243 -0.4222 -0.1211
   31CHL1    H3 3402   1.504   5.051   5.593 -0.8528 -1.2666  1.0050
   31CHL1    O3 3403   1.596   5.051   5.780  0.2885  0.1547 -0.5017
   31CHL1   H3' 3404   1.590   4.956   5.794 -0.0766 -0.2811 -3.1411
   31CHL1    C4 3405   1.713   4.983   5.588 -1.2757 -0.1399  0.1885
   31CHL1   H4A 3406   1.813   5.006   5.632 -1.5648  0.6765  0.4475
   31CHL1   H4B 3407   1.688   4.878   5.611  0.4303 -0.9216 -1.3111
   31CHL1    C5 3408   1.730   4.995   5.435  0.0987 -0.2406 -0.0064
   31CHL1    C6 3409   1.722   4.888   5.347 -0.0112 -0.3124 -0.1703
   31CHL1    H6 3410   1.705   4.787   5.389 -0.5534 -0.7507 -1.3966
   31CHL1    C7 3411   1.742   4.903   5.196 -0.4209 -0.0122 -0.2945
   31CHL1   H7A 3412   1.809   4.823   5.157 -1.4387 -1.5163  0.9127
   31CHL1   H7B 3413   1.643   4.894   5.146 -0.7891  0.1049  0.4065
   31CHL1    C8 3414   1.798   5.042   5.153  0.7331  0.1799  0.2903
   31CHL1    H8 3415   1.907   5.050   5.171  1.5297 -0.1185 -3.6143
   31CHL1   C14 3416   1.767   5.057   5.001  0.0858  0.2813 -0.4422
   31CHL1   H14 3417   1.657   5.063   4.985 -0.2194 -0.1881  1.3424
   31CHL1   C15 3418   1.823   4.946   4.906 -0.1072  0.3327 -0.1161
   31CHL1  H15A 3419   1.913   4.891   4.940  1.7099  2.4616 -1.1995
   31CHL1  H15B 3420   1.748   4.864   4.898  1.2341 -1.2406  2.3447
   31CHL1   C16 3421   1.829   5.023   4.775  0.2991 -0.2652  0.3619
   31CHL1  H16A 3422   1.935   5.005   4.746  0.3257 -2.4124  1.6577
   31CHL1  H16B 3423   1.769   4.969   4.699  2.7918  0.6122 -2.4228
   31CHL1   C17 3424   1.797   5.169   4.795 -0.3017 -0.1953  0.0644
   31CHL1   H17 3425   1.688   5.187   4.794 -0.1211  0.9960  0.0305
   31CHL1   C13 3426   1.824   5.193   4.947 -0.7389  0.7558  0.3177
   31CHL1   C18 3427   1.973   5.197   4.962  0.9776 -0.0576 -0.4786
   31CHL1  H18A 3428   1.997   5.292   4.909  1.7249  0.4367  0.7082
   31CHL1  H18B 3429   2.010   5.223   5.063  1.1918 -0.8179 -0.3584
   31CHL1  H18C 3430   2.026   5.108   4.921 -0.8414 -1.0685 -0.7584
   31CHL1   C12 3431   1.759   5.306   5.014 -0.4602 -0.1635 -0.3238
   31CHL1  H12A 3432   1.792   5.406   4.978 -0.2931  0.0286  0.3394
   31CHL1  H12B 3433   1.649   5.304   4.998 -0.3752  2.3311 -1.8007
   31CHL1   C11 3434   1.771   5.297   5.173  0.7422 -0.3722 -0.1265
   31CHL1  H11A 3435   1.868   5.332   5.212  0.0823  0.4218  0.8712
   31CHL1  H11B 3436   1.703   5.376   5.213 -2.7700 -3.2298  0.0347
   31CHL1    C9 3437   1.731   5.159   5.236  0.0031  1.2971  0.2495
   31CHL1    H9 3438   1.620   5.153   5.222 -0.1182  0.4470  1.4383
   31CHL1   C10 3439   1.745   5.141   5.390  0.1754 -0.0135 -0.0548
   31CHL1   C19 3440   1.895   5.167   5.426 -0.0689  0.5420  0.4666
   31CHL1  H19A 3441   1.970   5.110   5.367  0.9618  0.5220  1.7586
   31CHL1  H19B 3442   1.912   5.276   5.413  0.0627  0.7559  2.2336
   31CHL1  H19C 3443   1.925   5.145   5.530  0.7553 -2.0545 -0.2351
   31CHL1    C1 3444   1.647   5.241   5.460 -0.0605 -0.4997 -0.2075
   31CHL1   H1A 3445   1.678   5.347   5.448 -2.6908  0.4904  1.2019
   31CHL1   H1B 3446   1.549   5.231   5.410 -0.6086 -0.8275  0.9129
   31CHL1    C2 3447   1.632   5.217   5.613 -0.1770 -0.2229 -0.2593
   31CHL1   H2A 3448   1.548   5.278   5.653 -1.1932 -1.0205 -1.1310
   31CHL1   H2B 3449   1.728   5.248   5.660  0.8398 -1.5932 -1.3464
   31CHL1   C20 3450   1.862   5.257   4.682 -0.1752 -0.4617 -0.2710
   31CHL1   H20 3451   1.972   5.249   4.689 -0.2667 -0.6007  1.2834
   31CHL1   C21 3452   1.820   5.409   4.725  0.1318  0.1864 -0.0667
   31CHL1  H21A 3453   1.878   5.432   4.817 -0.3814 -3.6473  1.4156
   31CHL1  H21B 3454   1.710   5.420   4.739 -0.4512 -0.1345 -3.6102
   31CHL1  H21C 3455   1.852   5.486   4.653  0.8154  1.4420  1.5106
   31CHL1   C22 3456   1.806   5.236   4.542  0.0888  0.0800  0.2110
   31CHL1  H22A 3457   1.799   5.127   4.525 -1.7299  0.1208  0.5075
   31CHL1  H22B 3458   1.704   5.275   4.525 -0.4254 -1.7074 -1.1342
   31CHL1   C23 3459   1.915   5.292   4.442  0.1675  0.9212 -0.1169
   31CHL1  H23A 3460   2.004   5.324   4.500  0.1818  0.3221  0.1983
   31CHL1  H23B 3461   1.959   5.210   4.381  0.0892  0.4093  0.5079
   31CHL1   C24 3462   1.849   5.388   4.349  0.3479 -0.3157 -0.6181
   31CHL1  H24A 3463   1.774   5.337   4.285  0.0494  1.0911 -1.4502
   31CHL1  H24B 3464   1.788   5.459   4.409  2.5138  2.1028 -1.0434
   31CHL1   C25 3465   1.948   5.479   4.277 -0.1098  0.3973 -0.4115
   31CHL1   H25 3466   2.029   5.506   4.348 -0.5556 -0.8064  0.5774
   31CHL1   C26 3467   2.026   5.406   4.161  0.1700  0.0445 -0.0319
   31CHL1  H26A 3468   2.092   5.476   4.105 -1.7016 -0.2338 -2.7952
   31CHL1  H26B 3469   2.087   5.318   4.191  1.3151 -0.2265 -2.8057
   31CHL1  H26C 3470   1.955   5.373   4.082 -2.0244 -0.0981  1.8944
   31CHL1   C27 3471   1.893   5.608   4.223  0.0641  0.3941 -0.3957
   31CHL1  H27A 3472   1.878   5.676   4.310  0.7298 -0.7611  0.6510
   31CHL1  H27B 3473   1.967   5.668   4.166  0.9277  0.8023  1.0922
   31CHL1  H27C 3474   1.792   5.589   4.181  0.5870 -1.7992 -0.7333
   32CHL1    C3 3475   4.161   1.080   5.576  0.0283  0.4632  0.6179
   32CHL1    H3 3476   4.258   1.031   5.553 -0.4408 -0.5452  0.7156
   32CHL1    O3 3477   4.139   1.061   5.711 -0.0086 -0.0046 -0.6340
   32CHL1   H3' 3478   4.079   0.986   5.708  4.3529 -3.9502 -0.1450
   32CHL1    C4 3479   4.189   1.232   5.546  0.5149  0.7754 -0.5344
   32CHL1   H4A 3480   4.109   1.296   5.589  0.9360  0.0892  1.3535
   32CHL1   H4B 3481   4.286   1.259   5.593  0.3551 -0.3959  0.5152
   32CHL1    C5 3482   4.202   1.260   5.399  0.3090  0.4530  0.4727
   32CHL1    C6 3483   4.299   1.340   5.353 -0.2814 -0.8686 -0.4505
   32CHL1    H6 3484   4.379   1.371   5.422  0.5445 -2.1527 -0.8074
   32CHL1    C7 3485   4.323   1.370   5.204 -0.5388  0.1528 -0.2577
   32CHL1   H7A 3486   4.335   1.480   5.200 -0.8086  0.2924  1.6450
   32CHL1   H7B 3487   4.423   1.327   5.180 -0.3096  0.7708 -0.4241
   32CHL1    C8 3488   4.209   1.319   5.103 -0.0424  0.0891  0.3223
   32CHL1    H8 3489   4.136   1.402   5.092 -1.2474 -1.0204 -0.2494
   32CHL1   C14 3490   4.268   1.305   4.965 -0.6886  0.5957 -0.0547
   32CHL1   H14 3491   4.349   1.229   4.967 -1.5084 -0.3131 -0.4767
   32CHL1   C15 3492   4.324   1.435   4.907 -0.0066 -0.3781  0.5676
   32CHL1  H15A 3493   4.262   1.522   4.938 -2.9867 -1.0914 -2.6864
   32CHL1  H15B 3494   4.426   1.451   4.948 -0.2536 -0.0483  1.0673
   32CHL1   C16 3495   4.333   1.398   4.759 -0.2118  0.2069  0.2951
   32CHL1  H16A 3496   4.287   1.477   4.697  0.6808  0.2765 -0.2980
   32CHL1  H16B 3497   4.439   1.386   4.729 -0.3685 -2.4406  0.5656
   32CHL1   C17 3498   4.261   1.261   4.739  0.4697 -0.6236 -0.0342
   32CHL1   H17 3499   4.344   1.187   4.746  3.5273  2.4770 -0.7777
   32CHL1   C13 3500   4.171   1.249   4.862  0.6603 -0.6592 -0.6242
   32CHL1   C18 3501   4.049   1.348   4.849 -0.0703 -0.1389  0.7147
   32CHL1  H18A 3502   3.967   1.306   4.786 -1.7648  2.7877  0.7959
   32CHL1  H18B 3503   3.999   1.382   4.942 -0.0023  0.3173  0.5882
   32CHL1  H18C 3504   4.072   1.443   4.796 -0.6236  0.1076  0.9087
   32CHL1   C12 3505   4.122   1.110   4.911  0.2843  0.1616 -0.1901
   32CHL1  H12A 3506   4.042   1.067   4.846 -0.7963  1.6201  0.1184
   32CHL1  H12B 3507   4.203   1.035   4.917  1.2706  0.9769 -2.1647
   32CHL1   C11 3508   4.058   1.126   5.051 -0.1195 -0.7066  0.3555
   32CHL1  H11A 3509   3.964   1.183   5.046  1.2544  1.7957  1.3553
   32CHL1  H11B 3510   4.038   1.020   5.081  0.4187 -0.8469  0.2349
   32CHL1    C9 3511   4.154   1.185   5.155 -0.0362 -0.1917 -0.5552
   32CHL1    H9 3512   4.238   1.113   5.146  0.4082  0.2747 -0.2128
   32CHL1   C10 3513   4.110   1.181   5.301  0.7291 -0.7150 -0.1134
   32CHL1   C19 3514   3.963   1.244   5.314  0.0075  0.2524 -0.4672
   32CHL1  H19A 3515   3.943   1.238   5.423  0.8154  0.6297 -0.2886
   32CHL1  H19B 3516   3.963   1.347   5.273 -0.0993 -0.3309 -1.9776
   32CHL1  H19C 3517   3.900   1.183   5.246  1.2316  0.1148 -1.5013
   32CHL1    C1 3518   4.099   1.029   5.339  0.1721 -0.2528  0.0111
   32CHL1   H1A 3519   4.019   0.978   5.282  1.1673  0.9340 -2.5990
   32CHL1   H1B 3520   4.202   0.993   5.315  0.8757  1.3547  0.4903
   32CHL1    C2 3521   4.064   1.006   5.484  0.2708  0.2455  0.1478
   32CHL1   H2A 3522   4.049   0.897   5.500 -0.6241  0.0833 -1.5563
   32CHL1   H2B 3523   3.964   1.051   5.502 -1.5096 -2.6495 -1.6974
   32CHL1   C20 3524   4.193   1.238   4.605  0.5767  0.0285 -0.0515
   32CHL1   H20 3525   4.091   1.283   4.606  0.5964  0.0728  1.1303
   32CHL1   C21 3526   4.182   1.079   4.582  0.3275 -0.4932  0.6157
   32CHL1  H21A 3527   4.150   1.057   4.478 -2.0277 -0.0512  1.1881
   32CHL1  H21B 3528   4.103   1.045   4.652 -0.6688  0.3312 -0.0619
   32CHL1  H21C 3529   4.277   1.025   4.602  0.0155 -2.0139 -1.5863
   32CHL1   C22 3530   4.255   1.302   4.470  0.6180 -0.0925 -0.3922
   32CHL1  H22A 3531   4.185   1.266   4.392 -0.1998 -0.5690  0.5377
   32CHL1  H22B 3532   4.252   1.413   4.483  0.4282 -0.2572  1.1469
   32CHL1   C23 3533   4.400   1.259   4.443  0.1139 -0.0889  0.2284
   32CHL1  H23A 3534   4.460   1.307   4.523 -1.1786  3.4008 -0.6914
   32CHL1  H23B 3535   4.410   1.148   4.445  1.0847 -0.0764 -1.7687
   32CHL1   C24 3536   4.444   1.301   4.303 -0.2105 -0.4644  0.0856
   32CHL1  H24A 3537   4.422   1.407   4.279 -0.6887 -0.6733 -0.4109
   32CHL1  H24B 3538   4.555   1.295   4.295 -0.2081  1.7105 -4.3063
   32CHL1   C25 3539   4.390   1.219   4.182 -0.0193  0.0918  0.4259
   32CHL1   H25 3540   4.280   1.218   4.188 -0.0056 -0.6677  0.6204
   32CHL1   C26 3541   4.445   1.291   4.051 -1.3213 -0.2564 -0.2366
   32CHL1  H26A 3542   4.556   1.288   4.059 -1.3388  1.5911  1.5730
   32CHL1  H26B 3543   4.416   1.226   3.966 -1.2643 -2.0428  1.0420
   32CHL1  H26C 3544   4.390   1.386   4.032  0.6947  0.7918 -1.1038
   32CHL1   C27 3545   4.434   1.073   4.203 -0.1441 -0.5378 -0.2000
   32CHL1  H27A 3546   4.543   1.069   4.228  0.3928  5.2531 -0.3117
   32CHL1  H27B 3547   4.373   1.019   4.279 -3.5796  0.3074 -2.1616
   32CHL1  H27C 3548   4.438   1.021   4.105  0.3427 -0.7066 -0.0920
   33CHL1    C3 3549   1.063   3.439   5.573 -0.4409 -0.5697  0.1542
   33CHL1    H3 3550   0.958   3.443   5.538 -1.0276 -1.7528  1.6165
   33CHL1    O3 3551   1.065   3.382   5.706  0.0735  0.1253 -0.0237
   33CHL1   H3' 3552   1.157   3.389   5.733  0.5544 -0.8172 -1.3400
   33CHL1    C4 3553   1.148   3.367   5.479  0.2092 -0.1169 -0.1490
   33CHL1   H4A 3554   1.251   3.369   5.519  0.9506 -0.2194 -1.9518
   33CHL1   H4B 3555   1.122   3.260   5.466  3.7542 -1.0457 -0.5395
   33CHL1    C5 3556   1.162   3.427   5.341 -0.5864 -0.5005 -0.2498
   33CHL1    C6 3557   1.133   3.363   5.226 -0.4334 -0.0052 -0.0387
   33CHL1    H6 3558   1.102   3.257   5.225 -2.1619  0.4652 -0.7958
   33CHL1    C7 3559   1.141   3.414   5.084  0.9249  0.4169 -0.7822
   33CHL1   H7A 3560   1.181   3.334   5.018  0.4663  0.3265 -0.9573
   33CHL1   H7B 3561   1.039   3.438   5.047  0.4008  2.3464  1.6622
   33CHL1    C8 3562   1.227   3.537   5.082 -0.3373  0.1369 -0.2365
   33CHL1    H8 3563   1.330   3.499   5.099 -0.0634  1.2663  0.7793
   33CHL1   C14 3564   1.236   3.606   4.944 -0.5562 -0.0737 -0.5383
   33CHL1   H14 3565   1.133   3.642   4.923 -0.1894  0.2543 -1.8582
   33CHL1   C15 3566   1.277   3.526   4.824  0.1648  0.2946  0.0398
   33CHL1  H15A 3567   1.370   3.475   4.854 -0.3745 -1.0963 -0.5777
   33CHL1  H15B 3568   1.199   3.450   4.803 -0.0426  0.4420  0.2676
   33CHL1   C16 3569   1.305   3.634   4.711 -0.5442  0.6584 -0.5557
   33CHL1  H16A 3570   1.404   3.623   4.662 -0.9222 -0.4840 -1.0746
   33CHL1  H16B 3571   1.235   3.636   4.625 -0.0424  0.6721 -0.9670
   33CHL1   C17 3572   1.307   3.771   4.788 -0.8123  0.0693 -0.7124
   33CHL1   H17 3573   1.204   3.809   4.774 -1.1584 -0.7190 -0.3213
   33CHL1   C13 3574   1.322   3.738   4.935  0.1245  0.7139 -0.6807
   33CHL1   C18 3575   1.476   3.717   4.972  0.3484 -0.3701  0.3236
   33CHL1  H18A 3576   1.483   3.661   5.068  0.0650 -4.0743 -1.6437
   33CHL1  H18B 3577   1.519   3.651   4.895  1.4922  1.3894 -0.6169
   33CHL1  H18C 3578   1.527   3.816   4.980  2.5950 -1.2019 -2.1442
   33CHL1   C12 3579   1.259   3.837   5.038  0.7375 -0.2648  0.1546
   33CHL1  H12A 3580   1.311   3.935   5.034 -0.8982  0.6188 -1.4147
   33CHL1  H12B 3581   1.153   3.857   5.010  0.5365 -1.7712 -0.2229
   33CHL1   C11 3582   1.256   3.781   5.180 -0.0135  0.2128 -0.4548
   33CHL1  H11A 3583   1.362   3.791   5.213  0.2877 -0.0840 -1.3053
   33CHL1  H11B 3584   1.201   3.851   5.246 -0.5349 -0.6630  0.0605
   33CHL1    C9 3585   1.187   3.636   5.190 -0.4802 -0.5306 -0.0410
   33CHL1    H9 3586   1.078   3.643   5.173 -0.4572  1.1866  0.3787
   33CHL1   C10 3587   1.212   3.577   5.335 -0.1759 -0.4606  0.0792
   33CHL1   C19 3588   1.360   3.576   5.362  0.9798  0.4475  0.0471
   33CHL1  H19A 3589   1.420   3.524   5.283  1.2498  0.4662  0.2398
   33CHL1  H19B 3590   1.400   3.680   5.369 -1.3070  1.2586  2.8881
   33CHL1  H19C 3591   1.377   3.522   5.457 -0.5700  0.9038  0.6036
   33CHL1    C1 3592   1.131   3.651   5.439 -0.0583  0.0846 -0.4099
   33CHL1   H1A 3593   1.159   3.759   5.443  2.0106 -0.4295 -0.0329
   33CHL1   H1B 3594   1.027   3.653   5.398 -1.1195  1.0042  2.1019
   33CHL1    C2 3595   1.123   3.582   5.582  0.0020 -0.0640  0.4793
   33CHL1   H2A 3596   1.050   3.640   5.642 -0.3583 -1.3500  1.3301
   33CHL1   H2B 3597   1.224   3.565   5.625  0.2714 -0.6896 -0.3696
   33CHL1   C20 3598   1.403   3.878   4.727  0.6881 -0.1163  0.4417
   33CHL1   H20 3599   1.505   3.835   4.726  1.4310  1.4888  2.5318
   33CHL1   C21 3600   1.394   4.014   4.801  0.1921 -0.1110 -0.1907
   33CHL1  H21A 3601   1.433   4.096   4.738  0.4685 -0.3651 -0.3519
   33CHL1  H21B 3602   1.457   4.011   4.892 -1.1059 -0.7174  0.7237
   33CHL1  H21C 3603   1.289   4.035   4.832  0.5631  2.9183 -0.7278
   33CHL1   C22 3604   1.372   3.905   4.576 -0.3354  0.1219 -0.1294
   33CHL1  H22A 3605   1.340   3.813   4.522 -3.2791  0.3065  1.1150
   33CHL1  H22B 3606   1.286   3.976   4.574 -1.0364 -0.7093 -0.2821
   33CHL1   C23 3607   1.491   3.961   4.496 -0.8210  0.4339  0.5540
   33CHL1  H23A 3608   1.515   4.062   4.537  0.1603  0.2483  0.4564
   33CHL1  H23B 3609   1.584   3.900   4.498 -2.3931 -2.1131  0.2831
   33CHL1   C24 3610   1.459   3.987   4.340 -0.1419 -0.1613 -0.4438
   33CHL1  H24A 3611   1.411   3.894   4.302  1.1732 -1.5929  1.2357
   33CHL1  H24B 3612   1.382   4.067   4.333  2.3980  2.3291 -1.4981
   33CHL1   C25 3613   1.594   4.006   4.264  1.6290 -0.3743  0.3405
   33CHL1   H25 3614   1.567   4.039   4.161  0.2620  0.1481  0.8543
   33CHL1   C26 3615   1.678   4.120   4.318 -0.7936 -0.9383  0.0392
   33CHL1  H26A 3616   1.773   4.122   4.259 -0.3658  1.0304  0.6883
   33CHL1  H26B 3617   1.631   4.220   4.304 -0.8098 -0.8584  0.6499
   33CHL1  H26C 3618   1.704   4.113   4.425 -0.9510  0.2156  0.1736
   33CHL1   C27 3619   1.679   3.879   4.246  0.4117  0.4469  0.1980
   33CHL1  H27A 3620   1.761   3.906   4.177  1.4245 -2.1955  0.2457
   33CHL1  H27B 3621   1.740   3.853   4.335  0.9428  0.8003 -0.0591
   33CHL1  H27C 3622   1.636   3.790   4.195  1.9658 -0.5047  0.4553
   34CHL1    C3 3623   1.868   5.597   5.893 -0.2271 -0.7418  0.0486
   34CHL1    H3 3624   1.978   5.605   5.911 -0.2565  0.3572 -0.1717
   34CHL1    O3 3625   1.808   5.562   6.018 -0.0760 -0.3061  0.1386
   34CHL1   H3' 3626   1.791   5.645   6.063  2.9866 -0.0308  1.0112
   34CHL1    C4 3627   1.811   5.732   5.843 -0.4183 -0.0021 -0.2152
   34CHL1   H4A 3628   1.700   5.736   5.836 -0.3310  2.1340 -1.3523
   34CHL1   H4B 3629   1.829   5.809   5.921 -1.1438 -0.3420  0.3015
   34CHL1    C5 3630   1.881   5.766   5.714 -1.0589  0.2209  0.1499
   34CHL1    C6 3631   1.955   5.871   5.690 -0.9066 -0.1970 -0.9947
   34CHL1    H6 3632   1.974   5.952   5.762 -2.4974 -1.7283  1.2656
   34CHL1    C7 3633   2.014   5.906   5.556 -0.1598  0.2981 -0.0251
   34CHL1   H7A 3634   1.994   6.013   5.533  0.3937 -0.1539 -3.1739
   34CHL1   H7B 3635   2.122   5.886   5.542  0.0910  1.5340 -0.0070
   34CHL1    C8 3636   1.947   5.826   5.443 -0.2328 -0.3095  0.3674
   34CHL1    H8 3637   1.846   5.868   5.425  0.9791  3.1871  0.8376
   34CHL1   C14 3638   2.026   5.844   5.310 -0.3162  0.2439 -0.4668
   34CHL1   H14 3639   2.124   5.798   5.334 -0.5366  0.4992  1.0050
   34CHL1   C15 3640   2.044   5.992   5.269  0.4286 -0.3139  0.9703
   34CHL1  H15A 3641   1.952   6.053   5.273 -0.9817 -2.1789 -0.8019
   34CHL1  H15B 3642   2.123   6.033   5.335  2.3543 -3.4010  0.8475
   34CHL1   C16 3643   2.079   5.984   5.114  0.8418  0.3426 -0.8686
   34CHL1  H16A 3644   2.019   6.058   5.057  1.4310  1.3546 -0.2050
   34CHL1  H16B 3645   2.186   6.010   5.096  1.3554  0.1620  1.5812
   34CHL1   C17 3646   2.062   5.832   5.078  0.3461  0.0180  0.0526
   34CHL1   H17 3647   2.157   5.777   5.096  0.1170  0.4043  3.0475
   34CHL1   C13 3648   1.968   5.772   5.184  0.2262  0.1189 -0.0798
   34CHL1   C18 3649   1.821   5.822   5.156  0.4526  0.0125  0.9110
   34CHL1  H18A 3650   1.762   5.787   5.243  0.9054 -0.6351  0.9608
   34CHL1  H18B 3651   1.813   5.932   5.145 -0.0327 -0.0900  0.2397
   34CHL1  H18C 3652   1.779   5.778   5.064  1.5223  0.2409  0.2941
   34CHL1   C12 3653   1.975   5.619   5.222  0.0852 -0.7703  0.9268
   34CHL1  H12A 3654   1.938   5.548   5.144  0.8156 -0.3931  0.2236
   34CHL1  H12B 3655   2.078   5.590   5.251  0.2228 -0.5336  0.6787
   34CHL1   C11 3656   1.905   5.592   5.349 -0.0575 -0.0787 -0.8529
   34CHL1  H11A 3657   1.794   5.602   5.339 -0.2586  0.3919  1.3852
   34CHL1  H11B 3658   1.931   5.487   5.373  0.9255 -0.2210 -2.4169
   34CHL1    C9 3659   1.946   5.676   5.474 -0.2969 -0.7007 -0.6171
   34CHL1    H9 3660   2.047   5.647   5.509 -0.7555 -0.6516  0.8432
   34CHL1   C10 3661   1.861   5.644   5.604  0.3280  0.4173 -0.0121
   34CHL1   C19 3662   1.711   5.654   5.578  0.3687 -0.3609  0.8192
   34CHL1  H19A 3663   1.685   5.575   5.504  0.0204  1.1803 -0.7523
   34CHL1  H19B 3664   1.642   5.641   5.664 -1.4397  1.0761 -0.3420
   34CHL1  H19C 3665   1.686   5.754   5.538  0.1115 -1.4921 -2.0620
   34CHL1    C1 3666   1.896   5.506   5.656  0.1169 -0.2832  0.1379
   34CHL1   H1A 3667   1.866   5.432   5.580 -0.8471 -2.1513  2.2280
   34CHL1   H1B 3668   2.007   5.507   5.664  0.0021 -0.4015  2.5471
   34CHL1    C2 3669   1.835   5.481   5.795  0.0596  0.4147  0.3019
   34CHL1   H2A 3670   1.882   5.393   5.843 -0.2785 -0.8153 -1.5455
   34CHL1   H2B 3671   1.725   5.468   5.785  0.1111 -0.7477  1.0954
   34CHL1   C20 3672   2.023   5.822   4.926  0.2903 -0.1023  0.2830
   34CHL1   H20 3673   1.938   5.886   4.894  0.0290 -1.5238 -2.1493
   34CHL1   C21 3674   1.978   5.681   4.881 -0.6100 -0.8052  0.1300
   34CHL1  H21A 3675   1.966   5.681   4.771  1.5814 -0.4769 -0.1589
   34CHL1  H21B 3676   1.882   5.656   4.931 -1.1586 -1.7622 -1.3434
   34CHL1  H21C 3677   2.058   5.613   4.917 -0.7834 -1.3698 -0.5513
   34CHL1   C22 3678   2.139   5.878   4.837  0.8975 -0.5504  0.1343
   34CHL1  H22A 3679   2.181   5.975   4.872  1.4687 -0.2562 -1.3066
   34CHL1  H22B 3680   2.222   5.803   4.841  1.3870 -0.1677 -1.7397
   34CHL1   C23 3681   2.103   5.898   4.691 -0.0590 -0.1450 -0.0308
   34CHL1  H23A 3682   2.075   5.799   4.648 -2.2042  0.0858  0.7190
   34CHL1  H23B 3683   2.011   5.958   4.698  0.9325  1.8036 -2.3686
   34CHL1   C24 3684   2.210   5.966   4.599  0.4847 -0.8819  0.4097
   34CHL1  H24A 3685   2.243   6.060   4.646 -1.7575 -0.2200  0.7789
   34CHL1  H24B 3686   2.298   5.898   4.595  1.2096 -0.0919  2.0945
   34CHL1   C25 3687   2.171   6.003   4.451  0.1029  0.5260 -0.2742
   34CHL1   H25 3688   2.264   6.028   4.395 -0.3369  0.0048 -1.2630
   34CHL1   C26 3689   2.098   5.887   4.382  0.2720 -0.6364  0.2480
   34CHL1  H26A 3690   1.994   5.882   4.419 -0.2958 -2.6850 -1.4347
   34CHL1  H26B 3691   2.104   5.896   4.271 -3.4313 -1.3704 -0.1417
   34CHL1  H26C 3692   2.147   5.794   4.418  2.5330  0.2615 -0.3199
   34CHL1   C27 3693   2.093   6.132   4.440 -0.2408 -0.5484 -0.0517
   34CHL1  H27A 3694   2.087   6.168   4.335 -1.6093 -1.1002 -0.1786
   34CHL1  H27B 3695   1.996   6.131   4.494  1.0056  0.1057  2.3206
   34CHL1  H27C 3696   2.156   6.208   4.491 -1.7893  1.3046 -0.7342
   35CHL1    C3 3697   2.602   5.788   5.568  0.7917  0.3918 -0.2626
   35CHL1    H3 3698   2.712   5.798   5.553  0.6456  1.0653 -0.9269
   35CHL1    O3 3699   2.557   5.784   5.704  0.2445  0.5058  0.3287
   35CHL1   H3' 3700   2.590   5.701   5.738  0.5929  0.1648 -0.7938
   35CHL1    C4 3701   2.539   5.907   5.498  0.3904  0.0172 -0.4551
   35CHL1   H4A 3702   2.429   5.905   5.513  0.6028 -0.3098  1.3229
   35CHL1   H4B 3703   2.580   5.999   5.546 -0.2484 -0.1605  0.4594
   35CHL1    C5 3704   2.568   5.912   5.352 -1.0029  0.3110  0.8331
   35CHL1    C6 3705   2.637   6.012   5.295  0.2058 -0.6087 -0.5311
   35CHL1    H6 3706   2.677   6.090   5.362 -1.7381 -1.2499  1.4762
   35CHL1    C7 3707   2.681   6.018   5.156  0.3913  0.9227  0.1024
   35CHL1   H7A 3708   2.684   6.122   5.116  1.2272  1.1233  0.6541
   35CHL1   H7B 3709   2.790   6.000   5.155  0.4549  1.1490  1.5978
   35CHL1    C8 3710   2.615   5.922   5.057 -0.1474 -0.0750 -0.4400
   35CHL1    H8 3711   2.511   5.956   5.036 -0.6887 -0.8046  0.9039
   35CHL1   C14 3712   2.687   5.913   4.924  0.2632  0.1899 -0.8382
   35CHL1   H14 3713   2.787   5.880   4.960  0.1917  0.1366 -0.6873
   35CHL1   C15 3714   2.708   6.042   4.855 -0.3577  0.3889 -0.1265
   35CHL1  H15A 3715   2.615   6.102   4.855 -0.8891 -0.4004 -1.7935
   35CHL1  H15B 3716   2.796   6.095   4.899  1.5753 -1.9764 -0.9298
   35CHL1   C16 3717   2.743   6.003   4.708 -1.1368 -0.2267 -0.1419
   35CHL1  H16A 3718   2.666   6.059   4.651 -1.1400  0.3899  0.4514
   35CHL1  H16B 3719   2.846   6.033   4.678 -1.6735 -0.0864 -1.9668
   35CHL1   C17 3720   2.734   5.850   4.707  0.2473 -0.4716  0.3227
   35CHL1   H17 3721   2.838   5.822   4.734  0.5044 -0.4993 -0.6413
   35CHL1   C13 3722   2.635   5.815   4.822  0.1854 -0.0028  0.0814
   35CHL1   C18 3723   2.488   5.852   4.789  0.4608  0.7876 -0.5378
   35CHL1  H18A 3724   2.417   5.851   4.875  1.3372 -0.3878  0.1970
   35CHL1  H18B 3725   2.476   5.950   4.739  1.3928 -0.1134 -2.6380
   35CHL1  H18C 3726   2.441   5.775   4.724  0.7862 -0.8456  1.0851
   35CHL1   C12 3727   2.628   5.674   4.888 -0.6160 -0.4101 -0.2400
   35CHL1  H12A 3728   2.580   5.598   4.823  1.0749 -2.1441  0.4558
   35CHL1  H12B 3729   2.728   5.634   4.916  0.0671  1.5236  0.2500
   35CHL1   C11 3730   2.557   5.682   5.023  0.1984 -0.2503 -0.7849
   35CHL1  H11A 3731   2.449   5.707   5.015  0.7449  2.7643 -0.2162
   35CHL1  H11B 3732   2.554   5.581   5.069 -1.5775 -0.1556 -0.6014
   35CHL1    C9 3733   2.613   5.784   5.130  0.1075 -0.4491  0.1059
   35CHL1    H9 3734   2.720   5.756   5.146  0.5613 -0.5160 -2.5273
   35CHL1   C10 3735   2.549   5.785   5.267  0.0979 -0.2403  0.5763
   35CHL1   C19 3736   2.394   5.764   5.259 -0.3015 -0.3242  0.4184
   35CHL1  H19A 3737   2.343   5.831   5.186 -0.2911 -1.5427 -0.7381
   35CHL1  H19B 3738   2.373   5.662   5.222  1.5235 -0.4587 -0.3875
   35CHL1  H19C 3739   2.336   5.773   5.353 -0.5850  0.0797  0.2053
   35CHL1    C1 3740   2.605   5.673   5.354 -0.2485  0.5954 -0.0462
   35CHL1   H1A 3741   2.583   5.574   5.308  2.3834 -0.5713  0.9916
   35CHL1   H1B 3742   2.716   5.674   5.362 -0.3155 -0.8353  2.1360
   35CHL1    C2 3743   2.551   5.662   5.491  0.3406  0.2968 -0.2871
   35CHL1   H2A 3744   2.589   5.576   5.550 -3.0285 -0.3896  1.1635
   35CHL1   H2B 3745   2.440   5.655   5.499  0.3597  0.5011  0.2305
   35CHL1   C20 3746   2.700   5.781   4.571  0.1774  0.4792 -0.6962
   35CHL1   H20 3747   2.650   5.685   4.595 -2.3510  1.3597 -2.0619
   35CHL1   C21 3748   2.838   5.749   4.515 -0.7504 -0.6223 -0.3481
   35CHL1  H21A 3749   2.894   5.844   4.508 -0.5733 -0.5386  1.7598
   35CHL1  H21B 3750   2.840   5.697   4.416  0.0521 -0.9887 -0.1407
   35CHL1  H21C 3751   2.884   5.686   4.594  0.6854  0.3635 -0.3601
   35CHL1   C22 3752   2.603   5.859   4.480 -0.1456 -0.1918  0.1023
   35CHL1  H22A 3753   2.518   5.909   4.532  0.9819 -0.2807  2.1153
   35CHL1  H22B 3754   2.675   5.926   4.429  1.0631 -0.5099  1.3398
   35CHL1   C23 3755   2.546   5.767   4.368 -0.4577 -0.1443 -0.5926
   35CHL1  H23A 3756   2.620   5.700   4.320  0.9609  0.2574  0.9340
   35CHL1  H23B 3757   2.475   5.699   4.421  0.6111 -1.4547 -0.7886
   35CHL1   C24 3758   2.466   5.854   4.265  0.3402  0.0365 -1.2818
   35CHL1  H24A 3759   2.371   5.892   4.309  0.9905 -0.3676  0.5393
   35CHL1  H24B 3760   2.531   5.937   4.233  0.2885  0.5339 -0.1447
   35CHL1   C25 3761   2.431   5.775   4.136  0.6145  0.0252  0.6435
   35CHL1   H25 3762   2.523   5.748   4.080  0.9620  0.0012  1.2223
   35CHL1   C26 3763   2.366   5.636   4.157  0.2913  0.1914  0.1062
   35CHL1  H26A 3764   2.274   5.639   4.219 -0.2072  0.6846 -0.6330
   35CHL1  H26B 3765   2.330   5.601   4.058 -1.8707 -1.4128  1.3839
   35CHL1  H26C 3766   2.442   5.564   4.193  2.0371  1.2514 -1.2976
   35CHL1   C27 3767   2.337   5.848   4.043 -0.3263  0.3376 -0.7380
   35CHL1  H27A 3768   2.370   5.953   4.026 -1.4773  1.2646  2.0765
   35CHL1  H27B 3769   2.337   5.798   3.944  1.0823 -2.1793  0.4381
   35CHL1  H27C 3770   2.233   5.858   4.083  0.2267 -0.4233  0.9681
   36CHL1    C3 3771   0.767   3.867   5.501 -0.0644  0.2312 -0.1942
   36CHL1    H3 3772   0.867   3.871   5.548 -1.3400 -1.4756  2.9488
   36CHL1    O3 3773   0.695   3.796   5.598  0.1009 -0.5716 -0.1657
   36CHL1   H3' 3774   0.700   3.705   5.566  3.2923  0.0988 -1.9857
   36CHL1    C4 3775   0.702   4.005   5.479 -0.0594  0.5876 -0.9190
   36CHL1   H4A 3776   0.604   3.980   5.435  0.7453  0.5013 -2.7430
   36CHL1   H4B 3777   0.690   4.047   5.581 -1.2713 -3.8265  1.0100
   36CHL1    C5 3778   0.786   4.076   5.374  0.0750 -0.2764 -0.7576
   36CHL1    C6 3779   0.849   4.194   5.405  0.6530 -0.2110  0.2961
   36CHL1    H6 3780   0.847   4.230   5.509 -0.2380 -1.6150  0.7989
   36CHL1    C7 3781   0.934   4.273   5.308 -0.0323  0.0993  1.3067
   36CHL1   H7A 3782   0.907   4.381   5.311  0.2734  0.1619  3.1620
   36CHL1   H7B 3783   1.043   4.260   5.323  0.6280  1.2168 -1.7828
   36CHL1    C8 3784   0.908   4.235   5.159 -0.7869  0.3682 -0.1603
   36CHL1    H8 3785   0.812   4.272   5.118 -1.9940 -0.3290  1.9158
   36CHL1   C14 3786   1.009   4.297   5.059 -0.4469  0.1435 -0.7240
   36CHL1   H14 3787   1.109   4.258   5.084 -1.5377 -1.8797  0.7450
   36CHL1   C15 3788   1.029   4.452   5.056  0.5522  0.4399  0.5695
   36CHL1  H15A 3789   0.928   4.489   5.084  0.9150 -0.1193  2.7808
   36CHL1  H15B 3790   1.097   4.493   5.133  0.8027  2.0162 -0.4268
   36CHL1   C16 3791   1.073   4.491   4.911  0.0046 -0.0776 -0.1561
   36CHL1  H16A 3792   0.989   4.543   4.859 -0.1625 -1.6017 -1.4733
   36CHL1  H16B 3793   1.166   4.551   4.912  0.7949 -1.2390 -1.1616
   36CHL1   C17 3794   1.092   4.352   4.840 -0.4058 -0.3099  0.0522
   36CHL1   H17 3795   1.192   4.316   4.870 -1.2786 -2.0723  0.9666
   36CHL1   C13 3796   0.991   4.262   4.914  0.3364  0.0418  0.3837
   36CHL1   C18 3797   0.852   4.306   4.859 -0.4297  0.3486 -0.5047
   36CHL1  H18A 3798   0.778   4.235   4.902 -0.2270  0.4034 -0.0553
   36CHL1  H18B 3799   0.829   4.402   4.909 -0.1241 -0.1993  0.7438
   36CHL1  H18C 3800   0.832   4.307   4.750 -0.3813 -2.1212 -0.6074
   36CHL1   C12 3801   1.007   4.108   4.901  0.3208 -0.8204  0.4799
   36CHL1  H12A 3802   0.979   4.079   4.797  0.7503  1.2199 -0.2437
   36CHL1  H12B 3803   1.107   4.077   4.937 -0.4038 -3.3709  0.5385
   36CHL1   C11 3804   0.907   4.034   4.990 -0.4165 -0.5188 -0.2287
   36CHL1  H11A 3805   0.811   4.035   4.935  0.6008 -0.9290 -2.1024
   36CHL1  H11B 3806   0.942   3.929   4.992  0.7109 -0.1633 -0.4996
   36CHL1    C9 3807   0.913   4.085   5.145  0.0932  0.0923 -0.1453
   36CHL1    H9 3808   1.014   4.051   5.177  0.1140 -0.4386 -0.7547
   36CHL1   C10 3809   0.808   4.012   5.238  1.1493  0.1061 -0.4570
   36CHL1   C19 3810   0.676   4.016   5.154 -0.0970 -0.1186 -0.3750
   36CHL1  H19A 3811   0.679   3.937   5.076 -3.1984 -0.4642 -0.2875
   36CHL1  H19B 3812   0.588   3.985   5.214 -0.2811 -1.0369 -1.1103
   36CHL1  H19C 3813   0.653   4.112   5.101  0.7204 -1.1783 -2.8045
   36CHL1    C1 3814   0.850   3.869   5.263 -0.3566  0.5890 -0.0443
   36CHL1   H1A 3815   0.845   3.804   5.173  1.3069 -1.1994  1.0866
   36CHL1   H1B 3816   0.956   3.878   5.293  0.1162  0.2040 -1.5070
   36CHL1    C2 3817   0.772   3.787   5.368 -0.3897  0.3492  0.3008
   36CHL1   H2A 3818   0.808   3.683   5.367  2.8759  1.3258 -2.0778
   36CHL1   H2B 3819   0.671   3.779   5.321  0.1001 -2.1772 -0.4547
   36CHL1   C20 3820   1.093   4.365   4.686 -0.5593  0.8308  0.0256
   36CHL1   H20 3821   0.993   4.386   4.641 -0.8248  0.6241  0.5096
   36CHL1   C21 3822   1.133   4.233   4.624 -0.2977  0.8822  0.5047
   36CHL1  H21A 3823   1.165   4.264   4.523  0.2889  1.5818  0.8952
   36CHL1  H21B 3824   1.046   4.164   4.619  1.0783 -0.9147  0.2305
   36CHL1  H21C 3825   1.224   4.186   4.666  0.0727 -0.0861 -1.2846
   36CHL1   C22 3826   1.190   4.469   4.638  0.2755 -0.5753  0.1214
   36CHL1  H22A 3827   1.182   4.489   4.529  0.5860 -0.2448  0.1573
   36CHL1  H22B 3828   1.150   4.560   4.687 -0.0358 -1.3806  1.3994
   36CHL1   C23 3829   1.337   4.451   4.672 -0.3271 -0.4779 -0.3518
   36CHL1  H23A 3830   1.343   4.428   4.781  0.3010 -0.7511 -0.4391
   36CHL1  H23B 3831   1.378   4.361   4.620  0.3495  0.5522 -1.6651
   36CHL1   C24 3832   1.416   4.578   4.646  0.8626  0.4613 -0.0290
   36CHL1  H24A 3833   1.390   4.608   4.543  2.3645 -0.2337 -0.6397
   36CHL1  H24B 3834   1.378   4.654   4.717  0.5297  0.3488 -0.0877
   36CHL1   C25 3835   1.563   4.555   4.645 -0.8151 -0.5184 -0.3970
   36CHL1   H25 3836   1.589   4.485   4.728  1.8216  0.1957 -0.5042
   36CHL1   C26 3837   1.606   4.482   4.519 -0.4064 -0.4377 -0.2358
   36CHL1  H26A 3838   1.716   4.465   4.520  0.1626  2.6314 -1.1285
   36CHL1  H26B 3839   1.553   4.385   4.504 -2.0429  0.2891  0.6265
   36CHL1  H26C 3840   1.581   4.543   4.430  1.8416 -0.7180 -1.1146
   36CHL1   C27 3841   1.653   4.678   4.678  0.1634 -0.0702  0.9066
   36CHL1  H27A 3842   1.616   4.741   4.762 -1.4398  1.3611 -0.7769
   36CHL1  H27B 3843   1.758   4.644   4.691 -0.4212 -3.1748 -1.2563
   36CHL1  H27C 3844   1.636   4.758   4.603 -0.8729  0.0178  1.2170
   37CHL1    C3 3845   0.838   1.902   5.624 -0.0321  0.0024 -0.1574
   37CHL1    H3 3846   0.811   2.008   5.646 -2.7157 -0.5374 -0.5863
   37CHL1    O3 3847   0.840   1.833   5.748 -0.5711 -0.4249 -0.1794
   37CHL1   H3' 3848   0.842   1.741   5.723  0.0594 -0.3642 -0.3592
   37CHL1    C4 3849   0.734   1.844   5.526  0.3170 -0.3244 -0.2982
   37CHL1   H4A 3850   0.743   1.735   5.505 -1.6446 -0.8508  1.3573
   37CHL1   H4B 3851   0.636   1.868   5.571 -0.2564  0.0361 -1.6908
   37CHL1    C5 3852   0.741   1.917   5.400 -0.5693 -0.1125  1.5467
   37CHL1    C6 3853   0.638   1.987   5.342 -0.4649  0.7343  0.4623
   37CHL1    H6 3854   0.538   1.997   5.388 -0.4967  2.2939  0.1063
   37CHL1    C7 3855   0.643   2.052   5.207 -0.9431 -0.2917 -0.1398
   37CHL1   H7A 3856   0.553   2.024   5.147 -0.8465  0.9542 -0.8995
   37CHL1   H7B 3857   0.637   2.162   5.221 -2.4414 -0.5762  1.8207
   37CHL1    C8 3858   0.766   2.023   5.125 -0.1239 -0.4186  0.1138
   37CHL1    H8 3859   0.746   1.927   5.073 -0.4950  0.0904 -0.7076
   37CHL1   C14 3860   0.790   2.128   5.017  0.8602  0.0446 -0.5520
   37CHL1   H14 3861   0.811   2.221   5.074 -0.7419 -0.5747  1.1620
   37CHL1   C15 3862   0.671   2.191   4.935 -0.5737  0.1695 -0.2594
   37CHL1  H15A 3863   0.590   2.122   4.904 -1.3594  1.3167 -0.7935
   37CHL1  H15B 3864   0.612   2.273   4.980  1.3588  1.4126  0.1126
   37CHL1   C16 3865   0.748   2.242   4.811  0.1628  0.0548  0.1389
   37CHL1  H16A 3866   0.711   2.193   4.718  0.5468  0.0378 -0.0066
   37CHL1  H16B 3867   0.731   2.351   4.799  1.5374  0.4473  1.4983
   37CHL1   C17 3868   0.902   2.220   4.834 -0.0837  0.3104  0.0873
   37CHL1   H17 3869   0.928   2.310   4.894  0.1566 -0.2903  0.9033
   37CHL1   C13 3870   0.913   2.101   4.931  0.5682 -0.1457 -0.0709
   37CHL1   C18 3871   0.915   1.959   4.862  0.4119  0.4108  0.0265
   37CHL1  H18A 3872   0.981   1.953   4.773 -1.1622  1.2979 -1.2283
   37CHL1  H18B 3873   0.955   1.876   4.925 -0.9567  0.0949  0.5031
   37CHL1  H18C 3874   0.810   1.930   4.840  0.0771 -0.4697  2.4324
   37CHL1   C12 3875   1.034   2.110   5.029 -0.7912 -0.7950 -0.2042
   37CHL1  H12A 3876   1.129   2.125   4.974  1.2800  0.8622  3.4356
   37CHL1  H12B 3877   1.022   2.207   5.083  1.7531 -0.0206 -0.8895
   37CHL1   C11 3878   1.028   2.005   5.137 -0.3834  0.0622  0.2641
   37CHL1  H11A 3879   1.055   1.909   5.088  0.7136 -0.0286  1.0042
   37CHL1  H11B 3880   1.117   2.008   5.204  0.1560 -1.3121 -0.3444
   37CHL1    C9 3881   0.890   2.013   5.214 -0.3994  0.1860 -0.6051
   37CHL1    H9 3882   0.900   2.113   5.261  2.3203  0.3197 -1.2751
   37CHL1   C10 3883   0.887   1.915   5.336  0.7681 -0.1195 -0.0483
   37CHL1   C19 3884   0.907   1.776   5.276 -0.3812 -0.1529 -0.1052
   37CHL1  H19A 3885   1.012   1.763   5.242  0.1845 -0.5382  1.6901
   37CHL1  H19B 3886   0.892   1.686   5.339  0.3226 -0.3658 -0.2361
   37CHL1  H19C 3887   0.835   1.772   5.191  1.2795 -2.4234 -1.5149
   37CHL1    C1 3888   1.000   1.957   5.437  0.5498  0.2994  0.2724
   37CHL1   H1A 3889   1.098   1.932   5.393 -0.3914  0.8437 -2.2799
   37CHL1   H1B 3890   1.005   2.067   5.452 -2.0685  0.5242 -0.0014
   37CHL1    C2 3891   0.985   1.889   5.571 -0.6774 -0.4626 -0.3769
   37CHL1   H2A 3892   1.048   1.939   5.648  0.3501 -1.4214 -0.5567
   37CHL1   H2B 3893   1.025   1.785   5.570  0.9148  0.0951  0.8493
   37CHL1   C20 3894   0.985   2.215   4.696  0.7135  0.2017 -0.1833
   37CHL1   H20 3895   0.975   2.113   4.652  1.7700 -0.2743  0.6487
   37CHL1   C21 3896   1.135   2.233   4.718 -0.5326  0.0522 -0.1051
   37CHL1  H21A 3897   1.173   2.160   4.792 -1.8486 -0.3948  0.1645
   37CHL1  H21B 3898   1.159   2.336   4.751  0.3699 -0.0267 -0.4978
   37CHL1  H21C 3899   1.193   2.216   4.625 -1.6097 -0.9034 -0.6373
   37CHL1   C22 3900   0.938   2.312   4.592  0.6165 -0.1525  0.6914
   37CHL1  H22A 3901   0.828   2.315   4.580  0.4880  1.9518  1.9197
   37CHL1  H22B 3902   0.968   2.411   4.631  0.3517  0.9746 -1.7557
   37CHL1   C23 3903   0.995   2.281   4.454 -0.1654 -0.5259  0.5813
   37CHL1  H23A 3904   1.105   2.298   4.458 -0.2169 -0.1134  0.3649
   37CHL1  H23B 3905   0.971   2.176   4.426 -0.1324 -0.4202  0.1415
   37CHL1   C24 3906   0.918   2.366   4.349  0.2151 -0.0441  0.1308
   37CHL1  H24A 3907   0.807   2.360   4.359  0.3561 -3.8584  0.8276
   37CHL1  H24B 3908   0.948   2.472   4.363 -0.3218 -0.0610  1.6256
   37CHL1   C25 3909   0.948   2.323   4.199  0.4011 -0.3683 -0.5303
   37CHL1   H25 3910   0.935   2.213   4.196  0.3926 -0.3496 -1.6299
   37CHL1   C26 3911   0.845   2.385   4.106 -0.4455 -0.7276 -0.8753
   37CHL1  H26A 3912   0.876   2.490   4.088  0.2205 -0.6422  0.6795
   37CHL1  H26B 3913   0.858   2.320   4.016 -2.1733 -3.2204  0.5635
   37CHL1  H26C 3914   0.743   2.362   4.144  0.2822 -3.7531 -0.4978
   37CHL1   C27 3915   1.084   2.365   4.146 -0.6519 -0.2650 -0.4914
   37CHL1  H27A 3916   1.162   2.323   4.213  0.0165 -0.3592 -1.3173
   37CHL1  H27B 3917   1.106   2.331   4.043  0.7433  0.2190 -0.3720
   37CHL1  H27C 3918   1.093   2.476   4.148  0.8994 -0.3723  0.9364
   38CHL1    C3 3919   2.834   0.527   5.362  0.4783  0.6198  0.2283
   38CHL1    H3 3920   2.863   0.427   5.324  0.7926  0.6566  0.3662
   38CHL1    O3 3921   2.833   0.520   5.506 -0.3216 -0.4687  0.2294
   38CHL1   H3' 3922   2.832   0.612   5.535  1.7212 -0.7347  1.3312
   38CHL1    C4 3923   2.934   0.634   5.320 -0.0843 -0.1477  0.3608
   38CHL1   H4A 3924   2.911   0.728   5.375  0.5996  1.4796 -1.9555
   38CHL1   H4B 3925   3.033   0.597   5.355 -0.9387 -1.4612  1.4742
   38CHL1    C5 3926   2.929   0.659   5.164 -0.6595  0.0996 -0.4572
   38CHL1    C6 3927   3.042   0.638   5.091 -0.0458 -0.3019 -0.3546
   38CHL1    H6 3928   3.127   0.588   5.140 -1.4849  0.5644  3.3662
   38CHL1    C7 3929   3.053   0.675   4.942 -0.5196  0.4347 -0.2002
   38CHL1   H7A 3930   3.139   0.743   4.924  0.9240 -1.2846 -0.0905
   38CHL1   H7B 3931   3.083   0.584   4.885 -0.7160  0.3227 -0.1259
   38CHL1    C8 3932   2.925   0.743   4.881  0.1169 -0.1543 -0.2256
   38CHL1    H8 3933   2.938   0.849   4.911  2.2076 -0.3196 -0.3889
   38CHL1   C14 3934   2.917   0.724   4.736  0.3108 -0.3969 -0.2536
   38CHL1   H14 3935   2.908   0.614   4.723 -0.5069 -0.1796 -1.7186
   38CHL1   C15 3936   3.040   0.766   4.660  0.1162 -0.2634  0.4118
   38CHL1  H15A 3937   3.084   0.859   4.702 -0.3843  0.4499 -0.5998
   38CHL1  H15B 3938   3.125   0.695   4.660  0.6548  0.2589 -2.5458
   38CHL1   C16 3939   2.985   0.783   4.521 -0.2466 -0.0441  0.5669
   38CHL1  H16A 3940   2.995   0.892   4.499  0.8976 -0.1545  0.5186
   38CHL1  H16B 3941   3.050   0.732   4.447  0.9918  3.7265 -1.2057
   38CHL1   C17 3942   2.835   0.753   4.527 -0.0411  0.6142 -0.2758
   38CHL1   H17 3943   2.813   0.644   4.522  0.5156  0.1891  3.5513
   38CHL1   C13 3944   2.800   0.782   4.670 -0.5812  0.2026 -0.2025
   38CHL1   C18 3945   2.800   0.940   4.689  0.1552 -0.2896  1.0255
   38CHL1  H18A 3946   2.892   0.991   4.656  1.2415 -2.9162 -0.2242
   38CHL1  H18B 3947   2.710   0.980   4.637 -0.5001 -0.0143  2.3079
   38CHL1  H18C 3948   2.791   0.953   4.799  0.0468 -1.4221  1.1574
   38CHL1   C12 3949   2.678   0.714   4.727  0.4904  0.3629  0.0194
   38CHL1  H12A 3950   2.587   0.763   4.686  0.7302  0.9273  0.1559
   38CHL1  H12B 3951   2.675   0.604   4.711  2.4774 -0.2763  3.1759
   38CHL1   C11 3952   2.668   0.727   4.881 -0.6652 -0.2552 -0.3767
   38CHL1  H11A 3953   2.657   0.836   4.897 -2.3873  0.0471 -2.9091
   38CHL1  H11B 3954   2.576   0.676   4.919 -1.3532  0.8896 -0.4654
   38CHL1    C9 3955   2.802   0.684   4.951 -0.2691  0.8114  0.4373
   38CHL1    H9 3956   2.817   0.578   4.922 -1.2790  1.0317 -0.9986
   38CHL1   C10 3957   2.795   0.683   5.108 -0.1673  0.3428 -0.0275
   38CHL1   C19 3958   2.754   0.829   5.154  0.4252 -0.0373  0.1640
   38CHL1  H19A 3959   2.834   0.897   5.121  0.0801  0.6549  0.7312
   38CHL1  H19B 3960   2.653   0.856   5.116 -0.5928 -2.0464  1.2615
   38CHL1  H19C 3961   2.749   0.827   5.265 -0.6205 -0.3077  0.1247
   38CHL1    C1 3962   2.699   0.572   5.157 -0.3162  0.0428  0.2452
   38CHL1   H1A 3963   2.592   0.569   5.124  0.0922 -1.9803 -1.0636
   38CHL1   H1B 3964   2.752   0.486   5.112  0.6425 -1.0375  3.2356
   38CHL1    C2 3965   2.693   0.546   5.304 -0.6123  0.5361 -0.7912
   38CHL1   H2A 3966   2.631   0.458   5.332  1.2390  0.2202  3.0051
   38CHL1   H2B 3967   2.653   0.637   5.354 -2.5124 -1.0342  0.7067
   38CHL1   C20 3968   2.756   0.809   4.414  0.2623  0.9919  0.1174
   38CHL1   H20 3969   2.780   0.915   4.394  1.5162  0.0006 -4.9272
   38CHL1   C21 3970   2.599   0.800   4.434 -0.2363 -0.0826  0.4265
   38CHL1  H21A 3971   2.560   0.696   4.448  0.5439 -0.0666  3.2617
   38CHL1  H21B 3972   2.551   0.832   4.339 -1.9039  0.7870  1.5054
   38CHL1  H21C 3973   2.576   0.875   4.513  2.5439  0.1614  1.1011
   38CHL1   C22 3974   2.790   0.743   4.272 -0.3880  0.1192  0.5051
   38CHL1  H22A 3975   2.833   0.642   4.288  0.1089  0.2936  0.3035
   38CHL1  H22B 3976   2.698   0.728   4.212 -1.3618 -1.7468  2.3299
   38CHL1   C23 3977   2.887   0.823   4.186 -0.7151 -0.2748 -0.1876
   38CHL1  H23A 3978   2.968   0.838   4.260  1.1896 -0.4765 -2.1340
   38CHL1  H23B 3979   2.931   0.765   4.103  1.2038  1.2134 -0.2711
   38CHL1   C24 3980   2.831   0.957   4.139 -0.6184 -0.1884 -0.4148
   38CHL1  H24A 3981   2.746   0.945   4.068 -1.0803  1.5049 -0.2025
   38CHL1  H24B 3982   2.782   1.012   4.222  0.3915 -0.7734  0.5830
   38CHL1   C25 3983   2.926   1.050   4.068  0.5605 -0.1422  0.1893
   38CHL1   H25 3984   2.875   1.148   4.052 -0.6704 -0.8661 -0.4236
   38CHL1   C26 3985   3.052   1.085   4.143  0.1156  0.7373 -0.3507
   38CHL1  H26A 3986   3.124   1.158   4.100 -0.1301  0.7799 -0.6892
   38CHL1  H26B 3987   3.028   1.131   4.242 -0.6765  2.1728 -1.1795
   38CHL1  H26C 3988   3.109   0.993   4.167  0.0791  1.0694  1.1407
   38CHL1   C27 3989   2.961   1.001   3.928 -0.3185  0.0360  0.0827
   38CHL1  H27A 3990   3.030   1.071   3.877 -0.0723  1.7155  2.5559
   38CHL1  H27B 3991   3.009   0.901   3.929  1.1938  0.7379 -0.0511
   38CHL1  H27C 3992   2.876   0.984   3.858  0.3525 -1.2748 -0.4529
   39CHL1    C3 3993   4.322   0.689   5.604 -0.0785 -0.1887  0.0811
   39CHL1    H3 3994   4.272   0.789   5.600  0.2478  0.2801  3.7696
   39CHL1    O3 3995   4.349   0.655   5.743  0.1743  0.0085  0.3490
   39CHL1   H3' 3996   4.376   0.563   5.752  1.0853  0.2016 -0.2741
   39CHL1    C4 3997   4.242   0.576   5.530 -1.0195  1.1821 -0.5438
   39CHL1   H4A 3998   4.302   0.483   5.530  0.0825  1.8563 -1.8659
   39CHL1   H4B 3999   4.153   0.557   5.594 -1.4993 -1.3512 -1.8169
   39CHL1    C5 4000   4.210   0.602   5.386  0.1766 -0.1766  0.4598
   39CHL1    C6 4001   4.085   0.614   5.336  0.2031  0.3686  0.4233
   39CHL1    H6 4002   3.999   0.605   5.403 -0.1477  1.5956  0.1617
   39CHL1    C7 4003   4.061   0.633   5.190  0.0171 -0.1594  0.2116
   39CHL1   H7A 4004   3.987   0.557   5.158 -0.7442  0.1274  1.2458
   39CHL1   H7B 4005   4.024   0.736   5.170  0.4852  0.1417  0.8447
   39CHL1    C8 4006   4.187   0.614   5.100 -0.5067 -0.0652  0.1069
   39CHL1    H8 4007   4.213   0.506   5.096  0.1251  0.0269  1.2065
   39CHL1   C14 4008   4.157   0.665   4.955 -0.3830 -0.0447 -1.1350
   39CHL1   H14 4009   4.133   0.773   4.964 -2.7891 -0.5051 -1.4613
   39CHL1   C15 4010   4.046   0.604   4.877  0.2262  0.4154 -0.5581
   39CHL1  H15A 4011   4.034   0.494   4.893 -2.4226  0.8308  0.8499
   39CHL1  H15B 4012   3.953   0.654   4.911  0.8168  0.9391  0.3243
   39CHL1   C16 4013   4.067   0.632   4.728 -0.1917  0.2100 -0.0833
   39CHL1  H16A 4014   4.055   0.542   4.664 -1.3515  0.9333 -0.9140
   39CHL1  H16B 4015   4.000   0.714   4.695  2.2040  2.0927 -0.5716
   39CHL1   C17 4016   4.205   0.698   4.718  0.4015 -0.2540 -0.3638
   39CHL1   H17 4017   4.203   0.809   4.726 -0.1441 -0.4041  2.3566
   39CHL1   C13 4018   4.274   0.656   4.854 -0.3795  0.3164  0.5831
   39CHL1   C18 4019   4.326   0.511   4.822 -0.3693  0.1113  0.0354
   39CHL1  H18A 4020   4.423   0.522   4.769 -1.1989  1.9382 -1.1835
   39CHL1  H18B 4021   4.348   0.458   4.917  0.6308 -2.9642 -1.7711
   39CHL1  H18C 4022   4.254   0.449   4.765 -1.3072  1.1859  0.0210
   39CHL1   C12 4023   4.387   0.735   4.916 -0.3136  0.5003  0.3592
   39CHL1  H12A 4024   4.473   0.729   4.846 -2.1098 -2.9025 -1.8150
   39CHL1  H12B 4025   4.363   0.842   4.933  1.0126  0.6037  1.7984
   39CHL1   C11 4026   4.423   0.676   5.049 -0.1839 -0.1397  0.5778
   39CHL1  H11A 4027   4.462   0.573   5.038  1.2711  0.4999 -0.5398
   39CHL1  H11B 4028   4.504   0.739   5.091 -0.2443 -0.0267  0.5271
   39CHL1    C9 4029   4.305   0.688   5.151  0.0785 -0.1567 -0.2566
   39CHL1    H9 4030   4.281   0.795   5.167  1.5419  0.2080 -0.3546
   39CHL1   C10 4031   4.338   0.635   5.301 -0.0307  1.0540 -0.2014
   39CHL1   C19 4032   4.430   0.510   5.289  0.2844  0.5754 -0.0957
   39CHL1  H19A 4033   4.383   0.437   5.220  0.8224  0.1019  0.0377
   39CHL1  H19B 4034   4.527   0.533   5.240  0.1693 -1.6050 -1.4626
   39CHL1  H19C 4035   4.451   0.457   5.385  1.3306 -1.0055 -1.1584
   39CHL1    C1 4036   4.424   0.737   5.380 -0.4626 -1.0457 -0.5803
   39CHL1   H1A 4037   4.523   0.748   5.330  0.6200  1.0173  1.8264
   39CHL1   H1B 4038   4.365   0.830   5.375  1.5137  0.2232 -3.2059
   39CHL1    C2 4039   4.452   0.700   5.530  0.1917 -0.1279  0.0490
   39CHL1   H2A 4040   4.510   0.787   5.565 -0.2929  1.3206 -2.4877
   39CHL1   H2B 4041   4.517   0.610   5.543 -1.1000 -1.3067 -1.2330
   39CHL1   C20 4042   4.267   0.661   4.585  0.1113  0.3321  0.4880
   39CHL1   H20 4043   4.265   0.550   4.574 -1.3866  0.5310 -1.8808
   39CHL1   C21 4044   4.409   0.717   4.569 -0.8650 -0.4074  0.0148
   39CHL1  H21A 4045   4.403   0.819   4.614 -0.8500  0.3006 -1.5336
   39CHL1  H21B 4046   4.458   0.733   4.470  0.1277 -0.3012  0.5038
   39CHL1  H21C 4047   4.489   0.659   4.621 -0.0717  0.5200 -0.1349
   39CHL1   C22 4048   4.182   0.712   4.463  0.1459 -0.0190 -0.3716
   39CHL1  H22A 4049   4.076   0.679   4.468 -0.2656  1.3539  1.2847
   39CHL1  H22B 4050   4.178   0.821   4.483  0.8515 -0.1287  0.4346
   39CHL1   C23 4051   4.248   0.692   4.327 -0.3640 -0.1372 -0.2288
   39CHL1  H23A 4052   4.327   0.769   4.317  0.0997 -0.5738  0.0033
   39CHL1  H23B 4053   4.292   0.591   4.313 -1.8108 -0.6162 -1.5418
   39CHL1   C24 4054   4.148   0.724   4.205  0.2578  0.2090 -0.0271
   39CHL1  H24A 4055   4.107   0.825   4.227  0.1831  0.4549 -1.2183
   39CHL1  H24B 4056   4.200   0.724   4.107 -0.8895  1.0879 -0.6616
   39CHL1   C25 4057   4.029   0.633   4.184  0.5949  0.1250  0.2122
   39CHL1   H25 4058   3.962   0.649   4.272 -2.4015 -1.0858 -1.6728
   39CHL1   C26 4059   3.953   0.672   4.054 -0.2452  0.5456 -0.0369
   39CHL1  H26A 4060   4.015   0.644   3.967 -1.0892 -0.4050 -0.3523
   39CHL1  H26B 4061   3.860   0.611   4.053 -0.0243  0.1546  1.2658
   39CHL1  H26C 4062   3.932   0.781   4.052 -0.1087  0.5645 -0.6768
   39CHL1   C27 4063   4.062   0.477   4.179  0.1061 -0.0104  0.4955
   39CHL1  H27A 4064   4.137   0.453   4.101 -0.1611  0.1619  0.1813
   39CHL1  H27B 4065   4.100   0.439   4.276  2.5561  0.2166 -0.3167
   39CHL1  H27C 4066   3.973   0.426   4.137 -1.4974  2.1558  1.0322
   40CHL1    C3 4067   2.356   6.433   5.536 -0.4214 -0.5111 -0.1994
   40CHL1    H3 4068   2.452   6.482   5.509 -1.1759 -0.3581 -2.8875
   40CHL1    O3 4069   2.353   6.435   5.679 -0.8275  0.5144  0.4550
   40CHL1   H3' 4070   2.378   6.526   5.698  0.2121  0.4269 -0.4255
   40CHL1    C4 4071   2.239   6.523   5.479 -0.6651 -0.3345 -0.6577
   40CHL1   H4A 4072   2.142   6.473   5.502 -0.7638  0.6938  1.4586
   40CHL1   H4B 4073   2.221   6.623   5.523 -2.2332 -0.2958 -1.3318
   40CHL1    C5 4074   2.268   6.537   5.337  0.4728 -0.2368  0.4072
   40CHL1    C6 4075   2.288   6.658   5.277  0.3911 -0.1966 -0.2694
   40CHL1    H6 4076   2.299   6.749   5.337  2.0780 -0.2539 -0.4551
   40CHL1    C7 4077   2.306   6.679   5.130 -0.4711  0.0414 -0.1576
   40CHL1   H7A 4078   2.238   6.755   5.086 -0.0184 -0.0709 -1.0594
   40CHL1   H7B 4079   2.410   6.717   5.120  0.6839 -3.1243 -1.2911
   40CHL1    C8 4080   2.280   6.553   5.041  0.1807  0.1284  0.0576
   40CHL1    H8 4081   2.171   6.549   5.023  0.1015  1.5720  0.1285
   40CHL1   C14 4082   2.345   6.567   4.900 -1.0553  0.1778  0.4243
   40CHL1   H14 4083   2.452   6.581   4.927 -1.6851  2.8213  1.8357
   40CHL1   C15 4084   2.313   6.690   4.820 -0.2715 -0.5141 -0.3219
   40CHL1  H15A 4085   2.204   6.711   4.826 -0.2558 -0.9046  2.3588
   40CHL1  H15B 4086   2.373   6.776   4.855 -0.6069 -0.0081 -0.9628
   40CHL1   C16 4087   2.351   6.652   4.676 -0.3359  0.3079 -0.1256
   40CHL1  H16A 4088   2.260   6.660   4.613  1.4571 -1.7712 -3.2223
   40CHL1  H16B 4089   2.425   6.725   4.638  0.7098 -1.0533 -0.8018
   40CHL1   C17 4090   2.398   6.501   4.686 -0.6199  0.8186  0.0877
   40CHL1   H17 4091   2.504   6.509   4.719 -0.2739 -1.3099 -0.3868
   40CHL1   C13 4092   2.329   6.446   4.809  0.6902 -0.5715 -0.0054
   40CHL1   C18 4093   2.187   6.411   4.771 -0.2809 -1.1403 -0.5499
   40CHL1  H18A 4094   2.146   6.494   4.709  2.8089  0.0754 -1.1253
   40CHL1  H18B 4095   2.181   6.312   4.722 -1.1318 -0.8795 -0.9977
   40CHL1  H18C 4096   2.117   6.402   4.857  1.2932  1.5248  1.1608
   40CHL1   C12 4097   2.391   6.332   4.885 -0.1050 -0.0325 -0.2931
   40CHL1  H12A 4098   2.398   6.236   4.829  4.6380  0.7249 -1.4679
   40CHL1  H12B 4099   2.499   6.350   4.905  0.1578  1.2889 -2.4911
   40CHL1   C11 4100   2.319   6.304   5.017  0.5678 -0.2251 -0.9209
   40CHL1  H11A 4101   2.212   6.282   4.996  0.7878 -2.0737 -0.2576
   40CHL1  H11B 4102   2.365   6.211   5.056 -0.2403 -0.1123  0.3786
   40CHL1    C9 4103   2.324   6.424   5.114 -0.2123  0.5423  0.4733
   40CHL1    H9 4104   2.433   6.438   5.131 -0.2276  2.1434 -0.5357
   40CHL1   C10 4105   2.269   6.405   5.255 -0.1664  0.6448 -0.2238
   40CHL1   C19 4106   2.126   6.350   5.256  0.6836  0.1043 -0.1391
   40CHL1  H19A 4107   2.058   6.423   5.208 -0.4827 -1.2063 -0.5620
   40CHL1  H19B 4108   2.115   6.262   5.189 -1.2149  1.0318 -1.1422
   40CHL1  H19C 4109   2.088   6.327   5.358  0.0724 -1.7110 -0.7394
   40CHL1    C1 4110   2.356   6.298   5.320 -0.1676 -0.1121 -0.1511
   40CHL1   H1A 4111   2.330   6.200   5.274  2.4732 -0.1996 -1.6438
   40CHL1   H1B 4112   2.461   6.315   5.289  0.3147  0.1608  1.5459
   40CHL1    C2 4113   2.357   6.295   5.478 -0.3468 -0.4206  0.2688
   40CHL1   H2A 4114   2.443   6.235   5.515 -0.8858 -0.1703  2.0201
   40CHL1   H2B 4115   2.267   6.242   5.514 -0.0465  1.4882  4.4834
   40CHL1   C20 4116   2.394   6.425   4.553  0.3899 -0.0508  0.0424
   40CHL1   H20 4117   2.287   6.406   4.528  0.3063  0.5697 -0.0811
   40CHL1   C21 4118   2.470   6.292   4.581  0.2087  0.4992  0.3259
   40CHL1  H21A 4119   2.490   6.230   4.491 -0.2991 -0.5870  0.9445
   40CHL1  H21B 4120   2.401   6.221   4.632 -0.3217  0.6070 -0.2399
   40CHL1  H21C 4121   2.562   6.303   4.644  0.8421 -0.8396 -0.3190
   40CHL1   C22 4122   2.442   6.502   4.428  0.1497 -0.4877 -0.1473
   40CHL1  H22A 4123   2.367   6.583   4.413 -0.3270 -0.9730 -0.3857
   40CHL1  H22B 4124   2.543   6.549   4.437  0.0378 -0.5805  2.0253
   40CHL1   C23 4125   2.439   6.426   4.293 -0.5839 -0.1621  0.2299
   40CHL1  H23A 4126   2.534   6.371   4.279  0.0451  1.1492 -0.9676
   40CHL1  H23B 4127   2.365   6.344   4.293 -0.5907 -0.2088 -1.7683
   40CHL1   C24 4128   2.419   6.512   4.164 -0.9160  0.3020 -0.3059
   40CHL1  H24A 4129   2.322   6.565   4.155 -0.9379 -0.1233 -3.9929
   40CHL1  H24B 4130   2.491   6.593   4.192  0.8875 -0.7988 -1.5617
   40CHL1   C25 4131   2.445   6.457   4.022  0.5680 -0.2496  0.0313
   40CHL1   H25 4132   2.376   6.372   4.006  1.3296 -0.9337  0.3202
   40CHL1   C26 4133   2.427   6.558   3.917  0.0334 -0.9545  0.1883
   40CHL1  H26A 4134   2.485   6.652   3.932  1.9432 -2.0535 -0.0124
   40CHL1  H26B 4135   2.454   6.513   3.819  1.4408 -1.5517  0.8286
   40CHL1  H26C 4136   2.320   6.584   3.904  0.6517  0.8176 -2.0700
   40CHL1   C27 4137   2.584   6.399   4.018 -0.0049  0.1367 -0.2248
   40CHL1  H27A 4138   2.596   6.308   4.081  0.8742  0.9551  0.8301
   40CHL1  H27B 4139   2.625   6.377   3.916  0.5520  0.5195 -0.0882
   40CHL1  H27C 4140   2.660   6.464   4.067 -0.6414  0.8578 -0.1757
   41CHL1    C3 4141   1.526   6.197   5.632 -0.0706 -0.7347 -0.8004
   41CHL1    H3 4142   1.423   6.186   5.593 -0.4900  1.4480 -0.4403
   41CHL1    O3 4143   1.531   6.174   5.771 -0.6013 -0.0072  0.0138
   41CHL1   H3' 4144   1.620   6.198   5.797 -0.8045 -0.3471  1.0908
   41CHL1    C4 4145   1.622   6.097   5.562  0.1389  0.6198 -0.2298
   41CHL1   H4A 4146   1.726   6.108   5.600  0.4995 -1.6670 -0.4186
   41CHL1   H4B 4147   1.590   5.997   5.597 -1.6916  0.8056 -1.2519
   41CHL1    C5 4148   1.625   6.113   5.414  0.1720  0.0145  0.8140
   41CHL1    C6 4149   1.576   6.020   5.322  0.5420 -0.0362 -0.4794
   41CHL1    H6 4150   1.557   5.918   5.359 -2.4528  1.5457  2.8452
   41CHL1    C7 4151   1.572   6.048   5.176  0.0503 -0.2176  0.1123
   41CHL1   H7A 4152   1.603   5.964   5.110 -1.3628  0.1758 -1.1145
   41CHL1   H7B 4153   1.464   6.045   5.148 -0.8339 -1.0784  3.2047
   41CHL1    C8 4154   1.662   6.170   5.126  0.7884 -0.4837  0.2909
   41CHL1    H8 4155   1.770   6.148   5.129  0.8645 -0.0225  1.1465
   41CHL1   C14 4156   1.624   6.210   4.978 -0.6841  0.2691  0.7168
   41CHL1   H14 4157   1.515   6.227   4.975 -1.3305 -2.7959  2.4955
   41CHL1   C15 4158   1.635   6.094   4.877  0.0357 -0.2140  0.0529
   41CHL1  H15A 4159   1.724   6.041   4.917  0.5197  0.0920 -0.6138
   41CHL1  H15B 4160   1.547   6.027   4.884 -0.2438 -0.0602 -1.5937
   41CHL1   C16 4161   1.639   6.162   4.743 -0.7398 -0.4530  0.1698
   41CHL1  H16A 4162   1.722   6.141   4.672 -1.3192  0.1725 -0.7096
   41CHL1  H16B 4163   1.546   6.141   4.686 -0.7279 -1.1688  0.4038
   41CHL1   C17 4164   1.641   6.316   4.771  0.0212  0.3383  0.4297
   41CHL1   H17 4165   1.536   6.353   4.768  0.2183  0.9553  0.8565
   41CHL1   C13 4166   1.698   6.325   4.917  0.2268  0.0223  0.2735
   41CHL1   C18 4167   1.855   6.314   4.909 -0.1358  0.7509 -0.1645
   41CHL1  H18A 4168   1.875   6.235   4.833 -1.2173 -0.8853  1.1726
   41CHL1  H18B 4169   1.897   6.410   4.871  0.8767  0.3753 -0.0286
   41CHL1  H18C 4170   1.892   6.289   5.011 -1.4325  1.2095  0.4344
   41CHL1   C12 4171   1.650   6.441   5.010 -1.0153 -0.2617 -0.2545
   41CHL1  H12A 4172   1.698   6.535   4.976  2.0726 -1.8461 -0.6681
   41CHL1  H12B 4173   1.541   6.460   5.004 -0.5897  3.0398  0.5777
   41CHL1   C11 4174   1.685   6.421   5.157 -0.1669 -0.2186 -0.4646
   41CHL1  H11A 4175   1.794   6.429   5.178 -0.2440 -1.9897  0.8061
   41CHL1  H11B 4176   1.640   6.504   5.215 -0.6205  0.4683 -1.7522
   41CHL1    C9 4177   1.630   6.286   5.211  0.1827  0.1150 -0.3215
   41CHL1    H9 4178   1.522   6.310   5.203 -0.1479 -1.5014 -1.0744
   41CHL1   C10 4179   1.659   6.262   5.365 -0.1796 -0.3784 -0.1302
   41CHL1   C19 4180   1.810   6.293   5.388  0.7835  0.3462  0.5858
   41CHL1  H19A 4181   1.862   6.236   5.308 -2.2115 -0.2696 -1.0805
   41CHL1  H19B 4182   1.825   6.403   5.384 -0.9438  0.6053  0.4346
   41CHL1  H19C 4183   1.838   6.267   5.492  1.5682  1.1585  0.5924
   41CHL1    C1 4184   1.577   6.357   5.450 -0.3262  0.2605  0.2178
   41CHL1   H1A 4185   1.601   6.463   5.426  0.0946  0.5895  1.9293
   41CHL1   H1B 4186   1.471   6.334   5.425 -0.3441 -1.3918  1.6105
   41CHL1    C2 4187   1.582   6.337   5.602 -0.3323 -0.5424 -0.1188
   41CHL1   H2A 4188   1.512   6.412   5.645 -1.0104 -1.4430  0.3962
   41CHL1   H2B 4189   1.683   6.359   5.642 -1.2360  0.0927  1.9740
   41CHL1   C20 4190   1.701   6.403   4.658  0.5445 -0.2249 -1.2155
   41CHL1   H20 4191   1.810   6.385   4.671  0.1174 -0.8737  3.1216
   41CHL1   C21 4192   1.681   6.556   4.693 -0.4655  0.0282 -0.4276
   41CHL1  H21A 4193   1.669   6.607   4.595  1.7562  0.5129 -0.4839
   41CHL1  H21B 4194   1.765   6.593   4.754 -0.4158  0.6098 -0.8396
   41CHL1  H21C 4195   1.584   6.574   4.745 -1.3811 -1.7387 -1.4159
   41CHL1   C22 4196   1.647   6.370   4.512  0.0241  0.2917 -1.0102
   41CHL1  H22A 4197   1.669   6.262   4.496 -0.3420 -0.1786  1.2560
   41CHL1  H22B 4198   1.536   6.381   4.514 -0.0239  0.1562 -2.1838
   41CHL1   C23 4199   1.703   6.457   4.402 -0.3793  0.6740  0.8592
   41CHL1  H23A 4200   1.646   6.551   4.382  0.4523  1.1413  0.6671
   41CHL1  H23B 4201   1.805   6.490   4.430 -0.8234  2.8895  0.0772
   41CHL1   C24 4202   1.702   6.373   4.270  0.2756  0.4440 -0.5503
   41CHL1  H24A 4203   1.762   6.410   4.184  1.6312  1.4469  0.7692
   41CHL1  H24B 4204   1.758   6.284   4.307 -1.8806  0.4767  3.3583
   41CHL1   C25 4205   1.565   6.351   4.219 -0.1098 -0.2042  0.4006
   41CHL1   H25 4206   1.509   6.312   4.307 -1.1960  0.7340  0.1334
   41CHL1   C26 4207   1.500   6.484   4.168  0.6869 -0.4166 -0.3897
   41CHL1  H26A 4208   1.482   6.560   4.247 -0.9449 -0.6968 -0.4533
   41CHL1  H26B 4209   1.566   6.543   4.100 -2.6701  4.4358  0.0178
   41CHL1  H26C 4210   1.412   6.458   4.106  0.3341  0.1328 -0.1303
   41CHL1   C27 4211   1.562   6.244   4.116 -0.4392  0.1846  0.6403
   41CHL1  H27A 4212   1.604   6.267   4.016 -0.6574 -0.0881  0.4846
   41CHL1  H27B 4213   1.623   6.162   4.160  0.8144  1.5724  1.5966
   41CHL1  H27C 4214   1.463   6.199   4.092 -1.7641  2.7612  0.9721
   42CHL1    C3 4215   4.887   6.451   5.799  0.2403  0.4936 -0.0103
   42CHL1    H3 4216   4.927   6.552   5.775  0.0712  0.3453 -0.9954
   42CHL1    O3 4217   4.900   6.419   5.934 -0.1343  0.5822 -0.3269
   42CHL1   H3' 4218   4.815   6.382   5.959 -0.0592  1.9171  2.2471
   42CHL1    C4 4219   4.736   6.442   5.760  0.4933  0.2262  0.3212
   42CHL1   H4A 4220   4.691   6.341   5.770 -0.8066  0.7679  0.0533
   42CHL1   H4B 4221   4.684   6.508   5.833  1.0479  1.3783 -0.3106
   42CHL1    C5 4222   4.716   6.477   5.613  0.0990 -0.0669 -0.3237
   42CHL1    C6 4223   4.631   6.574   5.584  0.3007  0.2750 -0.2667
   42CHL1    H6 4224   4.576   6.626   5.664 -2.3666 -0.0943 -1.7394
   42CHL1    C7 4225   4.594   6.617   5.437 -0.3096  0.2593 -0.1880
   42CHL1   H7A 4226   4.482   6.616   5.436 -0.3206  0.3352  0.6015
   42CHL1   H7B 4227   4.637   6.715   5.407 -2.5700  0.8387 -1.9300
   42CHL1    C8 4228   4.648   6.507   5.334 -0.6340  0.5634  0.1160
   42CHL1    H8 4229   4.580   6.420   5.345 -0.0370 -0.6738 -4.2852
   42CHL1   C14 4230   4.649   6.560   5.193 -0.0549 -0.3881  0.2091
   42CHL1   H14 4231   4.710   6.652   5.203 -2.4293  1.2667  0.4716
   42CHL1   C15 4232   4.519   6.609   5.139 -0.9474 -0.4858 -0.4590
   42CHL1  H15A 4233   4.436   6.537   5.157 -1.7832  0.1621 -1.6369
   42CHL1  H15B 4234   4.500   6.705   5.191 -1.0154  0.0593 -1.4660
   42CHL1   C16 4235   4.539   6.638   4.991  0.0953 -0.1083 -0.8170
   42CHL1  H16A 4236   4.450   6.602   4.934 -1.0747  1.6136 -0.1701
   42CHL1  H16B 4237   4.543   6.746   4.963 -0.5778  0.4852  1.2012
   42CHL1   C17 4238   4.679   6.579   4.958 -0.0756 -0.0104  0.1200
   42CHL1   H17 4239   4.747   6.665   4.971  0.0867 -0.0227 -0.5827
   42CHL1   C13 4240   4.713   6.478   5.078  0.3035 -0.4754  1.5620
   42CHL1   C18 4241   4.631   6.346   5.062 -0.0224  0.2432  0.1122
   42CHL1  H18A 4242   4.691   6.276   5.001  0.8219  1.0108  0.0341
   42CHL1  H18B 4243   4.602   6.308   5.162  0.9168 -0.0578  0.2754
   42CHL1  H18C 4244   4.542   6.368   4.999  0.8424  2.7985 -0.3620
   42CHL1   C12 4245   4.860   6.463   5.124  0.0086  0.2759  0.2611
   42CHL1  H12A 4246   4.926   6.410   5.053  1.9447  0.9127  1.5024
   42CHL1  H12B 4247   4.899   6.566   5.139  0.2519 -0.1664  3.3000
   42CHL1   C11 4248   4.871   6.391   5.258  0.0663 -0.3730  0.9249
   42CHL1  H11A 4249   4.828   6.289   5.244  0.0063 -0.1366 -0.8713
   42CHL1  H11B 4250   4.977   6.373   5.288  0.1411 -1.1289  0.2638
   42CHL1    C9 4251   4.790   6.468   5.369  0.0430  0.0959 -0.3322
   42CHL1    H9 4252   4.844   6.564   5.385 -0.2546 -0.0239  1.7382
   42CHL1   C10 4253   4.803   6.403   5.508 -0.0123  0.1119 -1.0045
   42CHL1   C19 4254   4.771   6.254   5.495  0.3336  0.0574  0.0115
   42CHL1  H19A 4255   4.765   6.202   5.593 -0.2418 -1.1792 -0.6517
   42CHL1  H19B 4256   4.675   6.243   5.440 -0.3731  1.0885  1.0049
   42CHL1  H19C 4257   4.853   6.204   5.439 -0.4175  0.0383 -1.1063
   42CHL1    C1 4258   4.956   6.400   5.558  0.4741 -0.1831  0.2731
   42CHL1   H1A 4259   5.017   6.339   5.489  0.6588  0.5701 -0.2376
   42CHL1   H1B 4260   4.990   6.504   5.541  0.0068 -0.0227  0.2982
   42CHL1    C2 4261   4.972   6.361   5.706  0.0173 -0.6639  0.0577
   42CHL1   H2A 4262   5.076   6.385   5.740 -0.2414  2.3735 -1.0339
   42CHL1   H2B 4263   4.956   6.253   5.727 -0.1349 -1.0128 -1.7295
   42CHL1   C20 4264   4.698   6.526   4.813  0.4780 -0.1392 -0.6300
   42CHL1   H20 4265   4.652   6.426   4.801 -0.7130  0.2954  0.1544
   42CHL1   C21 4266   4.849   6.508   4.770  0.4945  0.2910  0.3426
   42CHL1  H21A 4267   4.871   6.444   4.682 -0.0088 -1.0579  1.1654
   42CHL1  H21B 4268   4.917   6.463   4.845  2.2835 -1.7616 -2.3007
   42CHL1  H21C 4269   4.890   6.608   4.744  0.1593  0.1620 -0.7252
   42CHL1   C22 4270   4.628   6.614   4.707  0.5121 -0.8956  0.5409
   42CHL1  H22A 4271   4.517   6.617   4.716  0.4893  0.9657  0.2152
   42CHL1  H22B 4272   4.657   6.722   4.711 -3.0390  0.2300 -0.3227
   42CHL1   C23 4273   4.665   6.562   4.563 -0.2655 -0.3872  0.0926
   42CHL1  H23A 4274   4.771   6.584   4.541 -0.2219 -0.5539  0.1385
   42CHL1  H23B 4275   4.657   6.452   4.562  1.8339 -0.6480  2.2743
   42CHL1   C24 4276   4.585   6.637   4.453  0.8013  0.0010 -0.3450
   42CHL1  H24A 4277   4.481   6.614   4.486  0.0365  0.8410 -2.0142
   42CHL1  H24B 4278   4.597   6.747   4.463 -1.8165  0.3820 -0.6097
   42CHL1   C25 4279   4.592   6.584   4.310  0.5026 -0.3082  0.2811
   42CHL1   H25 4280   4.547   6.482   4.309 -1.7451  0.6202 -0.2212
   42CHL1   C26 4281   4.506   6.673   4.223 -0.4192 -0.6462 -0.1772
   42CHL1  H26A 4282   4.398   6.670   4.251 -0.2563 -0.8701  0.4373
   42CHL1  H26B 4283   4.529   6.781   4.233 -2.6547 -0.1646  0.4055
   42CHL1  H26C 4284   4.518   6.641   4.117  1.1473  0.6481 -0.4384
   42CHL1   C27 4285   4.738   6.580   4.254  0.6286 -0.3008  0.6921
   42CHL1  H27A 4286   4.792   6.494   4.298 -0.9371 -1.0973  1.1303
   42CHL1  H27B 4287   4.725   6.576   4.144  1.4140  3.8522  0.2642
   42CHL1  H27C 4288   4.787   6.679   4.265 -0.1434  0.8721 -4.2439
   43CHL1    C3 4289   0.243   2.460   5.406 -0.3979  0.8999 -0.5633
   43CHL1    H3 4290   0.348   2.497   5.410  1.2055 -2.9804 -1.7013
   43CHL1    O3 4291   0.196   2.467   5.538 -0.2187  0.1314 -0.2617
   43CHL1   H3' 4292   0.111   2.425   5.531  0.5226 -1.3549 -0.7521
   43CHL1    C4 4293   0.151   2.541   5.321  0.2297 -0.0366  1.1485
   43CHL1   H4A 4294   0.047   2.502   5.312  0.9881 -1.8768 -0.5943
   43CHL1   H4B 4295   0.145   2.641   5.367  1.0716 -0.0622  1.3328
   43CHL1    C5 4296   0.199   2.528   5.179  0.8075 -0.1398 -0.0920
   43CHL1    C6 4297   0.230   2.632   5.107 -0.2238  0.2896  0.8994
   43CHL1    H6 4298   0.239   2.729   5.157  0.7506  0.0526  1.2096
   43CHL1    C7 4299   0.261   2.624   4.962 -0.5674  0.2371 -0.0527
   43CHL1   H7A 4300   0.203   2.703   4.910 -0.7326  0.8876  1.1004
   43CHL1   H7B 4301   0.370   2.642   4.946  0.2523 -2.5443  1.7904
   43CHL1    C8 4302   0.235   2.498   4.884 -0.1152 -0.8593 -0.1732
   43CHL1    H8 4303   0.125   2.498   4.868 -0.3095 -1.8487  1.0303
   43CHL1   C14 4304   0.319   2.499   4.757  0.1283 -0.5423 -0.2789
   43CHL1   H14 4305   0.423   2.517   4.793 -0.7183  1.6480  1.2240
   43CHL1   C15 4306   0.293   2.617   4.654 -0.7714  0.4126  0.0693
   43CHL1  H15A 4307   0.186   2.641   4.639 -1.2824  0.0560  2.5997
   43CHL1  H15B 4308   0.334   2.711   4.698  1.4737  0.6753 -2.3858
   43CHL1   C16 4309   0.352   2.561   4.522  0.3664 -0.7219  0.8184
   43CHL1  H16A 4310   0.289   2.582   4.434 -0.0306 -0.2419  1.2089
   43CHL1  H16B 4311   0.451   2.608   4.502  0.1961 -1.0697 -1.0215
   43CHL1   C17 4312   0.380   2.414   4.544  0.6563 -0.1597  0.2128
   43CHL1   H17 4313   0.488   2.414   4.572  0.9873  0.6005 -0.9895
   43CHL1   C13 4314   0.304   2.375   4.675  0.5891  0.0359  0.5801
   43CHL1   C18 4315   0.154   2.337   4.637 -0.3567  0.1486 -0.1114
   43CHL1  H18A 4316   0.152   2.239   4.585 -0.6954  0.8361 -1.4407
   43CHL1  H18B 4317   0.097   2.320   4.731  1.8018 -0.2156  1.2042
   43CHL1  H18C 4318   0.106   2.415   4.574 -1.2613 -0.4251 -0.1608
   43CHL1   C12 4319   0.346   2.255   4.762  0.0306  0.3191 -0.3241
   43CHL1  H12A 4320   0.348   2.164   4.698 -0.5543 -0.5472  0.8483
   43CHL1  H12B 4321   0.450   2.273   4.797 -0.0883 -0.5322  0.5142
   43CHL1   C11 4322   0.274   2.247   4.899 -1.5369  0.6027 -0.0072
   43CHL1  H11A 4323   0.167   2.220   4.885 -1.5015  0.9127 -0.9668
   43CHL1  H11B 4324   0.323   2.166   4.956  0.6985  2.7604  1.3742
   43CHL1    C9 4325   0.279   2.385   4.976 -0.0968  0.1069  0.4012
   43CHL1    H9 4326   0.387   2.398   4.997 -0.1083  0.1775  0.4169
   43CHL1   C10 4327   0.205   2.380   5.118  0.6629  0.4730  0.2762
   43CHL1   C19 4328   0.062   2.313   5.096  0.1152 -0.1183  0.2515
   43CHL1  H19A 4329   0.020   2.367   5.008  3.7528  1.1526 -0.8743
   43CHL1  H19B 4330   0.065   2.205   5.069 -2.2873 -0.3324  0.5711
   43CHL1  H19C 4331  -0.006   2.306   5.184 -0.0674 -0.3472  0.0949
   43CHL1    C1 4332   0.294   2.301   5.214 -0.1621  0.5981 -0.0379
   43CHL1   H1A 4333   0.287   2.196   5.178 -1.8104  0.6837 -0.0420
   43CHL1   H1B 4334   0.399   2.332   5.196 -0.7972  2.3733 -0.9199
   43CHL1    C2 4335   0.250   2.308   5.362  0.5749  0.1938 -0.0377
   43CHL1   H2A 4336   0.315   2.246   5.427  0.8744  0.4710 -0.0706
   43CHL1   H2B 4337   0.147   2.265   5.365  1.0048 -0.9202 -0.6885
   43CHL1   C20 4338   0.367   2.313   4.422 -0.0581 -0.1472 -0.5717
   43CHL1   H20 4339   0.371   2.210   4.464  2.4690 -0.9390 -2.4714
   43CHL1   C21 4340   0.501   2.324   4.340  0.4025 -0.9910 -0.5313
   43CHL1  H21A 4341   0.586   2.344   4.408 -0.3804 -0.6022  0.3532
   43CHL1  H21B 4342   0.478   2.406   4.269 -0.2658 -1.0655 -0.4126
   43CHL1  H21C 4343   0.519   2.225   4.291  0.2355 -1.9870  1.3289
   43CHL1   C22 4344   0.248   2.337   4.328  0.8698 -0.1254  0.2701
   43CHL1  H22A 4345   0.154   2.336   4.388  0.4342 -0.7323 -0.3974
   43CHL1  H22B 4346   0.255   2.439   4.284  3.6493 -0.7506 -0.9279
   43CHL1   C23 4347   0.239   2.236   4.213  0.1616 -0.2968  0.8910
   43CHL1  H23A 4348   0.309   2.260   4.130 -1.9814 -0.5521 -1.0719
   43CHL1  H23B 4349   0.256   2.138   4.262  0.0131  0.5696  2.7730
   43CHL1   C24 4350   0.089   2.226   4.161 -0.1357 -0.7924  0.8696
   43CHL1  H24A 4351   0.015   2.206   4.241 -1.4314 -1.1111 -0.3604
   43CHL1  H24B 4352   0.071   2.328   4.121 -1.1976 -2.0880 -2.2994
   43CHL1   C25 4353   0.071   2.124   4.044  0.5722 -0.5795 -0.0413
   43CHL1   H25 4354   0.135   2.157   3.959 -1.6908  0.3649 -1.4933
   43CHL1   C26 4355   0.115   1.986   4.087 -0.1523  0.4748 -0.7183
   43CHL1  H26A 4356   0.225   1.975   4.101 -0.3095  1.0465  1.3494
   43CHL1  H26B 4357   0.059   1.954   4.178  1.7683  0.8151  0.6550
   43CHL1  H26C 4358   0.084   1.912   4.011  0.6148  0.0772 -0.6566
   43CHL1   C27 4359  -0.065   2.112   3.983  0.7791 -0.2717  0.1592
   43CHL1  H27A 4360  -0.093   2.193   3.912 -1.5407 -0.1690  1.0926
   43CHL1  H27B 4361  -0.078   2.019   3.923  1.4777  0.6196 -1.4420
   43CHL1  H27C 4362  -0.138   2.114   4.067  1.4857 -0.0649  0.7704
   44CHL1    C3 4363   0.481   4.462   5.561 -0.2590  0.1826 -0.5448
   44CHL1    H3 4364   0.519   4.564   5.582  0.4017 -0.2977  0.6901
   44CHL1    O3 4365   0.463   4.398   5.685  0.3608 -0.2497  0.2501
   44CHL1   H3' 4366   0.367   4.394   5.692  0.4475 -0.4245  1.6970
   44CHL1    C4 4367   0.351   4.482   5.482  0.5233 -0.1562  0.0932
   44CHL1   H4A 4368   0.297   4.385   5.491 -1.0394  0.8988  4.2711
   44CHL1   H4B 4369   0.288   4.546   5.547 -0.4003 -0.8302 -0.1080
   44CHL1    C5 4370   0.363   4.533   5.339 -0.1503  0.2228 -0.6763
   44CHL1    C6 4371   0.299   4.646   5.293 -0.1606 -0.0014  0.7902
   44CHL1    H6 4372   0.225   4.688   5.363 -1.1184  0.8297 -0.6739
   44CHL1    C7 4373   0.302   4.699   5.159 -0.3065 -0.4498 -0.4236
   44CHL1   H7A 4374   0.193   4.720   5.146 -0.2913 -0.6237 -0.8725
   44CHL1   H7B 4375   0.358   4.792   5.138  0.7791 -1.3935 -1.9284
   44CHL1    C8 4376   0.352   4.596   5.048 -0.0762 -0.0387  0.0530
   44CHL1    H8 4377   0.267   4.527   5.031  1.3972 -1.4065 -2.3864
   44CHL1   C14 4378   0.382   4.652   4.914 -0.1402  0.1349  0.6164
   44CHL1   H14 4379   0.465   4.724   4.932  2.3011 -2.6701  1.3822
   44CHL1   C15 4380   0.257   4.716   4.843 -0.0160 -0.1179  0.0930
   44CHL1  H15A 4381   0.174   4.642   4.851  0.2995 -0.3902  0.8822
   44CHL1  H15B 4382   0.242   4.807   4.905  1.8622 -1.2062  2.2760
   44CHL1   C16 4383   0.316   4.733   4.697 -0.7060 -0.3195 -0.7677
   44CHL1  H16A 4384   0.241   4.704   4.620 -0.5652 -0.9465 -0.6732
   44CHL1  H16B 4385   0.343   4.840   4.682 -0.4469 -0.3074 -0.2211
   44CHL1   C17 4386   0.446   4.655   4.687 -0.3466 -1.1417 -0.6812
   44CHL1   H17 4387   0.518   4.732   4.724  0.4716 -0.9994 -2.4527
   44CHL1   C13 4388   0.438   4.557   4.807  0.0397 -0.1096 -0.7949
   44CHL1   C18 4389   0.340   4.444   4.785 -0.2621  0.7893  0.1272
   44CHL1  H18A 4390   0.301   4.400   4.879 -0.1647 -1.0591 -0.6373
   44CHL1  H18B 4391   0.253   4.491   4.734 -0.6645  2.3024  2.1119
   44CHL1  H18C 4392   0.387   4.359   4.731  2.6684  3.3359 -1.6603
   44CHL1   C12 4393   0.577   4.508   4.859  0.6067  0.3295  0.3849
   44CHL1  H12A 4394   0.616   4.432   4.787 -1.3792  0.7796 -1.2428
   44CHL1  H12B 4395   0.654   4.588   4.864  1.8962 -0.9422  2.3558
   44CHL1   C11 4396   0.557   4.434   4.993  0.4218  0.2190  0.5003
   44CHL1  H11A 4397   0.503   4.339   4.969  0.6579  0.9691 -3.6035
   44CHL1  H11B 4398   0.658   4.407   5.029  0.6204 -0.8812 -0.8153
   44CHL1    C9 4399   0.480   4.521   5.100 -0.4652  0.1538  0.7110
   44CHL1    H9 4400   0.552   4.601   5.126 -0.5192  1.2423 -2.1698
   44CHL1   C10 4401   0.456   4.454   5.245  0.0553  0.1796 -0.4589
   44CHL1   C19 4402   0.393   4.312   5.212  0.1938 -0.2507 -0.5788
   44CHL1  H19A 4403   0.467   4.250   5.156  0.2502  1.2898 -2.3329
   44CHL1  H19B 4404   0.356   4.257   5.301 -2.2524  0.5961 -0.9977
   44CHL1  H19C 4405   0.307   4.320   5.143 -0.4391 -1.3414  0.0616
   44CHL1    C1 4406   0.585   4.434   5.331 -0.0698  0.9039 -0.2455
   44CHL1   H1A 4407   0.658   4.371   5.276  0.2646 -0.6751  1.8913
   44CHL1   H1B 4408   0.630   4.534   5.351  1.7761  0.1000 -0.1929
   44CHL1    C2 4409   0.573   4.375   5.472  0.8814 -0.2353 -0.6032
   44CHL1   H2A 4410   0.673   4.374   5.522 -0.7667  2.0352  3.1672
   44CHL1   H2B 4411   0.550   4.267   5.464 -3.2352  0.3934  0.6571
   44CHL1   C20 4412   0.493   4.623   4.545  0.7025  0.7151  0.3428
   44CHL1   H20 4413   0.469   4.710   4.480 -1.8160  0.3700  0.7112
   44CHL1   C21 4414   0.421   4.506   4.474 -0.0331  0.5020 -0.1940
   44CHL1  H21A 4415   0.458   4.512   4.370  3.4929  0.2425  0.9379
   44CHL1  H21B 4416   0.310   4.510   4.483 -0.0597  0.4165 -0.4916
   44CHL1  H21C 4417   0.463   4.416   4.522  0.1401  0.1319 -1.0217
   44CHL1   C22 4418   0.646   4.597   4.528  0.0876 -0.4336 -0.4379
   44CHL1  H22A 4419   0.680   4.551   4.623  0.1445  1.5351  0.5569
   44CHL1  H22B 4420   0.669   4.540   4.435 -0.4652 -0.1481 -0.7529
   44CHL1   C23 4421   0.722   4.733   4.531 -0.1569  0.0951 -0.2339
   44CHL1  H23A 4422   0.679   4.788   4.444  2.8526 -0.2051 -2.0880
   44CHL1  H23B 4423   0.704   4.779   4.630  2.0405  0.8524 -0.1491
   44CHL1   C24 4424   0.875   4.704   4.515  1.6171  0.2020 -0.4945
   44CHL1  H24A 4425   0.894   4.625   4.590 -0.7336 -0.9760 -1.0300
   44CHL1  H24B 4426   0.888   4.649   4.419  2.3596  0.7876 -0.7387
   44CHL1   C25 4427   0.973   4.823   4.532  0.1319 -0.1252 -1.3365
   44CHL1   H25 4428   1.061   4.790   4.473  0.7617 -0.4684 -0.2323
   44CHL1   C26 4429   0.909   4.952   4.476 -0.3241 -0.6647 -0.4914
   44CHL1  H26A 4430   0.827   5.002   4.530  1.0677  0.4921  0.6351
   44CHL1  H26B 4431   0.990   5.028   4.476 -0.3071 -0.6766 -0.0267
   44CHL1  H26C 4432   0.871   4.928   4.375 -1.9745  0.3159 -0.1349
   44CHL1   C27 4433   1.034   4.846   4.678  0.8493  0.0980  0.2548
   44CHL1  H27A 4434   1.118   4.918   4.670 -0.6036  1.8721  0.1206
   44CHL1  H27B 4435   0.951   4.886   4.741  2.3398  2.1147  1.0481
   44CHL1  H27C 4436   1.076   4.750   4.714 -1.4204  0.0661  3.1938
   45CHL1    C3 4437   7.069   5.073   5.471  0.3080 -0.6420  0.1366
   45CHL1    H3 4438   7.122   5.169   5.492 -0.1504  0.2265 -2.3600
   45CHL1    O3 4439   7.015   5.025   5.590 -0.0465  0.1287 -0.1103
   45CHL1   H3' 4440   6.927   5.061   5.582  0.2994  1.3244  1.1036
   45CHL1    C4 4441   6.959   5.101   5.369  0.0233 -0.2354  0.7541
   45CHL1   H4A 4442   6.917   5.002   5.341  1.1442 -0.9527  1.5448
   45CHL1   H4B 4443   6.877   5.163   5.412  0.3002  0.3622  0.4348
   45CHL1    C5 4444   7.004   5.160   5.237 -0.3969  0.0702 -0.2849
   45CHL1    C6 4445   6.963   5.279   5.192  0.3015  0.1995 -0.2845
   45CHL1    H6 4446   6.890   5.334   5.253 -0.5317  1.6986 -2.5103
   45CHL1    C7 4447   6.994   5.332   5.054 -0.3682 -0.3966  0.2469
   45CHL1   H7A 4448   6.903   5.358   4.995  0.1254 -2.1024 -1.3707
   45CHL1   H7B 4449   7.058   5.423   5.056 -0.2112 -0.4174 -1.5550
   45CHL1    C8 4450   7.071   5.224   4.967  0.1008 -0.0987  0.4360
   45CHL1    H8 4451   7.005   5.142   4.932  0.4662  0.1117 -0.7922
   45CHL1   C14 4452   7.125   5.281   4.831  0.9151 -0.2084  0.1860
   45CHL1   H14 4453   7.201   5.351   4.872  1.4298  0.1020 -1.2253
   45CHL1   C15 4454   7.016   5.344   4.747  0.2048  0.2949 -0.0840
   45CHL1  H15A 4455   6.930   5.275   4.737  1.0255 -0.5904 -1.2991
   45CHL1  H15B 4456   6.984   5.440   4.793  1.4542  0.6695  0.0560
   45CHL1   C16 4457   7.093   5.368   4.610 -0.0134  0.8331  0.1341
   45CHL1  H16A 4458   7.025   5.344   4.525 -1.0415 -0.5539  1.2952
   45CHL1  H16B 4459   7.137   5.470   4.601  0.0851  1.2765  4.1577
   45CHL1   C17 4460   7.221   5.272   4.617  0.4351  0.9391 -0.0726
   45CHL1   H17 4461   7.311   5.337   4.626  1.7667 -0.9716  1.1702
   45CHL1   C13 4462   7.199   5.180   4.745 -0.4308 -0.3640 -0.0546
   45CHL1   C18 4463   7.104   5.062   4.706 -0.4325 -0.4407  0.5179
   45CHL1  H18A 4464   7.160   4.982   4.653  1.2032  1.7572 -1.2930
   45CHL1  H18B 4465   7.070   5.004   4.795 -1.9357  1.5540  1.3247
   45CHL1  H18C 4466   7.026   5.101   4.637 -1.2107  0.2080  1.7115
   45CHL1   C12 4467   7.329   5.145   4.830  0.0465  0.0893  0.2420
   45CHL1  H12A 4468   7.391   5.080   4.766 -1.4105 -1.3541  0.2388
   45CHL1  H12B 4469   7.390   5.235   4.857 -0.2259 -0.2105  2.0014
   45CHL1   C11 4470   7.285   5.072   4.963 -0.9090 -0.6354  0.2161
   45CHL1  H11A 4471   7.230   4.979   4.941 -2.5436  0.3128  0.1167
   45CHL1  H11B 4472   7.382   5.036   5.004  0.9475  0.1245 -3.1584
   45CHL1    C9 4473   7.190   5.161   5.049 -0.1571 -0.2519 -0.2589
   45CHL1    H9 4474   7.248   5.250   5.083 -0.4515 -1.6001  4.5761
   45CHL1   C10 4475   7.122   5.078   5.174  0.0471  0.0540  0.3023
   45CHL1   C19 4476   7.065   4.946   5.124 -0.1169  0.1974  0.6075
   45CHL1  H19A 4477   7.146   4.876   5.092  1.8654  1.8646  1.7740
   45CHL1  H19B 4478   7.009   4.887   5.199 -0.0260  0.8810  1.2160
   45CHL1  H19C 4479   6.991   4.966   5.043 -1.1077  1.7905  1.8637
   45CHL1    C1 4480   7.232   5.056   5.279  0.5599  0.0074 -0.4554
   45CHL1   H1A 4481   7.320   5.004   5.234  0.9662  0.9872 -0.8263
   45CHL1   H1B 4482   7.263   5.158   5.309  1.1735 -0.0984 -0.6976
   45CHL1    C2 4483   7.179   4.986   5.405 -0.2427 -0.4198  0.1833
   45CHL1   H2A 4484   7.265   4.952   5.468  0.2805 -1.6331 -1.1244
   45CHL1   H2B 4485   7.129   4.892   5.373  1.8652 -1.8840  0.9030
   45CHL1   C20 4486   7.243   5.198   4.488 -0.3677 -0.4886 -0.3485
   45CHL1   H20 4487   7.152   5.148   4.449 -1.3701  2.2161 -1.8038
   45CHL1   C21 4488   7.361   5.096   4.500 -0.4598 -0.6215  0.0685
   45CHL1  H21A 4489   7.378   5.063   4.395  1.7622 -0.6667  0.4000
   45CHL1  H21B 4490   7.333   5.006   4.558 -2.5517 -0.1518 -0.1138
   45CHL1  H21C 4491   7.456   5.133   4.544 -0.9962 -0.2225  0.9103
   45CHL1   C22 4492   7.282   5.304   4.378  0.5695  0.7102  0.2620
   45CHL1  H22A 4493   7.200   5.378   4.389 -2.2344 -2.2444  0.8524
   45CHL1  H22B 4494   7.382   5.339   4.410  1.3359 -0.8817 -0.2765
   45CHL1   C23 4495   7.294   5.265   4.231  0.7808 -0.0607  0.3548
   45CHL1  H23A 4496   7.368   5.184   4.213 -0.5525 -0.9769 -1.2535
   45CHL1  H23B 4497   7.194   5.229   4.197 -0.3212  2.3646  0.7797
   45CHL1   C24 4498   7.313   5.396   4.148 -0.8121  0.3596  0.3817
   45CHL1  H24A 4499   7.211   5.439   4.143 -1.8726 -1.6495  2.8430
   45CHL1  H24B 4500   7.384   5.464   4.199  1.0650 -0.5597 -0.8785
   45CHL1   C25 4501   7.362   5.357   4.006  0.0306 -0.2887  0.8210
   45CHL1   H25 4502   7.444   5.282   4.004  0.8842  0.6493  0.0180
   45CHL1   C26 4503   7.237   5.301   3.924  0.3018 -0.3451  0.0460
   45CHL1  H26A 4504   7.165   5.242   3.984 -1.8938  0.8174 -1.3461
   45CHL1  H26B 4505   7.177   5.386   3.885 -1.8142 -0.6540  2.4083
   45CHL1  H26C 4506   7.268   5.241   3.836 -1.4599  0.6429 -1.3021
   45CHL1   C27 4507   7.418   5.478   3.924 -0.2741  0.0934  0.3111
   45CHL1  H27A 4508   7.355   5.569   3.936  1.1894  1.6785 -2.9553
   45CHL1  H27B 4509   7.517   5.499   3.969  0.5012 -0.2876 -1.1692
   45CHL1  H27C 4510   7.438   5.444   3.820  1.4029 -0.8295  0.9098
   46CHL1    C3 4511   1.028   6.225   5.502  0.3673  0.5379 -0.7188
   46CHL1    H3 4512   0.988   6.329   5.498 -1.1246  0.0577  0.6945
   46CHL1    O3 4513   1.016   6.192   5.639  0.2115 -0.3269  0.2718
   46CHL1   H3' 4514   1.039   6.099   5.646  0.1403 -0.3493  0.2209
   46CHL1    C4 4515   0.933   6.137   5.424  0.1701  0.5387 -0.2231
   46CHL1   H4A 4516   0.975   6.034   5.435  1.2583  0.5693 -3.2417
   46CHL1   H4B 4517   0.830   6.124   5.465  0.5292  2.2632  1.3763
   46CHL1    C5 4518   0.940   6.163   5.278 -1.2839  0.9926  0.1864
   46CHL1    C6 4519   0.829   6.195   5.204  0.1213 -0.0961 -0.4510
   46CHL1    H6 4520   0.731   6.212   5.251  0.6184 -0.5786  0.8002
   46CHL1    C7 4521   0.836   6.232   5.062 -0.0681  0.3936 -0.4590
   46CHL1   H7A 4522   0.752   6.198   4.997  0.0258 -0.4676 -0.1447
   46CHL1   H7B 4523   0.835   6.343   5.056  1.8524  0.4309 -0.6171
   46CHL1    C8 4524   0.963   6.183   4.994 -0.3801  0.1152  0.7893
   46CHL1    H8 4525   0.952   6.073   4.985  2.8763 -0.1863 -1.2963
   46CHL1   C14 4526   0.980   6.247   4.855  0.1860 -0.3719 -0.2898
   46CHL1   H14 4527   1.009   6.354   4.868 -0.1993 -0.2040 -0.7352
   46CHL1   C15 4528   0.853   6.267   4.767  0.3278  0.0033 -0.2356
   46CHL1  H15A 4529   0.784   6.180   4.761 -3.3006  2.5034  1.9042
   46CHL1  H15B 4530   0.795   6.351   4.810 -0.5077 -1.3093  1.3099
   46CHL1   C16 4531   0.913   6.280   4.626  0.0108 -0.1571  0.2480
   46CHL1  H16A 4532   0.871   6.198   4.564  2.2735 -2.8902  2.0628
   46CHL1  H16B 4533   0.889   6.376   4.574 -1.6947 -0.5381  0.2828
   46CHL1   C17 4534   1.067   6.280   4.632  0.2940 -0.3444  0.0677
   46CHL1   H17 4535   1.101   6.385   4.643  1.8816 -0.5690 -2.0316
   46CHL1   C13 4536   1.092   6.195   4.766  0.6302 -0.0049 -0.1716
   46CHL1   C18 4537   1.086   6.043   4.735  0.1555 -0.4863 -0.0649
   46CHL1  H18A 4538   1.184   5.999   4.705  0.8806 -0.8729  2.6277
   46CHL1  H18B 4539   1.063   5.985   4.826 -1.0158 -0.2842 -0.2265
   46CHL1  H18C 4540   1.006   6.026   4.660 -0.2064  0.8700 -0.0139
   46CHL1   C12 4541   1.224   6.218   4.848  0.5257 -0.7681 -0.4671
   46CHL1  H12A 4542   1.314   6.181   4.794  2.6308  2.0110  0.8990
   46CHL1  H12B 4543   1.237   6.328   4.850 -2.3886 -0.3235  1.6849
   46CHL1   C11 4544   1.219   6.165   4.991 -0.6021  0.0678 -0.4923
   46CHL1  H11A 4545   1.217   6.054   4.978  1.2735  0.0423 -0.8990
   46CHL1  H11B 4546   1.314   6.186   5.045 -0.0361 -1.4871 -0.8246
   46CHL1    C9 4547   1.095   6.210   5.069 -0.2776 -0.2921 -0.1213
   46CHL1    H9 4548   1.086   6.320   5.081 -2.0473 -0.1303 -2.2734
   46CHL1   C10 4549   1.085   6.159   5.214  0.3039  0.3023 -0.0699
   46CHL1   C19 4550   1.133   6.005   5.222  0.3861 -0.1383 -0.1783
   46CHL1  H19A 4551   1.134   5.967   5.326  0.2080  1.5853  0.4873
   46CHL1  H19B 4552   1.066   5.947   5.155 -1.0433  1.1918  0.0351
   46CHL1  H19C 4553   1.238   6.006   5.187  0.4034  0.2460 -0.1201
   46CHL1    C1 4554   1.181   6.248   5.301 -0.8437 -0.0910 -0.4356
   46CHL1   H1A 4555   1.286   6.226   5.271  0.2844  2.2133  1.4991
   46CHL1   H1B 4556   1.169   6.356   5.280  1.8011  0.4265  0.3155
   46CHL1    C2 4557   1.175   6.216   5.453 -0.4237  0.3387  0.3188
   46CHL1   H2A 4558   1.243   6.289   5.502 -0.0768  0.6987 -0.6748
   46CHL1   H2B 4559   1.224   6.117   5.461 -0.8983 -0.0269 -1.0372
   46CHL1   C20 4560   1.134   6.244   4.498  0.5335  0.8501  0.2027
   46CHL1   H20 4561   1.108   6.141   4.464 -0.4629 -0.4307  4.2932
   46CHL1   C21 4562   1.280   6.269   4.518 -0.4720 -0.9036  0.2536
   46CHL1  H21A 4563   1.334   6.238   4.426 -0.8210 -0.4775 -0.0976
   46CHL1  H21B 4564   1.332   6.215   4.600  4.0172  2.3531 -0.0340
   46CHL1  H21C 4565   1.296   6.379   4.530 -2.1711 -0.5577 -0.4039
   46CHL1   C22 4566   1.079   6.338   4.384  0.1890  0.2792 -0.3053
   46CHL1  H22A 4567   0.975   6.300   4.369 -0.5585  1.9759  0.3028
   46CHL1  H22B 4568   1.063   6.444   4.413 -0.6991 -0.2295  1.2037
   46CHL1   C23 4569   1.165   6.324   4.258 -0.5834  0.0319  0.1981
   46CHL1  H23A 4570   1.259   6.382   4.271 -0.4086 -0.2603  0.2408
   46CHL1  H23B 4571   1.184   6.215   4.243 -1.2977  0.1012 -1.4241
   46CHL1   C24 4572   1.086   6.365   4.131  0.0822 -1.0619  0.2359
   46CHL1  H24A 4573   0.987   6.314   4.133 -0.9014  0.6554  3.7069
   46CHL1  H24B 4574   1.064   6.472   4.149  0.7214 -0.7313 -0.8611
   46CHL1   C25 4575   1.159   6.355   3.992  0.6997 -0.3282  0.4602
   46CHL1   H25 4576   1.262   6.395   4.000  0.0259  1.4309  0.7132
   46CHL1   C26 4577   1.158   6.207   3.942  0.5893  0.1797 -0.0015
   46CHL1  H26A 4578   1.058   6.159   3.954  0.2466  0.5797 -1.1026
   46CHL1  H26B 4579   1.189   6.202   3.836  2.0914  0.6055  0.3989
   46CHL1  H26C 4580   1.225   6.145   4.004 -2.2290 -0.1757  2.9740
   46CHL1   C27 4581   1.082   6.444   3.887  0.7762 -0.0809  0.2711
   46CHL1  H27A 4582   1.137   6.422   3.793  2.3049 -1.1242  1.3551
   46CHL1  H27B 4583   0.980   6.401   3.880  0.6575 -0.0550  1.6045
   46CHL1  H27C 4584   1.081   6.552   3.912 -1.8287 -0.2327  1.0432
   47CHL1    C3 4585   1.099   0.152   5.759  0.2795  0.1423 -0.5506
   47CHL1    H3 4586   1.130   0.258   5.750 -0.3146  0.4992  1.2137
   47CHL1    O3 4587   1.089   0.115   5.898 -0.3733 -0.3939 -0.1291
   47CHL1   H3' 4588   1.042   0.032   5.908 -0.0887 -0.5442 -0.0217
   47CHL1    C4 4589   0.961   0.133   5.685 -0.4559 -0.3956  0.0197
   47CHL1   H4A 4590   0.928   0.029   5.708  0.8753 -0.7092  0.6316
   47CHL1   H4B 4591   0.891   0.213   5.718  0.4325  0.7188 -0.7226
   47CHL1    C5 4592   0.977   0.150   5.536 -0.4098 -0.5288 -0.2977
   47CHL1    C6 4593   0.892   0.225   5.462 -0.3620 -0.2437  0.0153
   47CHL1    H6 4594   0.826   0.288   5.524 -0.5466 -0.7840  0.3756
   47CHL1    C7 4595   0.887   0.238   5.314  0.4354  0.1046  0.1438
   47CHL1   H7A 4596   0.794   0.234   5.254  0.8088 -0.5965 -0.4131
   47CHL1   H7B 4597   0.933   0.332   5.278  1.2377  0.1525  1.2256
   47CHL1    C8 4598   0.973   0.134   5.249 -0.1363  0.5934  0.8125
   47CHL1    H8 4599   0.912   0.041   5.242  0.1514  0.4654 -0.1735
   47CHL1   C14 4600   1.008   0.176   5.106  0.1452 -0.0100  0.7031
   47CHL1   H14 4601   1.085   0.255   5.115  1.3886 -1.1407  0.2315
   47CHL1   C15 4602   0.895   0.235   5.008 -0.5746  0.4745 -0.3065
   47CHL1  H15A 4603   0.812   0.162   5.013  0.1376 -0.2536  2.9739
   47CHL1  H15B 4604   0.862   0.334   5.045 -2.4346 -0.0838 -0.4000
   47CHL1   C16 4605   0.962   0.228   4.870  0.3752 -0.1529  0.2034
   47CHL1  H16A 4606   0.901   0.168   4.798 -0.7225  0.7503  0.3559
   47CHL1  H16B 4607   0.967   0.329   4.825 -1.2060 -0.4453 -0.7283
   47CHL1   C17 4608   1.094   0.152   4.889 -0.4514 -0.1644  0.3653
   47CHL1   H17 4609   1.177   0.222   4.911 -0.6869  0.0672  0.5262
   47CHL1   C13 4610   1.083   0.067   5.019  0.4233 -0.1118 -0.0281
   47CHL1   C18 4611   0.989  -0.058   4.992  0.1279  0.3189 -0.0797
   47CHL1  H18A 4612   1.037  -0.137   4.929  0.8752  0.2292  0.5879
   47CHL1  H18B 4613   0.959  -0.105   5.088 -0.3583  1.1039  0.1587
   47CHL1  H18C 4614   0.891  -0.025   4.950  0.2699  1.2428  0.3012
   47CHL1   C12 4615   1.207   0.033   5.097 -0.1806  0.1300 -0.2456
   47CHL1  H12A 4616   1.261  -0.054   5.053 -0.8947 -0.3497 -0.2015
   47CHL1  H12B 4617   1.270   0.124   5.095  1.0661 -0.7194 -0.1820
   47CHL1   C11 4618   1.180  -0.017   5.242  0.2614 -0.0493 -0.4198
   47CHL1  H11A 4619   1.110  -0.103   5.244 -0.5687  0.6164  1.2521
   47CHL1  H11B 4620   1.268  -0.053   5.300 -1.5593 -1.8138  1.4333
   47CHL1    C9 4621   1.100   0.092   5.323  0.4191 -0.0736  0.2709
   47CHL1    H9 4622   1.151   0.191   5.318 -0.7202  0.4824 -3.8718
   47CHL1   C10 4623   1.078   0.059   5.473  0.2207 -0.0873 -0.9057
   47CHL1   C19 4624   1.024  -0.079   5.473 -0.2017  0.3688 -0.5551
   47CHL1  H19A 4625   1.108  -0.144   5.440  2.5366  4.2179 -1.8948
   47CHL1  H19B 4626   0.980  -0.111   5.570 -1.0339  1.8024 -0.4397
   47CHL1  H19C 4627   0.936  -0.111   5.414 -0.0596 -1.8382  0.3234
   47CHL1    C1 4628   1.213   0.086   5.550 -0.2020  0.6862 -0.2027
   47CHL1   H1A 4629   1.292   0.027   5.499 -1.9223 -0.3590 -1.7778
   47CHL1   H1B 4630   1.241   0.193   5.539  0.1363  0.5205 -1.0112
   47CHL1    C2 4631   1.201   0.057   5.702 -0.2454 -0.5287  0.2805
   47CHL1   H2A 4632   1.300   0.091   5.740  1.0499 -0.6729 -2.7015
   47CHL1   H2B 4633   1.184  -0.048   5.735  2.1451 -0.9122  0.4988
   47CHL1   C20 4634   1.130   0.083   4.754 -0.6040 -0.3907 -0.2717
   47CHL1   H20 4635   1.050   0.010   4.726 -0.0999 -1.2363  0.4125
   47CHL1   C21 4636   1.261   0.004   4.771 -0.1159 -0.4822 -0.2196
   47CHL1  H21A 4637   1.251  -0.094   4.821 -0.3290 -0.2733  0.1454
   47CHL1  H21B 4638   1.342   0.059   4.823 -0.2222 -0.5710  0.0410
   47CHL1  H21C 4639   1.303  -0.017   4.670  2.2387  1.0496  0.3651
   47CHL1   C22 4640   1.153   0.192   4.645  0.2989 -0.1026  0.1932
   47CHL1  H22A 4641   1.062   0.254   4.636  1.2481  1.4439  0.7671
   47CHL1  H22B 4642   1.218   0.277   4.677 -0.7788  0.8095  0.0233
   47CHL1   C23 4643   1.191   0.132   4.512 -0.9673  0.3736 -0.5912
   47CHL1  H23A 4644   1.290   0.081   4.513 -0.1003  1.8369  2.6851
   47CHL1  H23B 4645   1.110   0.057   4.498 -1.0328 -0.2099  2.3895
   47CHL1   C24 4646   1.197   0.242   4.408 -0.1229 -0.3206  0.3616
   47CHL1  H24A 4647   1.109   0.310   4.415  1.0206  1.1231  1.2176
   47CHL1  H24B 4648   1.291   0.297   4.431 -1.6583  3.0621 -0.8219
   47CHL1   C25 4649   1.219   0.200   4.262  0.1029 -0.1755  0.2757
   47CHL1   H25 4650   1.287   0.112   4.268  0.5246  0.1094 -0.1767
   47CHL1   C26 4651   1.086   0.157   4.208 -0.1861  0.4273 -0.1864
   47CHL1  H26A 4652   1.008   0.235   4.194  0.2507  0.7835 -0.6434
   47CHL1  H26B 4653   1.098   0.107   4.110 -1.5655  0.0838 -0.1984
   47CHL1  H26C 4654   1.038   0.088   4.281 -0.2040  1.7233  1.0775
   47CHL1   C27 4655   1.282   0.319   4.188 -0.3122 -0.0405  0.0109
   47CHL1  H27A 4656   1.213   0.406   4.188 -0.5346 -0.2158  0.2289
   47CHL1  H27B 4657   1.368   0.348   4.253 -2.2389 -0.3556  2.9316
   47CHL1  H27C 4658   1.309   0.292   4.084 -1.0078  2.7527 -0.9985
   48CHL1    C3 4659   6.134   0.094   5.488 -0.3014  0.0223 -0.3769
   48CHL1    H3 4660   6.232   0.146   5.485  0.2998 -0.9836  0.8766
   48CHL1    O3 4661   6.077   0.122   5.610  0.0574  0.5809  0.1025
   48CHL1   H3' 4662   6.019   0.046   5.614  2.1338 -1.0717  0.3849
   48CHL1    C4 4663   6.040   0.138   5.371  0.2144 -0.2810  0.4158
   48CHL1   H4A 4664   5.942   0.102   5.407  0.4271 -1.1191  0.1765
   48CHL1   H4B 4665   6.046   0.249   5.366  1.9846 -0.3893 -2.5498
   48CHL1    C5 4666   6.075   0.090   5.231  0.2167 -0.1435 -0.1979
   48CHL1    C6 4667   6.081   0.181   5.133  0.0143 -0.5327 -0.2058
   48CHL1    H6 4668   6.051   0.285   5.150 -0.0495 -0.7871  1.3635
   48CHL1    C7 4669   6.114   0.150   4.992  0.2718  0.3102 -0.6033
   48CHL1   H7A 4670   6.036   0.177   4.917  0.2688  0.6540 -0.4772
   48CHL1   H7B 4671   6.204   0.209   4.967 -0.2247  1.0948 -0.5853
   48CHL1    C8 4672   6.157  -0.001   4.967 -0.2486 -0.3200  0.9741
   48CHL1    H8 4673   6.062  -0.057   4.952  0.3138 -1.2971  0.9339
   48CHL1   C14 4674   6.256  -0.011   4.848  0.4222  0.3921 -0.0629
   48CHL1   H14 4675   6.341   0.054   4.875  0.1116  0.3375  1.0889
   48CHL1   C15 4676   6.210   0.050   4.717  0.0656  0.0113  0.1804
   48CHL1  H15A 4677   6.114   0.002   4.688  0.7670 -0.8412 -0.8290
   48CHL1  H15B 4678   6.207   0.161   4.729 -1.4659 -0.1333  1.5629
   48CHL1   C16 4679   6.314  -0.007   4.615  0.6650 -0.4448 -0.0514
   48CHL1  H16A 4680   6.256  -0.044   4.528 -0.6832  3.5468 -1.0675
   48CHL1  H16B 4681   6.377   0.071   4.568 -0.0552 -0.8237 -1.7072
   48CHL1   C17 4682   6.389  -0.118   4.692  0.4011  0.0919 -0.4699
   48CHL1   H17 4683   6.480  -0.063   4.725  0.3686  0.7550 -1.4448
   48CHL1   C13 4684   6.307  -0.152   4.816  0.3267 -0.3476 -0.4949
   48CHL1   C18 4685   6.189  -0.251   4.773  0.7015 -0.1534  0.0040
   48CHL1  H18A 4686   6.127  -0.195   4.700  0.7725  0.5828  0.5026
   48CHL1  H18B 4687   6.226  -0.345   4.725 -0.2235 -0.3238 -0.4047
   48CHL1  H18C 4688   6.117  -0.278   4.853  2.3994 -2.0630  1.0013
   48CHL1   C12 4689   6.386  -0.201   4.949 -0.1886 -0.1662 -0.2043
   48CHL1  H12A 4690   6.425  -0.304   4.935  2.7997  0.7424  0.7354
   48CHL1  H12B 4691   6.471  -0.131   4.960 -0.9848  0.7250  0.4290
   48CHL1   C11 4692   6.293  -0.199   5.070 -0.1534 -0.3613  0.7080
   48CHL1  H11A 4693   6.219  -0.281   5.070 -0.6647  0.0829 -0.1580
   48CHL1  H11B 4694   6.369  -0.215   5.149  1.9562 -0.0540 -1.1242
   48CHL1    C9 4695   6.230  -0.059   5.090 -0.7151  0.4183  0.4191
   48CHL1    H9 4696   6.311   0.003   5.136 -0.6466 -0.3887  1.4449
   48CHL1   C10 4697   6.136  -0.048   5.214 -0.0142 -0.7312 -0.1079
   48CHL1   C19 4698   6.020  -0.143   5.196  0.0406  0.3311  0.4644
   48CHL1  H19A 4699   6.045  -0.251   5.202  0.0391  0.3666  1.3405
   48CHL1  H19B 4700   5.950  -0.147   5.282 -1.9597 -1.3446 -1.1477
   48CHL1  H19C 4701   5.962  -0.121   5.104 -0.5308  1.6232  1.0995
   48CHL1    C1 4702   6.210  -0.087   5.342  0.2834 -0.4561 -0.3417
   48CHL1   H1A 4703   6.237  -0.195   5.332 -1.4954 -1.0351  0.6706
   48CHL1   H1B 4704   6.305  -0.030   5.348  0.0526 -0.1692  0.8674
   48CHL1    C2 4705   6.150  -0.057   5.476  0.1099 -0.0535  0.1055
   48CHL1   H2A 4706   6.208  -0.093   5.563 -1.0158 -1.5928  0.2703
   48CHL1   H2B 4707   6.048  -0.101   5.485  0.1345 -0.2492 -0.5154
   48CHL1   C20 4708   6.435  -0.238   4.602 -0.6642  0.3523  0.3941
   48CHL1   H20 4709   6.347  -0.289   4.557  0.5383 -1.0014 -0.5321
   48CHL1   C21 4710   6.514  -0.345   4.691  0.3356 -0.5804 -0.3920
   48CHL1  H21A 4711   6.426  -0.396   4.735 -0.0799  0.1741 -0.3218
   48CHL1  H21B 4712   6.572  -0.417   4.630  1.1376  2.3066 -3.3742
   48CHL1  H21C 4713   6.575  -0.309   4.777 -1.3881  2.0709 -0.1376
   48CHL1   C22 4714   6.522  -0.191   4.473 -0.2769 -0.1761 -0.1130
   48CHL1  H22A 4715   6.469  -0.105   4.426 -0.7309  0.9707  2.3370
   48CHL1  H22B 4716   6.623  -0.161   4.507 -0.3644  0.9715 -0.8032
   48CHL1   C23 4717   6.527  -0.301   4.368 -0.5044 -0.4303  0.4494
   48CHL1  H23A 4718   6.567  -0.393   4.415 -2.0839  0.3299  3.5411
   48CHL1  H23B 4719   6.424  -0.326   4.333 -0.5632  0.2349  0.1349
   48CHL1   C24 4720   6.610  -0.257   4.245  0.0837  0.5641  0.4818
   48CHL1  H24A 4721   6.541  -0.187   4.193  0.7569  2.1813  1.6797
   48CHL1  H24B 4722   6.704  -0.205   4.273  0.7519 -1.1173  1.5167
   48CHL1   C25 4723   6.653  -0.360   4.138  0.1628 -0.3733 -0.1940
   48CHL1   H25 4724   6.716  -0.436   4.187  0.2819 -0.3526 -0.3148
   48CHL1   C26 4725   6.533  -0.425   4.067 -0.4363 -0.3326 -0.1391
   48CHL1  H26A 4726   6.482  -0.487   4.144 -0.3469  0.5441  0.6378
   48CHL1  H26B 4727   6.461  -0.354   4.021  0.2917 -0.0755 -0.8893
   48CHL1  H26C 4728   6.574  -0.490   3.986 -1.8855 -1.5267  0.0395
   48CHL1   C27 4729   6.730  -0.294   4.029  0.2473 -0.6063 -0.0774
   48CHL1  H27A 4730   6.801  -0.369   3.989 -0.4234 -0.7585 -1.0090
   48CHL1  H27B 4731   6.659  -0.246   3.958 -1.6107 -0.0759  2.0167
   48CHL1  H27C 4732   6.803  -0.216   4.059 -0.3390  1.3552 -3.2721
   49CHL1    C3 4733   4.199   4.352   2.198  0.3558 -0.2715 -0.0818
   49CHL1    H3 4734   4.211   4.461   2.212 -0.3026 -0.3738  1.4316
   49CHL1    O3 4735   4.169   4.314   2.068 -0.1599  1.2406  0.4933
   49CHL1   H3' 4736   4.073   4.321   2.063 -0.2198  1.2762 -5.1753
   49CHL1    C4 4737   4.325   4.285   2.252  0.2229 -0.1703  0.0952
   49CHL1   H4A 4738   4.323   4.177   2.227 -0.3759 -0.0629 -0.3464
   49CHL1   H4B 4739   4.403   4.314   2.179 -1.1363 -1.8203 -2.1562
   49CHL1    C5 4740   4.356   4.323   2.396 -0.4247 -0.1429  0.2973
   49CHL1    C6 4741   4.469   4.388   2.426 -0.6457  0.2946 -0.4118
   49CHL1    H6 4742   4.539   4.418   2.347  0.5132 -3.3229 -0.9122
   49CHL1    C7 4743   4.509   4.424   2.569  0.0158 -0.3349 -0.0994
   49CHL1   H7A 4744   4.614   4.396   2.587  0.8545  1.6389 -1.5380
   49CHL1   H7B 4745   4.514   4.535   2.581 -0.3035 -0.1950 -1.1242
   49CHL1    C8 4746   4.418   4.357   2.674 -0.7255  0.6814  0.0570
   49CHL1    H8 4747   4.444   4.249   2.678 -2.3424  0.0920 -2.7876
   49CHL1   C14 4748   4.445   4.413   2.817  0.1947  0.2653 -0.6309
   49CHL1   H14 4749   4.419   4.521   2.808 -1.2941 -0.0695 -0.5802
   49CHL1   C15 4750   4.585   4.396   2.876 -0.1856  0.7731 -0.1568
   49CHL1  H15A 4751   4.621   4.291   2.875 -1.1135  0.4035  1.3559
   49CHL1  H15B 4752   4.661   4.462   2.828  1.1157 -0.6741 -0.1515
   49CHL1   C16 4753   4.561   4.440   3.024 -0.1416  0.0922  0.3547
   49CHL1  H16A 4754   4.620   4.371   3.088 -1.2027 -1.9568 -0.7335
   49CHL1  H16B 4755   4.587   4.544   3.049 -1.9688  0.8331 -0.5979
   49CHL1   C17 4756   4.407   4.420   3.052 -0.1154  0.6869  0.5047
   49CHL1   H17 4757   4.365   4.523   3.056 -1.7470  0.0921 -0.3203
   49CHL1   C13 4758   4.350   4.361   2.927 -0.4205 -0.6834 -0.0421
   49CHL1   C18 4759   4.358   4.201   2.936 -0.1202  0.5853 -0.2114
   49CHL1  H18A 4760   4.278   4.153   2.996  1.1845 -0.6642  0.6237
   49CHL1  H18B 4761   4.342   4.147   2.840  0.8099  1.5066 -0.9089
   49CHL1  H18C 4762   4.454   4.173   2.985 -1.4493  0.1008  2.3213
   49CHL1   C12 4763   4.205   4.397   2.879  0.1028  0.3783 -0.3672
   49CHL1  H12A 4764   4.133   4.349   2.949  0.8599  1.5789  1.2990
   49CHL1  H12B 4765   4.190   4.507   2.889  3.4605  0.8619  0.2962
   49CHL1   C11 4766   4.175   4.337   2.739  0.7788  0.0183 -0.3618
   49CHL1  H11A 4767   4.164   4.227   2.744 -0.1864  0.1268  0.2135
   49CHL1  H11B 4768   4.073   4.378   2.721  0.9678  1.1040  0.8816
   49CHL1    C9 4769   4.275   4.379   2.629  1.0953 -0.0435 -0.8307
   49CHL1    H9 4770   4.258   4.488   2.617 -1.3069 -0.1316  0.9948
   49CHL1   C10 4771   4.242   4.298   2.495 -0.1798 -0.5119 -0.4362
   49CHL1   C19 4772   4.226   4.141   2.506  0.3349 -1.0855  0.2833
   49CHL1  H19A 4773   4.133   4.119   2.563 -0.7812  0.6641 -0.7995
   49CHL1  H19B 4774   4.212   4.100   2.404  0.5869 -2.9315  0.9535
   49CHL1  H19C 4775   4.318   4.096   2.550 -0.0838  0.1317  2.5575
   49CHL1    C1 4776   4.113   4.355   2.432 -0.2500  0.1861 -0.0935
   49CHL1   H1A 4777   4.030   4.325   2.500 -0.6640  1.5789  0.0427
   49CHL1   H1B 4778   4.116   4.466   2.438  2.4408  0.1097  2.5915
   49CHL1    C2 4779   4.082   4.304   2.286 -0.1805 -0.3322 -0.0712
   49CHL1   H2A 4780   3.982   4.337   2.251 -0.4335  1.2596  1.9787
   49CHL1   H2B 4781   4.067   4.193   2.282 -0.6991 -0.2663 -0.0447
   49CHL1   C20 4782   4.375   4.351   3.184 -0.1988  0.7249 -0.7686
   49CHL1   H20 4783   4.421   4.250   3.180 -0.0237  0.6745  1.3259
   49CHL1   C21 4784   4.224   4.333   3.205  0.1346 -0.6018  0.4042
   49CHL1  H21A 4785   4.177   4.269   3.128  1.4800 -1.6701  0.4280
   49CHL1  H21B 4786   4.181   4.435   3.198  2.4974  0.3374 -1.7041
   49CHL1  H21C 4787   4.199   4.287   3.303  0.3859  0.1079  0.8089
   49CHL1   C22 4788   4.436   4.440   3.302  0.6252  0.6146 -0.2656
   49CHL1  H22A 4789   4.543   4.452   3.278  1.1099 -1.6524  0.4919
   49CHL1  H22B 4790   4.390   4.541   3.305  0.6959  0.6180  1.2329
   49CHL1   C23 4791   4.430   4.364   3.443 -0.1185 -0.6319  0.3867
   49CHL1  H23A 4792   4.324   4.339   3.464 -0.2226 -1.2509 -0.8116
   49CHL1  H23B 4793   4.492   4.273   3.431  0.4601 -0.4186  1.5940
   49CHL1   C24 4794   4.496   4.458   3.548 -0.3236  0.7282 -0.4290
   49CHL1  H24A 4795   4.596   4.501   3.522  0.3470  0.5694  1.6766
   49CHL1  H24B 4796   4.428   4.541   3.575 -0.4018  0.2778  0.8273
   49CHL1   C25 4797   4.527   4.385   3.683 -0.1938  0.8684  0.2917
   49CHL1   H25 4798   4.571   4.287   3.654 -0.0304  1.0383 -0.0482
   49CHL1   C26 4799   4.612   4.478   3.759 -0.0834 -0.5323  0.6595
   49CHL1  H26A 4800   4.577   4.582   3.779  0.8391  0.3437 -1.8539
   49CHL1  H26B 4801   4.633   4.437   3.860  0.2430 -1.7527  0.1150
   49CHL1  H26C 4802   4.711   4.493   3.711 -0.1351  1.8371  1.1653
   49CHL1   C27 4803   4.400   4.347   3.767  0.3565 -0.2538  0.6056
   49CHL1  H27A 4804   4.361   4.437   3.818 -0.8580 -1.1153  1.2185
   49CHL1  H27B 4805   4.324   4.296   3.705  2.4235 -1.5305 -1.0378
   49CHL1  H27C 4806   4.430   4.268   3.839 -0.5326  0.1325  1.4056
   50CHL1    C3 4807   4.011   3.233   2.440 -0.5434 -0.0224 -0.5205
   50CHL1    H3 4808   3.968   3.322   2.490  0.0974  0.0977 -0.1790
   50CHL1    O3 4809   4.023   3.267   2.299 -0.5264 -0.0927 -0.0604
   50CHL1   H3' 4810   4.039   3.185   2.250 -0.5272  0.4412 -0.9846
   50CHL1    C4 4811   4.148   3.193   2.508  0.0250  0.2087 -0.2413
   50CHL1   H4A 4812   4.206   3.122   2.446 -0.1611 -1.4560  1.3697
   50CHL1   H4B 4813   4.212   3.284   2.508 -0.3347  0.4619 -0.3766
   50CHL1    C5 4814   4.133   3.145   2.656 -0.0580 -0.2302 -0.6803
   50CHL1    C6 4815   4.195   3.203   2.754 -0.2483 -0.0303 -0.1483
   50CHL1    H6 4816   4.262   3.287   2.728 -0.3163 -0.1541 -0.7352
   50CHL1    C7 4817   4.195   3.148   2.894 -0.3552  1.0216  0.1944
   50CHL1   H7A 4818   4.302   3.139   2.926  0.1817  3.6608 -0.6654
   50CHL1   H7B 4819   4.143   3.224   2.956 -2.5759 -0.1401 -0.1359
   50CHL1    C8 4820   4.116   3.024   2.927  0.2886  0.0786  0.2345
   50CHL1    H8 4821   4.171   2.932   2.897  2.2463  0.3903  2.5438
   50CHL1   C14 4822   4.078   3.018   3.067  0.4168 -0.3144  0.3678
   50CHL1   H14 4823   4.011   3.105   3.083  0.8217  0.2773 -1.0303
   50CHL1   C15 4824   4.184   3.026   3.177  0.5895  0.0107  0.5372
   50CHL1  H15A 4825   4.276   2.966   3.161  0.1644 -0.1247 -1.6671
   50CHL1  H15B 4826   4.206   3.134   3.191 -3.2984  0.8635  1.0750
   50CHL1   C16 4827   4.101   2.970   3.303 -0.9538 -0.4145  0.2825
   50CHL1  H16A 4828   4.163   2.903   3.366 -2.2342 -0.5235  1.4836
   50CHL1  H16B 4829   4.082   3.048   3.379 -1.5176 -1.2912  1.0653
   50CHL1   C17 4830   3.970   2.900   3.253 -0.0517 -0.5223  1.1463
   50CHL1   H17 4831   3.888   2.975   3.261 -0.5876 -0.7376 -1.4343
   50CHL1   C13 4832   3.994   2.889   3.097  0.4561 -0.0848 -0.5565
   50CHL1   C18 4833   4.084   2.763   3.070 -0.0756 -0.3250 -0.1722
   50CHL1  H18A 4834   4.179   2.761   3.128  0.0652  0.6925 -0.3524
   50CHL1  H18B 4835   4.030   2.668   3.093  0.1340  0.1512  2.6087
   50CHL1  H18C 4836   4.097   2.751   2.960 -1.0694 -2.2588 -0.1299
   50CHL1   C12 4837   3.865   2.885   3.019 -0.9151 -0.8651  0.1513
   50CHL1  H12A 4838   3.810   2.788   3.021 -0.2753 -1.3025 -1.7661
   50CHL1  H12B 4839   3.794   2.963   3.056 -0.4388 -0.0650 -0.5843
   50CHL1   C11 4840   3.885   2.920   2.869  0.0651 -0.0548 -0.2191
   50CHL1  H11A 4841   3.926   2.822   2.835  0.3581 -0.9860  2.5271
   50CHL1  H11B 4842   3.788   2.944   2.821  0.1224 -0.3412 -0.4834
   50CHL1    C9 4843   3.987   3.023   2.835 -0.8728 -0.7748  0.3430
   50CHL1    H9 4844   3.933   3.119   2.852 -1.3545 -0.7851 -1.0101
   50CHL1   C10 4845   4.025   3.037   2.682 -0.2609  0.1998 -0.0571
   50CHL1   C19 4846   4.079   2.903   2.636 -0.3012 -0.2037  0.3250
   50CHL1  H19A 4847   4.155   2.860   2.705 -0.0903  2.1633  1.6538
   50CHL1  H19B 4848   4.003   2.823   2.627  1.5511 -2.1357  0.8781
   50CHL1  H19C 4849   4.131   2.906   2.538 -0.8074 -2.7091 -0.0936
   50CHL1    C1 4850   3.898   3.079   2.599  0.2446 -0.5393 -0.5349
   50CHL1   H1A 4851   3.836   2.987   2.598  1.1355 -1.1486 -0.4617
   50CHL1   H1B 4852   3.846   3.158   2.658  2.8679  2.2797 -1.7302
   50CHL1    C2 4853   3.912   3.118   2.447  0.0279 -0.5790 -0.2429
   50CHL1   H2A 4854   3.817   3.159   2.406  1.0265  2.5136  0.2736
   50CHL1   H2B 4855   3.945   3.030   2.388  0.1806  0.1665 -1.2891
   50CHL1   C20 4856   3.925   2.775   3.333  0.0896 -0.3910 -0.7478
   50CHL1   H20 4857   4.001   2.696   3.314 -0.6781 -1.3934  0.2030
   50CHL1   C21 4858   3.793   2.718   3.288  0.1152  0.3578 -0.1931
   50CHL1  H21A 4859   3.731   2.793   3.233  1.5809  1.8348  0.1227
   50CHL1  H21B 4860   3.726   2.688   3.371 -1.4864  0.9803 -1.1964
   50CHL1  H21C 4861   3.811   2.627   3.227 -1.6328  1.3304 -2.3595
   50CHL1   C22 4862   3.934   2.795   3.487 -0.0693 -0.4633  0.2277
   50CHL1  H22A 4863   3.887   2.709   3.539  1.0910 -0.0892  2.0099
   50CHL1  H22B 4864   4.041   2.787   3.516  0.4931  2.5534 -0.6481
   50CHL1   C23 4865   3.863   2.913   3.557  0.0076 -0.4291  0.6646
   50CHL1  H23A 4866   3.882   3.013   3.514 -3.4987 -0.0984 -0.4550
   50CHL1  H23B 4867   3.753   2.908   3.539 -0.1501  3.0028  0.0069
   50CHL1   C24 4868   3.882   2.921   3.710 -0.5624  0.0421  0.1085
   50CHL1  H24A 4869   3.819   3.002   3.753 -0.2096 -0.5277  1.7841
   50CHL1  H24B 4870   3.838   2.825   3.746 -2.3642  1.8813  3.2353
   50CHL1   C25 4871   4.026   2.898   3.771  0.1691 -0.5713 -0.2843
   50CHL1   H25 4872   4.080   2.825   3.707  1.0652 -0.3381  0.1808
   50CHL1   C26 4873   4.100   3.034   3.776 -0.7727  0.1010  0.1463
   50CHL1  H26A 4874   4.124   3.081   3.678 -0.4780 -1.7694 -0.7138
   50CHL1  H26B 4875   4.046   3.117   3.828 -0.1879 -0.1360  1.1531
   50CHL1  H26C 4876   4.194   3.018   3.833  0.0853  2.5366 -0.4352
   50CHL1   C27 4877   4.023   2.841   3.914  0.0751  0.2937 -0.6696
   50CHL1  H27A 4878   3.993   2.916   3.990 -1.2284  0.2848 -1.1470
   50CHL1  H27B 4879   3.967   2.746   3.926  0.5654  0.2303  1.6782
   50CHL1  H27C 4880   4.126   2.824   3.952 -0.8921 -2.3325  1.0494
   51CHL1    C3 4881   4.203   4.854   2.285  0.1865 -0.1094 -0.4337
   51CHL1    H3 4882   4.099   4.871   2.323 -0.2402  0.6714 -1.8814
   51CHL1    O3 4883   4.190   4.827   2.147  0.5640 -0.7855 -0.2392
   51CHL1   H3' 4884   4.195   4.910   2.100 -0.1360 -1.3916 -1.4461
   51CHL1    C4 4885   4.288   4.981   2.300 -0.7043 -0.6807  0.1942
   51CHL1   H4A 4886   4.386   4.967   2.250 -0.2582 -0.1433  0.8868
   51CHL1   H4B 4887   4.245   5.072   2.252 -0.2921 -0.0115  1.0610
   51CHL1    C5 4888   4.309   5.007   2.451  0.3199  0.9833 -0.1513
   51CHL1    C6 4889   4.276   5.124   2.515  0.0445 -0.7812 -0.3902
   51CHL1    H6 4890   4.237   5.208   2.455 -0.1365 -0.2377  0.4807
   51CHL1    C7 4891   4.297   5.154   2.661  0.7419  0.1967 -0.2787
   51CHL1   H7A 4892   4.328   5.259   2.681  1.3569  0.0552 -0.4857
   51CHL1   H7B 4893   4.195   5.135   2.701  0.2233  1.9657 -0.6413
   51CHL1    C8 4894   4.389   5.053   2.724 -0.2410 -1.0991  0.2715
   51CHL1    H8 4895   4.493   5.074   2.690 -0.5456 -1.7723 -1.1597
   51CHL1   C14 4896   4.373   5.064   2.881  1.0708  0.5542  0.2457
   51CHL1   H14 4897   4.272   5.021   2.903  1.6620 -0.6491  0.6992
   51CHL1   C15 4898   4.397   5.199   2.942 -0.0412 -0.1186  0.3977
   51CHL1  H15A 4899   4.492   5.234   2.896 -0.6620 -0.3491 -1.1168
   51CHL1  H15B 4900   4.308   5.262   2.922 -2.3955 -2.5255  2.4988
   51CHL1   C16 4901   4.399   5.159   3.096 -0.0462  0.4832  0.7089
   51CHL1  H16A 4902   4.480   5.213   3.148  2.0173 -1.7342 -0.0453
   51CHL1  H16B 4903   4.303   5.201   3.135 -0.8865  0.1477 -0.9113
   51CHL1   C17 4904   4.412   5.008   3.101  0.0955 -0.7025  0.3476
   51CHL1   H17 4905   4.312   4.962   3.116  0.3464 -0.5215  3.1191
   51CHL1   C13 4906   4.457   4.973   2.967 -0.5921  0.0800  0.6619
   51CHL1   C18 4907   4.612   4.994   2.948  0.3576 -0.5008 -0.6934
   51CHL1  H18A 4908   4.633   5.003   2.839  1.5090  1.7744 -0.3244
   51CHL1  H18B 4909   4.640   5.091   2.993  0.1232 -0.2834 -1.0091
   51CHL1  H18C 4910   4.677   4.912   2.986  0.0867  0.7519  2.8434
   51CHL1   C12 4911   4.423   4.827   2.914  0.4363 -0.2406 -0.4787
   51CHL1  H12A 4912   4.484   4.752   2.968  1.0764  0.3983 -0.2958
   51CHL1  H12B 4913   4.318   4.804   2.942  0.5461  0.5649  0.6625
   51CHL1   C11 4914   4.439   4.814   2.764 -0.5474 -0.4143 -0.8079
   51CHL1  H11A 4915   4.547   4.834   2.747 -0.0957 -1.3189  0.8074
   51CHL1  H11B 4916   4.405   4.712   2.735  0.7110 -0.8260 -0.8926
   51CHL1    C9 4917   4.354   4.909   2.681  0.6456  0.4760 -0.4251
   51CHL1    H9 4918   4.249   4.894   2.711  1.4941 -1.1763  2.0562
   51CHL1   C10 4919   4.367   4.886   2.529 -0.3176  0.1801 -0.0777
   51CHL1   C19 4920   4.513   4.867   2.480 -0.3801  0.2735 -0.2286
   51CHL1  H19A 4921   4.565   4.965   2.486 -2.3748  1.7256 -3.4190
   51CHL1  H19B 4922   4.546   4.779   2.538 -0.5695 -0.3745 -1.0776
   51CHL1  H19C 4923   4.520   4.833   2.374 -2.3744  1.1739 -0.7045
   51CHL1    C1 4924   4.297   4.756   2.495 -0.7480 -0.7519  0.4072
   51CHL1   H1A 4925   4.358   4.670   2.527  0.6461 -0.1366 -0.4929
   51CHL1   H1B 4926   4.201   4.757   2.551 -1.8611  1.8617 -1.3409
   51CHL1    C2 4927   4.271   4.728   2.350  0.0529 -0.2858 -0.2763
   51CHL1   H2A 4928   4.200   4.643   2.345 -0.9598  0.5582 -0.8402
   51CHL1   H2B 4929   4.362   4.698   2.295 -1.1697 -4.3748 -0.3895
   51CHL1   C20 4930   4.500   4.967   3.219 -0.2120  0.1459 -0.4323
   51CHL1   H20 4931   4.587   5.036   3.230 -0.0988  0.0768 -0.8508
   51CHL1   C21 4932   4.553   4.823   3.222 -0.1188 -0.1021 -0.5485
   51CHL1  H21A 4933   4.464   4.756   3.220 -0.6933  0.6220  0.3602
   51CHL1  H21B 4934   4.595   4.808   3.324  0.4271 -0.1935 -0.7800
   51CHL1  H21C 4935   4.625   4.801   3.139  0.0257  1.0521 -0.7371
   51CHL1   C22 4936   4.422   4.979   3.353  0.0985 -0.2640 -0.0995
   51CHL1  H22A 4937   4.367   5.075   3.351 -0.1172 -0.3813 -2.5443
   51CHL1  H22B 4938   4.359   4.888   3.352  0.5208 -0.5764 -1.9589
   51CHL1   C23 4939   4.506   4.987   3.482 -0.4692 -0.0621  0.2513
   51CHL1  H23A 4940   4.610   4.947   3.477 -0.1932  0.5528  0.8579
   51CHL1  H23B 4941   4.536   5.094   3.489  2.7598 -0.8372 -0.1798
   51CHL1   C24 4942   4.446   4.935   3.606  1.0946 -0.7794 -0.4591
   51CHL1  H24A 4943   4.353   4.992   3.626  1.7567  0.2598 -0.2932
   51CHL1  H24B 4944   4.402   4.833   3.592 -2.5008  0.6962 -1.0076
   51CHL1   C25 4945   4.525   4.949   3.735  0.9802  0.1524 -0.0583
   51CHL1   H25 4946   4.471   4.896   3.817  1.0598  0.5710  0.2682
   51CHL1   C26 4947   4.664   4.882   3.732  0.1029  0.1818  0.8888
   51CHL1  H26A 4948   4.736   4.934   3.664  0.9255 -0.1741  1.4780
   51CHL1  H26B 4949   4.712   4.896   3.831 -0.4193  1.2232  1.0082
   51CHL1  H26C 4950   4.665   4.773   3.712  0.2852  0.2589  0.4611
   51CHL1   C27 4951   4.536   5.094   3.780 -0.1899 -0.3067 -0.4630
   51CHL1  H27A 4952   4.586   5.090   3.879 -0.3608  2.8888 -0.1393
   51CHL1  H27B 4953   4.604   5.155   3.717  1.2437  2.7591  3.6462
   51CHL1  H27C 4954   4.437   5.143   3.785  0.0564  0.1694 -0.2430
   52CHL1    C3 4955   4.043   5.659   2.403  0.2954 -0.2853  0.1950
   52CHL1    H3 4956   3.978   5.747   2.391  0.3764 -0.4302 -1.5750
   52CHL1    O3 4957   4.075   5.624   2.270 -0.0427  0.5027 -0.1406
   52CHL1   H3' 4958   4.137   5.551   2.271 -1.0794 -0.5039 -2.1376
   52CHL1    C4 4959   4.170   5.677   2.496 -0.4381 -0.4173  0.2017
   52CHL1   H4A 4960   4.229   5.584   2.477  2.8664  1.8568 -1.6306
   52CHL1   H4B 4961   4.220   5.765   2.450 -0.5197 -0.9728 -0.9854
   52CHL1    C5 4962   4.136   5.703   2.643 -0.2377 -0.0038  0.1958
   52CHL1    C6 4963   4.169   5.815   2.710  0.3414 -0.2936 -0.0924
   52CHL1    H6 4964   4.220   5.901   2.664 -1.3416  1.6547  1.4513
   52CHL1    C7 4965   4.137   5.831   2.857 -0.2582 -0.4496 -0.2653
   52CHL1   H7A 4966   4.228   5.878   2.901  0.0783 -0.9273 -0.4415
   52CHL1   H7B 4967   4.069   5.918   2.866  1.5197  0.8268  1.6021
   52CHL1    C8 4968   4.082   5.708   2.928 -0.6926  0.9551 -0.5034
   52CHL1    H8 4969   4.167   5.639   2.944 -2.0679 -0.6591  0.0099
   52CHL1   C14 4970   4.016   5.741   3.060  0.3883 -0.1172 -0.3578
   52CHL1   H14 4971   3.927   5.807   3.046  1.1597  0.9704 -0.2631
   52CHL1   C15 4972   4.100   5.820   3.164 -0.1601 -0.3969 -0.1513
   52CHL1  H15A 4973   4.206   5.786   3.171  0.0443  0.4535  1.2750
   52CHL1  H15B 4974   4.105   5.928   3.139 -2.4046  0.3806  2.2438
   52CHL1   C16 4975   4.025   5.795   3.300 -0.1069  0.0229  0.2539
   52CHL1  H16A 4976   4.095   5.785   3.385 -0.1162  2.6135  0.6577
   52CHL1  H16B 4977   3.963   5.882   3.332  0.6715  0.6962 -0.0416
   52CHL1   C17 4978   3.914   5.684   3.269 -0.1128 -0.0680 -0.7905
   52CHL1   H17 4979   3.819   5.738   3.249 -0.9178 -0.5692  1.3438
   52CHL1   C13 4980   3.956   5.614   3.141  0.2425 -0.5205 -0.0092
   52CHL1   C18 4981   4.056   5.506   3.162  0.1468  0.0874  0.0020
   52CHL1  H18A 4982   4.105   5.472   3.068  2.8601  1.7190  0.7003
   52CHL1  H18B 4983   4.144   5.534   3.224  0.7473 -2.1365  0.2485
   52CHL1  H18C 4984   4.007   5.422   3.216  1.7046 -1.0218 -0.2132
   52CHL1   C12 4985   3.842   5.563   3.048 -0.1723  0.2569 -0.1772
   52CHL1  H12A 4986   3.783   5.482   3.097  1.5718 -0.6154  0.5643
   52CHL1  H12B 4987   3.767   5.645   3.037 -0.5955 -0.1639 -0.4695
   52CHL1   C11 4988   3.899   5.532   2.910 -1.1311 -0.0867  0.5961
   52CHL1  H11A 4989   3.951   5.434   2.906  1.9397  1.4361 -2.0758
   52CHL1  H11B 4990   3.804   5.529   2.854 -1.3044  0.8639  0.8240
   52CHL1    C9 4991   3.985   5.642   2.836 -0.3280 -0.1837  0.8446
   52CHL1    H9 4992   3.905   5.716   2.811  0.2041 -0.1546 -0.9552
   52CHL1   C10 4993   4.046   5.595   2.698  0.5100 -0.5666 -0.1556
   52CHL1   C19 4994   4.128   5.466   2.719 -0.2637 -0.2952 -0.0139
   52CHL1  H19A 4995   4.197   5.480   2.804  1.4024 -2.9226 -0.8086
   52CHL1  H19B 4996   4.063   5.380   2.748 -0.4114  0.5552  2.4379
   52CHL1  H19C 4997   4.181   5.431   2.628  0.3738  0.7782 -0.0568
   52CHL1    C1 4998   3.923   5.564   2.607  0.9410 -0.4211  0.4097
   52CHL1   H1A 4999   3.866   5.478   2.648  1.1569  0.1619  1.9902
   52CHL1   H1B 5000   3.851   5.649   2.612  0.7777 -0.6297  1.9596
   52CHL1    C2 5001   3.958   5.542   2.455  0.5782 -0.6569 -0.8361
   52CHL1   H2A 5002   3.865   5.569   2.401  2.3125  2.1687 -2.6924
   52CHL1   H2B 5003   4.008   5.444   2.444  0.2773 -0.7628 -1.2661
   52CHL1   C20 5004   3.878   5.606   3.403  0.5928 -0.7417 -1.3580
   52CHL1   H20 5005   3.968   5.542   3.416  1.6114  0.3695 -2.6265
   52CHL1   C21 5006   3.757   5.514   3.377 -0.4097 -0.4188 -0.6712
   52CHL1  H21A 5007   3.777   5.443   3.293 -0.6007  0.1488 -1.2023
   52CHL1  H21B 5008   3.675   5.582   3.344 -0.8290  0.4985  1.9830
   52CHL1  H21C 5009   3.715   5.461   3.465  1.0094  0.6564  0.7008
   52CHL1   C22 5010   3.861   5.695   3.526 -0.0946 -0.6537  0.0430
   52CHL1  H22A 5011   3.938   5.774   3.539  1.0344 -2.0049  2.0903
   52CHL1  H22B 5012   3.761   5.743   3.523  0.3250  0.1782 -1.5472
   52CHL1   C23 5013   3.860   5.613   3.656 -0.4475  0.8081 -0.2802
   52CHL1  H23A 5014   3.782   5.534   3.657  2.8407 -2.7259  0.6197
   52CHL1  H23B 5015   3.956   5.557   3.661 -0.5667  0.7380  2.0575
   52CHL1   C24 5016   3.862   5.695   3.782 -0.8261 -0.1296  0.2645
   52CHL1  H24A 5017   3.950   5.761   3.795 -0.4638 -0.3406 -0.9761
   52CHL1  H24B 5018   3.777   5.766   3.769 -0.9297 -0.0466  1.2592
   52CHL1   C25 5019   3.844   5.616   3.913 -0.2341  1.6247  1.1614
   52CHL1   H25 5020   3.773   5.533   3.894  0.6934  1.1634 -0.4851
   52CHL1   C26 5021   3.980   5.549   3.950  0.2777  0.3219  0.4768
   52CHL1  H26A 5022   3.999   5.466   3.879 -2.4322 -0.8611  0.9923
   52CHL1  H26B 5023   4.069   5.616   3.947  1.2631 -0.9513  0.6623
   52CHL1  H26C 5024   3.976   5.499   4.049 -0.1205  2.1170  1.4262
   52CHL1   C27 5025   3.794   5.709   4.024  0.0006 -0.6005 -0.6298
   52CHL1  H27A 5026   3.781   5.661   4.123 -3.1369  2.5790  0.7361
   52CHL1  H27B 5027   3.873   5.787   4.035  0.6452 -1.4358  0.8529
   52CHL1  H27C 5028   3.698   5.762   4.006 -0.5807 -0.6890  1.8901
   53CHL1    C3 5029   3.393   5.625   2.388  0.0796 -0.0838 -0.2426
   53CHL1    H3 5030   3.320   5.699   2.425 -0.0874 -0.6370  0.5565
   53CHL1    O3 5031   3.447   5.647   2.256  0.2484  0.0222 -0.4685
   53CHL1   H3' 5032   3.539   5.620   2.260  1.0419  2.6575  0.8365
   53CHL1    C4 5033   3.516   5.647   2.481 -0.1287 -0.0669  0.9651
   53CHL1   H4A 5034   3.601   5.583   2.448 -1.2436 -0.7928 -0.6052
   53CHL1   H4B 5035   3.557   5.747   2.458  1.5438 -0.6849  1.1278
   53CHL1    C5 5036   3.489   5.618   2.623 -0.1483 -0.6160 -1.1069
   53CHL1    C6 5037   3.495   5.710   2.717 -0.7125  0.3087  0.5567
   53CHL1    H6 5038   3.533   5.811   2.697  0.2081 -0.0820  0.3099
   53CHL1    C7 5039   3.449   5.683   2.860 -0.5754 -0.5466  0.4372
   53CHL1   H7A 5040   3.506   5.748   2.930 -1.1647  0.3896  0.0708
   53CHL1   H7B 5041   3.343   5.714   2.875 -1.6413 -3.9503  0.7764
   53CHL1    C8 5042   3.448   5.539   2.899  0.0747 -0.0794 -0.4940
   53CHL1    H8 5043   3.552   5.511   2.926 -0.0342  0.0541  0.0783
   53CHL1   C14 5044   3.377   5.532   3.038 -0.7131 -0.3840  0.5563
   53CHL1   H14 5045   3.272   5.562   3.017  0.0012  2.3400  0.5588
   53CHL1   C15 5046   3.424   5.619   3.148  0.3883 -0.2059  0.0603
   53CHL1  H15A 5047   3.534   5.626   3.163  0.3412 -0.2300  0.4307
   53CHL1  H15B 5048   3.385   5.721   3.127 -0.7195 -0.4871  0.6797
   53CHL1   C16 5049   3.343   5.558   3.265  0.4123 -0.2170  0.0597
   53CHL1  H16A 5050   3.411   5.559   3.353 -1.4075 -1.9627  1.5959
   53CHL1  H16B 5051   3.256   5.617   3.300  1.7715  1.4076  0.8861
   53CHL1   C17 5052   3.287   5.416   3.226 -0.4105 -0.3101 -0.8552
   53CHL1   H17 5053   3.178   5.410   3.202 -0.6239 -0.4132  0.0934
   53CHL1   C13 5054   3.366   5.387   3.096 -0.2640  0.0201  0.2331
   53CHL1   C18 5055   3.507   5.325   3.118  0.2488 -0.6380  0.3706
   53CHL1  H18A 5056   3.496   5.235   3.182 -0.2085 -0.2200  0.8902
   53CHL1  H18B 5057   3.553   5.289   3.024 -0.5788 -0.8840  0.0547
   53CHL1  H18C 5058   3.570   5.402   3.168  0.1917 -1.1585  1.2517
   53CHL1   C12 5059   3.280   5.312   2.990  0.1020  0.6137  0.1467
   53CHL1  H12A 5060   3.265   5.207   3.026  0.1115  0.2715 -0.8108
   53CHL1  H12B 5061   3.174   5.344   2.976 -1.0583 -2.4347  0.9669
   53CHL1   C11 5062   3.345   5.311   2.844 -0.1048 -0.0512  0.4601
   53CHL1  H11A 5063   3.437   5.248   2.852 -0.5456 -0.4719  3.4399
   53CHL1  H11B 5064   3.274   5.261   2.776  0.3110  1.8417 -1.4769
   53CHL1    C9 5065   3.377   5.460   2.793 -0.2106  0.5612  0.1836
   53CHL1    H9 5066   3.282   5.518   2.784 -0.1836  0.4427 -0.9014
   53CHL1   C10 5067   3.440   5.477   2.656 -1.2873 -0.2001 -0.3357
   53CHL1   C19 5068   3.554   5.374   2.660  0.3610  0.2123 -0.1641
   53CHL1  H19A 5069   3.517   5.269   2.665  1.7369 -0.2396  1.8959
   53CHL1  H19B 5070   3.606   5.385   2.562  1.6301  0.1955  0.4954
   53CHL1  H19C 5071   3.620   5.408   2.742 -2.0549  2.8114  0.8504
   53CHL1    C1 5072   3.326   5.440   2.553 -0.4956 -0.2505 -0.0384
   53CHL1   H1A 5073   3.324   5.329   2.562  1.4951 -0.3674 -0.6855
   53CHL1   H1B 5074   3.228   5.479   2.588 -0.7762 -1.3264  0.4293
   53CHL1    C2 5075   3.347   5.480   2.406  0.5363  0.7540  0.6062
   53CHL1   H2A 5076   3.248   5.467   2.357 -0.5159 -1.8119  3.1711
   53CHL1   H2B 5077   3.416   5.415   2.348 -0.6803  0.5498 -0.6679
   53CHL1   C20 5078   3.308   5.326   3.345 -0.7123 -0.1026 -0.1715
   53CHL1   H20 5079   3.417   5.320   3.366  0.0907 -1.9407 -3.9846
   53CHL1   C21 5080   3.248   5.185   3.303  0.3531  0.5278 -0.9285
   53CHL1  H21A 5081   3.293   5.127   3.219  1.2142  1.0426 -0.8244
   53CHL1  H21B 5082   3.144   5.211   3.273  0.1874  1.8423  0.6620
   53CHL1  H21C 5083   3.241   5.105   3.380  0.0209 -0.1935 -1.6954
   53CHL1   C22 5084   3.231   5.381   3.473 -0.5616 -0.2939  0.1129
   53CHL1  H22A 5085   3.270   5.482   3.498  0.2305 -0.3563 -0.8125
   53CHL1  H22B 5086   3.120   5.382   3.466 -0.8046 -1.5210  2.6055
   53CHL1   C23 5087   3.236   5.284   3.599 -0.5787  0.8524 -0.2293
   53CHL1  H23A 5088   3.185   5.340   3.680 -2.0487 -0.3945 -0.2453
   53CHL1  H23B 5089   3.169   5.197   3.580 -0.3198  0.2040  1.6521
   53CHL1   C24 5090   3.378   5.246   3.651 -0.1632  0.4641  0.3719
   53CHL1  H24A 5091   3.371   5.198   3.751  1.0299  1.7808  1.1223
   53CHL1  H24B 5092   3.434   5.191   3.572  0.1936 -0.0919  1.0052
   53CHL1   C25 5093   3.460   5.366   3.698  1.0942  0.2154 -0.3847
   53CHL1   H25 5094   3.461   5.445   3.620 -0.3132  1.6057  0.9241
   53CHL1   C26 5095   3.398   5.431   3.821  0.1083 -0.1222 -0.1627
   53CHL1  H26A 5096   3.305   5.488   3.798 -0.4899 -0.8567  0.3351
   53CHL1  H26B 5097   3.369   5.369   3.909 -2.2311  2.1645  0.8238
   53CHL1  H26C 5098   3.461   5.515   3.855  2.4965 -2.3134  1.2119
   53CHL1   C27 5099   3.600   5.316   3.730  0.7577  0.0856  0.5623
   53CHL1  H27A 5100   3.646   5.274   3.638 -1.0691 -0.1409 -0.3010
   53CHL1  H27B 5101   3.671   5.397   3.758  1.6020  0.0801 -1.4106
   53CHL1  H27C 5102   3.593   5.234   3.805 -0.2338 -0.9534 -0.6144
   54CHL1    C3 5103   2.577   5.895   2.205 -0.8170 -0.0882  0.3193
   54CHL1    H3 5104   2.605   5.997   2.238 -1.1023 -0.5658  2.1731
   54CHL1    O3 5105   2.539   5.888   2.069  0.1824 -0.2238 -0.0079
   54CHL1   H3' 5106   2.474   5.958   2.063 -1.0780 -1.3198  0.5581
   54CHL1    C4 5107   2.701   5.818   2.227  0.0860  0.3392  0.5547
   54CHL1   H4A 5108   2.681   5.711   2.202  1.7312  0.0811  0.2493
   54CHL1   H4B 5109   2.783   5.850   2.160 -1.7382  0.3682 -1.7887
   54CHL1    C5 5110   2.736   5.818   2.378  0.5942 -0.3670  0.8749
   54CHL1    C6 5111   2.859   5.851   2.406  0.8715 -0.7929 -0.6422
   54CHL1    H6 5112   2.923   5.872   2.319 -0.2399 -1.4654 -1.6523
   54CHL1    C7 5113   2.917   5.851   2.548 -0.4208 -0.1101  0.2107
   54CHL1   H7A 5114   3.020   5.809   2.547 -0.3001  0.1463  1.1941
   54CHL1   H7B 5115   2.946   5.953   2.583  1.8960 -0.9048  0.7915
   54CHL1    C8 5116   2.834   5.790   2.657  0.5526  0.1149  0.0356
   54CHL1    H8 5117   2.851   5.681   2.643 -1.9921 -0.0541 -2.9032
   54CHL1   C14 5118   2.870   5.836   2.794 -0.0180  0.9029  0.4091
   54CHL1   H14 5119   2.858   5.947   2.796 -2.3643  0.6917  1.2251
   54CHL1   C15 5120   3.019   5.823   2.831 -0.1226 -0.0365 -0.2777
   54CHL1  H15A 5121   3.063   5.725   2.803 -0.0018  0.0202 -0.2874
   54CHL1  H15B 5122   3.093   5.897   2.794 -1.5132  1.7383  0.3232
   54CHL1   C16 5123   3.018   5.847   2.987 -0.5659  0.6776  0.0517
   54CHL1  H16A 5124   3.065   5.765   3.044  0.2754  0.9877 -0.1838
   54CHL1  H16B 5125   3.076   5.939   3.012  1.5052 -0.6658  0.3604
   54CHL1   C17 5126   2.869   5.843   3.034  0.3896  0.2368 -0.8341
   54CHL1   H17 5127   2.835   5.949   3.036  0.9696  0.4158 -0.4990
   54CHL1   C13 5128   2.785   5.788   2.910  0.6790 -0.5692 -0.2996
   54CHL1   C18 5129   2.796   5.636   2.916  0.0872 -0.1928  0.2630
   54CHL1  H18A 5130   2.900   5.601   2.934  0.3165  0.4534  0.2051
   54CHL1  H18B 5131   2.731   5.591   2.994 -1.2319  2.1893  0.6094
   54CHL1  H18C 5132   2.763   5.599   2.816 -2.1619  1.7453  0.1795
   54CHL1   C12 5133   2.646   5.827   2.882  0.1876 -0.3011  0.6344
   54CHL1  H12A 5134   2.580   5.800   2.967  1.9413  0.8608  2.4442
   54CHL1  H12B 5135   2.639   5.937   2.882 -0.5454 -0.3425  1.1446
   54CHL1   C11 5136   2.595   5.775   2.746 -0.2916  0.7961  0.2083
   54CHL1  H11A 5137   2.592   5.664   2.746 -0.2531  0.7955 -0.0615
   54CHL1  H11B 5138   2.491   5.811   2.733 -0.3757  0.6105  0.3665
   54CHL1    C9 5139   2.687   5.824   2.628  0.3564  0.0402  0.2673
   54CHL1    H9 5140   2.676   5.934   2.626  1.1964  0.1476  1.0615
   54CHL1   C10 5141   2.633   5.781   2.483  1.1261  0.1417 -1.7830
   54CHL1   C19 5142   2.610   5.626   2.471  0.0859 -0.3485 -0.7009
   54CHL1  H19A 5143   2.549   5.591   2.557  1.9206 -1.8157  0.0905
   54CHL1  H19B 5144   2.550   5.592   2.384 -0.3313 -1.1353 -0.1215
   54CHL1  H19C 5145   2.701   5.564   2.486 -0.4148 -0.8488  0.4683
   54CHL1    C1 5146   2.500   5.859   2.440 -0.4573 -0.6562 -0.0280
   54CHL1   H1A 5147   2.418   5.820   2.504 -1.4682 -0.2086 -1.0123
   54CHL1   H1B 5148   2.510   5.968   2.462 -0.6418  0.2454 -3.7131
   54CHL1    C2 5149   2.459   5.855   2.297 -0.0119 -0.7200 -0.0758
   54CHL1   H2A 5150   2.375   5.926   2.283 -0.8157 -1.4310  1.0074
   54CHL1   H2B 5151   2.432   5.756   2.257  2.1315  0.0748 -3.9856
   54CHL1   C20 5152   2.845   5.787   3.175 -0.6157 -0.1716 -0.4469
   54CHL1   H20 5153   2.860   5.678   3.162  0.9410  0.0838 -0.9290
   54CHL1   C21 5154   2.706   5.817   3.220  0.1080  0.1268 -0.2069
   54CHL1  H21A 5155   2.681   5.925   3.224 -1.4177 -0.2482  0.8301
   54CHL1  H21B 5156   2.695   5.778   3.323  1.8558  5.0078  2.1519
   54CHL1  H21C 5157   2.629   5.765   3.160  0.7428  0.9472 -1.8015
   54CHL1   C22 5158   2.939   5.852   3.282  0.0515 -0.2458 -0.1704
   54CHL1  H22A 5159   3.040   5.872   3.241 -0.2120 -0.9066 -1.1895
   54CHL1  H22B 5160   2.900   5.954   3.304 -1.7223 -0.5797 -1.5418
   54CHL1   C23 5161   2.958   5.759   3.407  0.5589  0.1275  1.1711
   54CHL1  H23A 5162   2.859   5.748   3.458 -1.5813 -0.3700 -2.6975
   54CHL1  H23B 5163   2.986   5.659   3.369 -0.3632  0.9834 -2.1243
   54CHL1   C24 5164   3.059   5.803   3.503 -0.8074  0.3476 -0.3960
   54CHL1  H24A 5165   3.150   5.827   3.444 -0.8299  1.6971  0.0704
   54CHL1  H24B 5166   3.029   5.903   3.543 -1.6543  1.1249 -2.7778
   54CHL1   C25 5167   3.104   5.713   3.624  0.3071  0.4740  0.9540
   54CHL1   H25 5168   3.157   5.626   3.578 -0.2927 -0.6778  2.3455
   54CHL1   C26 5169   3.210   5.791   3.708  0.3601 -0.1839 -0.4749
   54CHL1  H26A 5170   3.149   5.850   3.779  0.8729  2.2362 -1.9493
   54CHL1  H26B 5171   3.274   5.716   3.760  1.5236 -0.4918 -2.2544
   54CHL1  H26C 5172   3.278   5.859   3.653  0.5242 -1.4345 -1.8760
   54CHL1   C27 5173   2.986   5.665   3.699  0.4629 -0.3811 -0.3199
   54CHL1  H27A 5174   3.034   5.619   3.788 -0.4636 -2.0028 -0.6101
   54CHL1  H27B 5175   2.926   5.748   3.742  0.9021 -0.1365 -0.1684
   54CHL1  H27C 5176   2.915   5.586   3.666  0.0623 -1.3785  2.6155
   55CHL1    C3 5177   4.952   2.223   2.290  0.7500  0.4350 -0.2207
   55CHL1    H3 5178   4.965   2.328   2.324  2.1687  0.5667 -1.0869
   55CHL1    O3 5179   4.959   2.221   2.147  0.1965 -0.1674  0.2079
   55CHL1   H3' 5180   4.887   2.274   2.113 -0.6004 -1.7674 -0.6904
   55CHL1    C4 5181   5.062   2.136   2.359 -0.1528  0.1319  0.1511
   55CHL1   H4A 5182   5.062   2.031   2.324 -0.3765 -0.7051  2.4608
   55CHL1   H4B 5183   5.160   2.180   2.332 -0.2097  0.7100  0.8395
   55CHL1    C5 5184   5.042   2.133   2.510  0.3301  0.0877 -0.9041
   55CHL1    C6 5185   5.141   2.165   2.595  0.1261 -0.3729 -0.2191
   55CHL1    H6 5186   5.237   2.189   2.547  0.1276 -0.3923 -0.2264
   55CHL1    C7 5187   5.133   2.157   2.747  1.4231  0.3357 -0.0967
   55CHL1   H7A 5188   5.210   2.087   2.786 -0.2094 -0.8811  1.1007
   55CHL1   H7B 5189   5.136   2.257   2.795 -0.7527  0.0865  0.6700
   55CHL1    C8 5190   4.993   2.095   2.803  0.3541  0.0676  0.2584
   55CHL1    H8 5191   4.998   1.985   2.794 -1.7710 -0.3213  2.8209
   55CHL1   C14 5192   4.962   2.142   2.946  0.0156  0.0284  0.5161
   55CHL1   H14 5193   4.957   2.253   2.934 -0.8763  0.1515  1.7832
   55CHL1   C15 5194   5.063   2.111   3.054 -0.0015  0.5034  0.5176
   55CHL1  H15A 5195   5.104   2.010   3.034 -1.1061  0.4296 -1.6063
   55CHL1  H15B 5196   5.144   2.187   3.065  2.8344 -2.3451  0.6985
   55CHL1   C16 5197   4.981   2.126   3.187  0.1036 -0.4622 -0.5381
   55CHL1  H16A 5198   5.005   2.034   3.243  0.6497 -0.4288 -0.7106
   55CHL1  H16B 5199   5.024   2.213   3.241  0.3677 -1.1919  0.4540
   55CHL1   C17 5200   4.833   2.143   3.151  0.6054 -0.5491  0.0152
   55CHL1   H17 5201   4.812   2.252   3.147  2.5787 -0.1833 -1.2383
   55CHL1   C13 5202   4.832   2.096   3.000  1.0888  0.0932 -0.0961
   55CHL1   C18 5203   4.820   1.938   3.005 -0.2667 -0.7429  0.4690
   55CHL1  H18A 5204   4.816   1.899   2.901 -2.0823  0.7856 -0.0897
   55CHL1  H18B 5205   4.908   1.897   3.057  0.3683 -0.0258 -0.0177
   55CHL1  H18C 5206   4.718   1.912   3.041 -2.3105  1.5730 -2.9503
   55CHL1   C12 5207   4.721   2.167   2.914  0.5284  0.6216 -0.2894
   55CHL1  H12A 5208   4.620   2.138   2.951 -0.4206  1.2718 -2.1928
   55CHL1  H12B 5209   4.747   2.274   2.931  0.5979  0.9815 -2.3890
   55CHL1   C11 5210   4.733   2.125   2.772 -0.7687  1.0520  0.2902
   55CHL1  H11A 5211   4.711   2.017   2.760 -0.2010  0.8644  0.8615
   55CHL1  H11B 5212   4.650   2.184   2.727 -0.0386  3.3990  1.7976
   55CHL1    C9 5213   4.882   2.139   2.713  0.6615 -0.9305 -0.1210
   55CHL1    H9 5214   4.886   2.250   2.722  1.1739 -1.0683  1.8261
   55CHL1   C10 5215   4.898   2.100   2.559  0.0541 -0.1720 -0.4431
   55CHL1   C19 5216   4.867   1.946   2.541 -0.2795 -0.2004 -0.2108
   55CHL1  H19A 5217   4.886   1.924   2.433 -0.9426  0.6501 -0.5121
   55CHL1  H19B 5218   4.942   1.895   2.605  1.3387  3.1202  0.7587
   55CHL1  H19C 5219   4.759   1.925   2.557 -0.3771  0.7423  0.3936
   55CHL1    C1 5220   4.796   2.178   2.481 -0.4302 -0.6449  0.6060
   55CHL1   H1A 5221   4.692   2.149   2.504 -0.7964  1.0211  1.1893
   55CHL1   H1B 5222   4.807   2.287   2.502  1.9991 -1.0741  1.9672
   55CHL1    C2 5223   4.815   2.179   2.330 -0.0798 -0.3006 -0.6579
   55CHL1   H2A 5224   4.732   2.244   2.293  2.6705  1.9937 -3.3139
   55CHL1   H2B 5225   4.792   2.078   2.289 -2.1059  0.7633 -2.3627
   55CHL1   C20 5226   4.740   2.071   3.254  0.0947  0.2227 -0.6850
   55CHL1   H20 5227   4.770   1.964   3.255  0.8051  0.4015 -1.4914
   55CHL1   C21 5228   4.595   2.093   3.229 -0.5225 -0.1493 -0.5167
   55CHL1  H21A 5229   4.573   2.202   3.219  1.2719  0.5342  1.8746
   55CHL1  H21B 5230   4.539   2.048   3.314  1.3132 -0.9826  0.2967
   55CHL1  H21C 5231   4.554   2.040   3.141 -3.2936 -1.0629  1.1953
   55CHL1   C22 5232   4.769   2.113   3.403 -0.5392  0.2473 -0.2496
   55CHL1  H22A 5233   4.859   2.177   3.416  0.5485 -1.2162 -0.3281
   55CHL1  H22B 5234   4.683   2.170   3.443 -0.2386  0.6033 -0.1030
   55CHL1   C23 5235   4.779   1.991   3.491 -0.1275 -0.1424  0.1098
   55CHL1  H23A 5236   4.685   1.937   3.467 -0.3872  1.0976 -1.9079
   55CHL1  H23B 5237   4.872   1.938   3.463 -0.2095  0.0486 -0.5417
   55CHL1   C24 5238   4.794   2.036   3.634 -0.1358 -0.0333 -0.6466
   55CHL1  H24A 5239   4.901   2.063   3.646 -0.0454 -0.1238 -1.2005
   55CHL1  H24B 5240   4.738   2.130   3.655  1.2899  0.4610  1.2301
   55CHL1   C25 5241   4.742   1.927   3.743 -0.7583 -0.3406  0.3694
   55CHL1   H25 5242   4.762   1.978   3.840  0.6488  0.4796 -0.3130
   55CHL1   C26 5243   4.590   1.907   3.722  0.1261 -0.2125 -0.0227
   55CHL1  H26A 5244   4.552   2.007   3.690  2.5769  0.8037  0.0667
   55CHL1  H26B 5245   4.563   1.835   3.643  0.1809 -0.4257  0.1534
   55CHL1  H26C 5246   4.536   1.872   3.813 -0.7913  1.7557  0.2476
   55CHL1   C27 5247   4.825   1.797   3.750 -0.0120  0.6871 -0.1202
   55CHL1  H27A 5248   4.933   1.825   3.755  0.4592 -0.8052  5.6787
   55CHL1  H27B 5249   4.807   1.732   3.838  2.4228 -1.9562 -1.4176
   55CHL1  H27C 5250   4.813   1.740   3.656 -1.0008  2.0048 -0.8253
   56CHL1    C3 5251   6.096   3.639   2.305  0.3006 -0.1573  0.3378
   56CHL1    H3 5252   5.989   3.662   2.288  0.5953  0.6864 -0.4283
   56CHL1    O3 5253   6.140   3.615   2.175 -0.0023  0.4391  0.1116
   56CHL1   H3' 5254   6.085   3.672   2.120 -1.8550 -1.3701 -0.0060
   56CHL1    C4 5255   6.154   3.778   2.354 -0.2608  0.4315  0.0877
   56CHL1   H4A 5256   6.265   3.769   2.362 -0.1465 -0.6559 -2.0157
   56CHL1   H4B 5257   6.140   3.861   2.282  0.1519 -0.2296 -0.7690
   56CHL1    C5 5258   6.094   3.809   2.488 -0.5709  0.4606 -0.3288
   56CHL1    C6 5259   6.030   3.928   2.492  0.3895  0.2225 -0.1988
   56CHL1    H6 5260   6.033   3.999   2.409 -1.1154 -0.5931 -0.9854
   56CHL1    C7 5261   5.966   3.972   2.623 -0.5272  0.1764  1.0817
   56CHL1   H7A 5262   6.002   4.076   2.635  0.3835 -0.1837  1.5554
   56CHL1   H7B 5263   5.856   3.982   2.609 -0.4438 -0.7410 -0.4723
   56CHL1    C8 5264   6.015   3.893   2.743 -0.1749  0.2224 -1.1870
   56CHL1    H8 5265   6.123   3.900   2.767 -0.0012 -1.6475 -1.3053
   56CHL1   C14 5266   5.929   3.931   2.869 -0.5138  0.6092 -0.0682
   56CHL1   H14 5267   5.824   3.903   2.844 -0.4221  0.0915  0.1113
   56CHL1   C15 5268   5.917   4.079   2.897 -0.7008 -0.7748 -0.1266
   56CHL1  H15A 5269   6.018   4.124   2.896  1.0605 -4.3499 -2.0765
   56CHL1  H15B 5270   5.846   4.120   2.823 -1.7818  1.2814  1.9075
   56CHL1   C16 5271   5.867   4.084   3.042  0.3869  0.4279  0.0166
   56CHL1  H16A 5272   5.938   4.142   3.104  1.4853  0.2845 -1.0631
   56CHL1  H16B 5273   5.764   4.125   3.052  0.9616  1.4397  2.4773
   56CHL1   C17 5274   5.862   3.932   3.096  0.2641  0.0542  0.1489
   56CHL1   H17 5275   5.764   3.888   3.067  1.0093  0.0592 -2.6491
   56CHL1   C13 5276   5.959   3.853   2.996  0.8785 -1.1359  0.7257
   56CHL1   C18 5277   6.107   3.883   3.044  0.0917 -0.6375  0.5664
   56CHL1  H18A 5278   6.124   3.986   3.082 -0.0115 -0.3236 -0.2194
   56CHL1  H18B 5279   6.120   3.819   3.133 -3.1188 -1.1759  0.7758
   56CHL1  H18C 5280   6.188   3.859   2.971  1.0984  1.8385  0.7761
   56CHL1   C12 5281   5.930   3.706   2.961 -0.2448  0.0556 -1.4026
   56CHL1  H12A 5282   5.973   3.646   3.043 -0.3808  1.6020 -0.1349
   56CHL1  H12B 5283   5.826   3.668   2.966 -0.5748  1.0945  0.3494
   56CHL1   C11 5284   6.015   3.654   2.840 -0.2357 -0.4170  0.1085
   56CHL1  H11A 5285   6.122   3.653   2.870  0.2711  1.0841 -1.5064
   56CHL1  H11B 5286   5.993   3.547   2.819 -1.3228 -0.2462  0.3134
   56CHL1    C9 5287   6.005   3.743   2.708  0.0010 -0.1557  0.0069
   56CHL1    H9 5288   5.902   3.732   2.669 -0.5188 -0.1279  1.3024
   56CHL1   C10 5289   6.104   3.698   2.594 -0.2506  0.0911  0.7691
   56CHL1   C19 5290   6.254   3.679   2.636 -0.3861  0.0303 -0.0177
   56CHL1  H19A 5291   6.319   3.616   2.571  2.1994 -1.6986  3.8395
   56CHL1  H19B 5292   6.291   3.784   2.637  0.6593 -0.2298 -2.7458
   56CHL1  H19C 5293   6.261   3.637   2.739 -0.4611  0.8174  0.3155
   56CHL1    C1 5294   6.049   3.572   2.536 -0.0622  0.2941 -0.4640
   56CHL1   H1A 5295   6.050   3.483   2.603 -0.0867  0.3558 -0.3808
   56CHL1   H1B 5296   5.940   3.587   2.522  0.0975  2.1767  0.0262
   56CHL1    C2 5297   6.104   3.520   2.400  0.4005 -0.3271 -0.5427
   56CHL1   H2A 5298   6.036   3.440   2.363 -0.5412  0.5088 -0.6665
   56CHL1   H2B 5299   6.206   3.477   2.401  0.3734 -0.4227 -1.2666
   56CHL1   C20 5300   5.878   3.910   3.245  0.3259 -0.9066 -0.1068
   56CHL1   H20 5301   5.982   3.940   3.268  0.1295  0.1767 -0.5699
   56CHL1   C21 5302   5.858   3.767   3.288 -0.1081  0.3793  0.4334
   56CHL1  H21A 5303   5.880   3.757   3.396  0.6338  1.8043  0.4357
   56CHL1  H21B 5304   5.934   3.703   3.237 -0.2783  0.7786 -0.3458
   56CHL1  H21C 5305   5.763   3.725   3.250  1.2988 -1.4799 -1.2692
   56CHL1   C22 5306   5.791   4.007   3.334 -0.6335 -0.2820 -0.5402
   56CHL1  H22A 5307   5.811   4.109   3.294 -0.0069  0.0930  0.6794
   56CHL1  H22B 5308   5.688   3.980   3.302  0.0179 -2.9445 -0.5493
   56CHL1   C23 5309   5.804   3.988   3.487  0.4701 -0.7024 -0.7092
   56CHL1  H23A 5310   5.735   3.908   3.521 -0.1847 -0.2739 -1.0108
   56CHL1  H23B 5311   5.911   3.963   3.503  0.8677  1.0120 -0.5256
   56CHL1   C24 5312   5.765   4.118   3.569  0.5198  0.4621  0.4875
   56CHL1  H24A 5313   5.689   4.160   3.500  1.6569  1.4690 -0.1924
   56CHL1  H24B 5314   5.720   4.079   3.663  0.7404 -1.3158 -0.0970
   56CHL1   C25 5315   5.870   4.218   3.591 -0.4817 -0.1374  0.1203
   56CHL1   H25 5316   5.927   4.246   3.500 -1.1160 -0.6987 -0.4606
   56CHL1   C26 5317   5.816   4.356   3.630 -0.6453  0.0521  0.2732
   56CHL1  H26A 5318   5.899   4.425   3.602  0.2775 -0.5683  1.3387
   56CHL1  H26B 5319   5.720   4.384   3.583 -0.7949  0.0909  0.5970
   56CHL1  H26C 5320   5.802   4.371   3.739  0.5797 -0.3368  0.5088
   56CHL1   C27 5321   5.962   4.170   3.701 -0.0637 -0.1621  0.1309
   56CHL1  H27A 5322   5.985   4.063   3.679  1.5200  0.7343 -3.2885
   56CHL1  H27B 5323   6.052   4.233   3.715 -0.5184  0.3169  0.9786
   56CHL1  H27C 5324   5.905   4.163   3.796 -0.5741  2.0779  0.0311
   57CHL1    C3 5325   4.550   1.464   2.533  0.9199  0.0509  0.8592
   57CHL1    H3 5326   4.523   1.356   2.532 -0.0795  0.2156 -2.5761
   57CHL1    O3 5327   4.550   1.523   2.397 -0.4849 -0.4605 -0.0351
   57CHL1   H3' 5328   4.457   1.516   2.375 -0.6993 -1.3803  1.0409
   57CHL1    C4 5329   4.442   1.540   2.617  0.1841  0.5932 -0.1340
   57CHL1   H4A 5330   4.445   1.646   2.585  3.0282  0.6958  0.1721
   57CHL1   H4B 5331   4.347   1.500   2.576  0.8939 -0.2894 -0.9541
   57CHL1    C5 5332   4.450   1.522   2.768 -0.2552  0.4561  0.3440
   57CHL1    C6 5333   4.341   1.481   2.836  0.4184  0.5413 -0.0453
   57CHL1    H6 5334   4.248   1.473   2.778 -0.1149  3.6610  0.2081
   57CHL1    C7 5335   4.337   1.466   2.987 -0.2016  0.0518 -0.4443
   57CHL1   H7A 5336   4.260   1.519   3.047  3.2000  1.8611  2.7547
   57CHL1   H7B 5337   4.329   1.358   3.014 -0.0177  0.0305 -0.4763
   57CHL1    C8 5338   4.464   1.515   3.064  1.4947  0.4397 -0.6806
   57CHL1    H8 5339   4.462   1.625   3.074  1.9073  0.2912  1.3866
   57CHL1   C14 5340   4.471   1.448   3.203 -0.3062  0.1937 -0.6782
   57CHL1   H14 5341   4.478   1.337   3.194  3.1900  0.1278  1.0082
   57CHL1   C15 5342   4.347   1.458   3.290  0.3450  0.6550 -0.0609
   57CHL1  H15A 5343   4.300   1.559   3.283  4.5117  2.8016 -0.3119
   57CHL1  H15B 5344   4.270   1.389   3.251  0.0174  0.9789  0.0082
   57CHL1   C16 5345   4.406   1.450   3.442 -0.3763 -0.3714  0.5602
   57CHL1  H16A 5346   4.394   1.550   3.490 -0.8136  0.9060 -2.0474
   57CHL1  H16B 5347   4.352   1.370   3.497 -1.9094 -0.7173 -1.3260
   57CHL1   C17 5348   4.554   1.420   3.422 -0.3730  0.1714 -0.3673
   57CHL1   H17 5349   4.564   1.310   3.407  0.4508  0.3861 -1.5129
   57CHL1   C13 5350   4.590   1.487   3.290 -0.2154 -0.3219  0.3299
   57CHL1   C18 5351   4.595   1.643   3.318  0.4334  0.1543  0.5318
   57CHL1  H18A 5352   4.690   1.658   3.374 -0.5226  0.2316  2.1962
   57CHL1  H18B 5353   4.603   1.700   3.223 -2.6708 -0.8709 -0.4846
   57CHL1  H18C 5354   4.516   1.691   3.381 -0.5421 -1.3452  0.4998
   57CHL1   C12 5355   4.709   1.438   3.210  0.5765  0.1781 -0.9886
   57CHL1  H12A 5356   4.801   1.451   3.271  0.4052 -1.7952 -0.2234
   57CHL1  H12B 5357   4.698   1.327   3.203  0.6108  0.2482 -2.5970
   57CHL1   C11 5358   4.714   1.496   3.065  0.1975 -0.2278  0.1405
   57CHL1  H11A 5359   4.750   1.601   3.073  0.5418 -0.2761 -0.6645
   57CHL1  H11B 5360   4.797   1.440   3.017 -1.2787 -1.3915 -1.1379
   57CHL1    C9 5361   4.585   1.481   2.978 -0.2548 -0.3266  0.2044
   57CHL1    H9 5362   4.573   1.373   2.957  1.1178 -0.6247  0.8129
   57CHL1   C10 5363   4.589   1.537   2.835 -0.5680 -0.1665  0.6901
   57CHL1   C19 5364   4.645   1.680   2.844  0.0324 -0.7521  0.0728
   57CHL1  H19A 5365   4.753   1.673   2.870  0.1001  1.4033  0.6153
   57CHL1  H19B 5366   4.628   1.734   2.749 -2.4946  0.3870  1.0917
   57CHL1  H19C 5367   4.589   1.731   2.925  1.8235 -1.4646  1.8645
   57CHL1    C1 5368   4.686   1.457   2.742  0.2668  0.5047 -0.1352
   57CHL1   H1A 5369   4.783   1.480   2.792 -0.6121  0.2613  1.7954
   57CHL1   H1B 5370   4.660   1.351   2.762  0.1760  1.0188  3.0022
   57CHL1    C2 5371   4.682   1.494   2.596  0.4152 -0.0149  0.0113
   57CHL1   H2A 5372   4.755   1.431   2.541 -2.1092 -1.6759 -1.6376
   57CHL1   H2B 5373   4.707   1.601   2.584 -1.6511  0.5026 -0.0059
   57CHL1   C20 5374   4.635   1.451   3.553  0.0687  0.2050 -0.7536
   57CHL1   H20 5375   4.604   1.552   3.589  0.6732  0.2865 -0.4505
   57CHL1   C21 5376   4.790   1.458   3.528  0.3534  0.5969  0.6135
   57CHL1  H21A 5377   4.829   1.365   3.480 -1.2119 -0.8633  2.0066
   57CHL1  H21B 5378   4.843   1.458   3.625 -0.8194  0.3892  1.2699
   57CHL1  H21C 5379   4.821   1.539   3.460  0.9033 -2.1985 -2.7700
   57CHL1   C22 5380   4.615   1.353   3.667  0.3467  0.7622  0.2198
   57CHL1  H22A 5381   4.650   1.408   3.758 -1.0840  0.2038  1.1341
   57CHL1  H22B 5382   4.506   1.348   3.688  0.0601  1.0104 -1.1412
   57CHL1   C23 5383   4.678   1.213   3.640 -0.9456  0.5799  0.0623
   57CHL1  H23A 5384   4.655   1.175   3.538  2.0949  2.6074 -1.5225
   57CHL1  H23B 5385   4.788   1.222   3.649 -0.4268 -2.2272 -2.1097
   57CHL1   C24 5386   4.625   1.109   3.746 -0.0563 -0.9092 -0.0492
   57CHL1  H24A 5387   4.633   1.146   3.850  2.5650  1.0784 -0.8365
   57CHL1  H24B 5388   4.522   1.085   3.714  0.6943 -1.8519 -1.9293
   57CHL1   C25 5389   4.696   0.978   3.740 -0.1757  0.0574 -0.2477
   57CHL1   H25 5390   4.689   0.928   3.641  2.9994 -0.8467 -0.1257
   57CHL1   C26 5391   4.846   1.006   3.765  0.1362  0.4031  0.6564
   57CHL1  H26A 5392   4.883   1.044   3.667  1.8289 -0.2272  1.0295
   57CHL1  H26B 5393   4.850   1.078   3.849  1.0113 -0.2036  1.1435
   57CHL1  H26C 5394   4.899   0.910   3.784 -0.5408 -1.1810 -3.9954
   57CHL1   C27 5395   4.660   0.879   3.851 -0.1005 -0.5680 -0.0634
   57CHL1  H27A 5396   4.740   0.804   3.869  2.1811  1.4695 -1.1562
   57CHL1  H27B 5397   4.658   0.933   3.948  0.5625  2.2152 -1.4830
   57CHL1  H27C 5398   4.563   0.828   3.834 -0.6758  1.1261 -2.4348
   58CHL1    C3 5399   5.563   1.948   2.276 -0.6998 -0.7156  0.4800
   58CHL1    H3 5400   5.600   1.844   2.288 -1.5917 -1.1030 -0.0312
   58CHL1    O3 5401   5.552   1.977   2.138 -0.3036 -0.0334  0.5315
   58CHL1   H3' 5402   5.545   2.073   2.137  3.2170  0.3649 -0.9554
   58CHL1    C4 5403   5.432   1.971   2.347 -0.1681  0.0810 -0.6857
   58CHL1   H4A 5404   5.390   2.071   2.324  2.1934  0.7236 -2.6087
   58CHL1   H4B 5405   5.363   1.892   2.309  0.7358 -0.3943 -1.3953
   58CHL1    C5 5406   5.462   1.952   2.499 -0.5037  0.0193  0.6460
   58CHL1    C6 5407   5.398   1.855   2.565  0.3903  0.2056 -0.0439
   58CHL1    H6 5408   5.339   1.783   2.505 -0.9709  1.1045  0.1899
   58CHL1    C7 5409   5.410   1.819   2.711 -0.1053 -0.1295 -0.2006
   58CHL1   H7A 5410   5.311   1.806   2.760  0.3867 -2.5099  0.2908
   58CHL1   H7B 5411   5.468   1.725   2.724  0.5102  0.1281 -1.0234
   58CHL1    C8 5412   5.481   1.939   2.785 -0.8618 -0.4733  0.1319
   58CHL1    H8 5413   5.420   2.031   2.798  0.6470  0.8818 -1.7844
   58CHL1   C14 5414   5.521   1.893   2.923  0.2417  0.2609 -0.3946
   58CHL1   H14 5415   5.586   1.805   2.906 -0.6595 -0.4541 -0.2188
   58CHL1   C15 5416   5.404   1.843   3.014  0.1085 -0.6219  0.0293
   58CHL1  H15A 5417   5.326   1.922   3.015  1.9339  1.2688  0.8583
   58CHL1  H15B 5418   5.356   1.749   2.979 -0.8383 -1.0543  2.3243
   58CHL1   C16 5419   5.474   1.825   3.143  0.3203 -0.0334  0.2009
   58CHL1  H16A 5420   5.422   1.880   3.224  1.6004 -0.2347  1.1901
   58CHL1  H16B 5421   5.483   1.721   3.180  1.1010 -0.4247 -1.0089
   58CHL1   C17 5422   5.616   1.889   3.127  0.3433  0.2114  0.1354
   58CHL1   H17 5423   5.690   1.814   3.092 -0.7274 -0.9634  0.3696
   58CHL1   C13 5424   5.603   1.988   3.006 -1.1392  0.2256 -0.0740
   58CHL1   C18 5425   5.525   2.110   3.050 -0.1018  0.6014 -0.4572
   58CHL1  H18A 5426   5.451   2.085   3.129 -1.9817  1.9603 -1.7242
   58CHL1  H18B 5427   5.601   2.182   3.087 -2.2029  2.7399 -0.0589
   58CHL1  H18C 5428   5.473   2.155   2.963  0.9723 -1.0143 -2.0187
   58CHL1   C12 5429   5.725   2.022   2.928  0.0294  0.1398  1.2507
   58CHL1  H12A 5430   5.790   2.098   2.978  0.3518  1.5553 -1.1303
   58CHL1  H12B 5431   5.800   1.944   2.904 -0.7851 -0.1747 -0.4352
   58CHL1   C11 5432   5.681   2.084   2.790 -0.0989 -0.2159 -0.3172
   58CHL1  H11A 5433   5.615   2.170   2.813 -1.6136 -1.2459 -0.6849
   58CHL1  H11B 5434   5.770   2.123   2.737  0.9861  0.1097  1.6392
   58CHL1    C9 5435   5.598   1.989   2.704  0.0635  0.3822  0.8429
   58CHL1    H9 5436   5.663   1.901   2.688 -0.0741  0.5335 -0.6971
   58CHL1   C10 5437   5.567   2.042   2.559  0.0420 -0.3008 -0.4566
   58CHL1   C19 5438   5.507   2.182   2.567  0.0353  0.3715  0.3481
   58CHL1  H19A 5439   5.421   2.186   2.638 -0.1331 -0.5610  0.2030
   58CHL1  H19B 5440   5.576   2.260   2.606  0.9303  1.2769 -2.7429
   58CHL1  H19C 5441   5.469   2.211   2.467 -2.1286 -1.0142  0.7001
   58CHL1    C1 5442   5.703   2.036   2.478 -0.0035 -0.7421 -0.8528
   58CHL1   H1A 5443   5.767   2.120   2.514 -1.4022  0.0743 -0.1999
   58CHL1   H1B 5444   5.750   1.939   2.505 -1.0006 -1.1382 -0.5256
   58CHL1    C2 5445   5.673   2.045   2.328  0.5065 -0.1762  0.5904
   58CHL1   H2A 5446   5.767   2.019   2.275  0.4624 -0.4653  0.6508
   58CHL1   H2B 5447   5.641   2.147   2.301  1.0622 -0.3511 -0.7917
   58CHL1   C20 5448   5.673   1.955   3.265  1.0057  0.0913  0.7471
   58CHL1   H20 5449   5.639   2.060   3.277 -1.4255 -0.2380 -2.0866
   58CHL1   C21 5450   5.824   1.945   3.259 -0.5381  0.3316 -0.0077
   58CHL1  H21A 5451   5.855   1.841   3.232 -0.5906  0.3804 -0.2592
   58CHL1  H21B 5452   5.872   1.960   3.358 -2.0598 -1.3616  1.0347
   58CHL1  H21C 5453   5.865   2.010   3.178 -3.0796 -0.1449 -1.7877
   58CHL1   C22 5454   5.626   1.885   3.396 -0.1784  0.8913 -0.3867
   58CHL1  H22A 5455   5.681   1.939   3.475  0.6752 -0.5080 -0.0031
   58CHL1  H22B 5456   5.516   1.896   3.411 -0.7383 -1.3705 -2.1645
   58CHL1   C23 5457   5.658   1.730   3.389 -0.2494  0.3310 -0.5166
   58CHL1  H23A 5458   5.568   1.669   3.414  0.3596 -1.8857 -3.1348
   58CHL1  H23B 5459   5.674   1.708   3.281 -0.0810  1.6247 -0.7692
   58CHL1   C24 5460   5.792   1.697   3.468  0.6795  0.6101  0.2212
   58CHL1  H24A 5461   5.872   1.771   3.447 -0.0613  1.6878  1.0513
   58CHL1  H24B 5462   5.764   1.694   3.576 -3.8172 -4.0128 -0.6764
   58CHL1   C25 5463   5.847   1.555   3.432  0.6433  0.9360  0.0437
   58CHL1   H25 5464   5.773   1.485   3.476 -1.4450  3.1190  0.1628
   58CHL1   C26 5465   5.874   1.521   3.285  0.4442 -0.4330 -0.0073
   58CHL1  H26A 5466   5.789   1.537   3.215  0.0772 -1.9152  0.0677
   58CHL1  H26B 5467   5.967   1.574   3.255  0.9243 -0.6002  1.1395
   58CHL1  H26C 5468   5.907   1.415   3.285  0.1508 -0.5272 -0.3707
   58CHL1   C27 5469   5.975   1.527   3.518  0.0359  0.8297  0.5629
   58CHL1  H27A 5470   5.933   1.514   3.620 -2.4111  1.3835 -0.3142
   58CHL1  H27B 5471   6.030   1.433   3.497 -0.5639 -0.7558  4.9014
   58CHL1  H27C 5472   6.052   1.607   3.521  1.3677 -0.2608 -1.9357
   59CHL1    C3 5473   4.670   1.009   2.188 -0.4507  0.3257  0.7233
   59CHL1    H3 5474   4.597   0.938   2.144 -0.8357  1.2854 -0.2425
   59CHL1    O3 5475   4.739   1.061   2.075  0.5290  0.1219 -0.0477
   59CHL1   H3' 5476   4.728   1.156   2.083 -0.5668  0.1356 -1.3840
   59CHL1    C4 5477   4.592   1.124   2.251  0.1842  0.2745 -0.1357
   59CHL1   H4A 5478   4.663   1.205   2.278 -0.4064  0.4482  0.9432
   59CHL1   H4B 5479   4.517   1.165   2.179  2.2157 -0.1054 -2.6389
   59CHL1    C5 5480   4.534   1.089   2.384  0.1440 -0.1146  0.4320
   59CHL1    C6 5481   4.411   1.119   2.421 -0.4215 -0.2447 -0.1375
   59CHL1    H6 5482   4.345   1.153   2.340  0.3507 -2.4715 -1.8147
   59CHL1    C7 5483   4.353   1.095   2.556  0.3761 -0.5099  0.7997
   59CHL1   H7A 5484   4.293   1.188   2.571  0.3329  0.0191 -2.1901
   59CHL1   H7B 5485   4.282   1.010   2.546 -1.5987  1.0467  0.7692
   59CHL1    C8 5486   4.461   1.076   2.668  1.2459  1.0381 -0.4670
   59CHL1    H8 5487   4.495   1.179   2.691 -1.9381  1.8381  1.2454
   59CHL1   C14 5488   4.391   1.010   2.793 -0.1570  0.1886 -0.4227
   59CHL1   H14 5489   4.352   0.908   2.773 -3.0726  0.4602  2.8722
   59CHL1   C15 5490   4.271   1.076   2.862  0.1958 -0.3172  0.0725
   59CHL1  H15A 5491   4.297   1.184   2.865  3.2820 -0.8898 -1.4154
   59CHL1  H15B 5492   4.182   1.070   2.796  0.6731  2.0610 -0.8772
   59CHL1   C16 5493   4.263   1.016   3.000 -0.2145 -0.5247  0.3643
   59CHL1  H16A 5494   4.259   1.093   3.080  1.7692  0.3846 -0.3300
   59CHL1  H16B 5495   4.175   0.948   3.000 -0.2936 -0.5667 -2.5770
   59CHL1   C17 5496   4.395   0.928   3.014 -0.7147  0.1279 -0.5597
   59CHL1   H17 5497   4.377   0.821   2.991  1.9295 -0.2280 -1.2714
   59CHL1   C13 5498   4.488   0.981   2.900 -0.2055 -0.6273 -0.6453
   59CHL1   C18 5499   4.548   1.113   2.949  0.1906 -0.2712 -0.7319
   59CHL1  H18A 5500   4.578   1.183   2.868 -1.8854  0.6029 -0.8176
   59CHL1  H18B 5501   4.471   1.164   3.011  0.7910 -0.4430  0.1761
   59CHL1  H18C 5502   4.634   1.091   3.016 -0.0102 -0.8165 -0.6467
   59CHL1   C12 5503   4.592   0.882   2.851 -0.5375  0.5939  0.5045
   59CHL1  H12A 5504   4.665   0.855   2.930 -0.7428  0.1838  0.5537
   59CHL1  H12B 5505   4.541   0.786   2.832 -0.7106  0.8428 -0.3203
   59CHL1   C11 5506   4.672   0.938   2.732  0.1529 -0.1749  0.0497
   59CHL1  H11A 5507   4.711   1.033   2.775 -1.4565  1.8825 -2.6690
   59CHL1  H11B 5508   4.751   0.869   2.695  0.0099  0.1116 -0.8091
   59CHL1    C9 5509   4.567   0.980   2.619  0.3246  0.2903  0.2010
   59CHL1    H9 5510   4.516   0.885   2.594 -0.0760  0.6158 -0.2237
   59CHL1   C10 5511   4.636   1.033   2.494  0.4392  0.5646  0.7711
   59CHL1   C19 5512   4.743   1.135   2.536 -0.4085 -0.2049  0.9304
   59CHL1  H19A 5513   4.706   1.217   2.600  0.0965  0.3990  0.4643
   59CHL1  H19B 5514   4.829   1.070   2.563 -0.5665 -1.0122 -0.4316
   59CHL1  H19C 5515   4.795   1.188   2.453  0.9274 -2.5349  0.1922
   59CHL1    C1 5516   4.699   0.908   2.418  0.3760  0.0836  0.0092
   59CHL1   H1A 5517   4.785   0.867   2.475  2.1207  0.3561 -2.2810
   59CHL1   H1B 5518   4.627   0.824   2.413  2.2544 -1.7798  1.9014
   59CHL1    C2 5519   4.773   0.944   2.286 -0.5383 -0.4734  0.5573
   59CHL1   H2A 5520   4.818   0.854   2.240 -1.5316 -1.1670  0.9164
   59CHL1   H2B 5521   4.869   0.996   2.308  0.1428 -0.3148 -2.3255
   59CHL1   C20 5522   4.446   0.922   3.157 -0.6181 -0.0650 -0.1320
   59CHL1   H20 5523   4.492   1.017   3.190 -0.5654  0.4638 -1.6580
   59CHL1   C21 5524   4.561   0.821   3.174 -0.1667  0.2759 -0.0736
   59CHL1  H21A 5525   4.657   0.872   3.151 -0.2138 -0.7645 -2.9868
   59CHL1  H21B 5526   4.548   0.733   3.108  0.5928 -0.8211  1.1602
   59CHL1  H21C 5527   4.561   0.766   3.271 -0.9923  1.8087  0.8241
   59CHL1   C22 5528   4.337   0.903   3.266  0.2604 -0.2220  1.1971
   59CHL1  H22A 5529   4.249   0.970   3.258  1.8999  1.8316 -1.4091
   59CHL1  H22B 5530   4.295   0.800   3.255  0.4850 -0.3151  1.2032
   59CHL1   C23 5531   4.381   0.919   3.407  0.2646  0.5289 -0.0723
   59CHL1  H23A 5532   4.459   0.844   3.432 -0.0376  0.9276  2.2605
   59CHL1  H23B 5533   4.427   1.020   3.413  0.1538  0.7257 -1.9241
   59CHL1   C24 5534   4.260   0.912   3.499 -0.7227 -0.1136  0.0273
   59CHL1  H24A 5535   4.203   1.007   3.489  0.2974  0.5862  0.6739
   59CHL1  H24B 5536   4.193   0.826   3.473 -0.3827 -0.4760  0.3405
   59CHL1   C25 5537   4.297   0.893   3.649  0.2124 -0.4072 -1.0453
   59CHL1   H25 5538   4.389   0.953   3.665  0.2698 -1.2874  2.8853
   59CHL1   C26 5539   4.199   0.945   3.753 -0.2184  0.4777  0.2402
   59CHL1  H26A 5540   4.238   0.937   3.856  0.3557  0.4152  0.0182
   59CHL1  H26B 5541   4.177   1.052   3.730  0.3212  1.1603  2.6007
   59CHL1  H26C 5542   4.104   0.888   3.742  0.2226 -0.2835  0.3401
   59CHL1   C27 5543   4.310   0.746   3.680  0.6429  0.3851  0.3054
   59CHL1  H27A 5544   4.340   0.717   3.783 -0.6528  1.9625  1.1730
   59CHL1  H27B 5545   4.208   0.708   3.658  0.5970  1.6602 -2.0714
   59CHL1  H27C 5546   4.372   0.695   3.603 -0.0947 -0.1311  0.0383
   60CHL1    C3 5547   4.903   6.182   2.402  0.0937  0.2316 -0.0344
   60CHL1    H3 5548   5.014   6.186   2.412 -0.0211  2.1778  1.0559
   60CHL1    O3 5549   4.869   6.138   2.274  0.7192  0.0366 -0.6833
   60CHL1   H3' 5550   4.833   6.211   2.223 -2.1394 -0.8253 -0.0711
   60CHL1    C4 5551   4.843   6.097   2.511 -0.3495  0.1049 -0.0009
   60CHL1   H4A 5552   4.733   6.082   2.506 -0.4272  0.3563  0.8747
   60CHL1   H4B 5553   4.898   6.001   2.502  1.3481  1.1350 -1.3499
   60CHL1    C5 5554   4.876   6.155   2.654 -0.9921 -0.7119 -0.1530
   60CHL1    C6 5555   4.952   6.088   2.747 -0.3539  0.0511 -0.6605
   60CHL1    H6 5556   4.988   5.987   2.721 -1.1738  0.0546 -1.8981
   60CHL1    C7 5557   4.985   6.140   2.878  0.4712 -0.8425 -0.2036
   60CHL1   H7A 5558   4.953   6.068   2.957  0.9971  0.2682  1.0619
   60CHL1   H7B 5559   5.092   6.168   2.873  0.9174 -2.6321 -3.2746
   60CHL1    C8 5560   4.900   6.263   2.912 -0.0320  0.3491  0.5496
   60CHL1    H8 5561   4.799   6.220   2.927  0.0618 -0.9867 -2.0461
   60CHL1   C14 5562   4.945   6.318   3.039 -0.5477  0.4894  0.4327
   60CHL1   H14 5563   5.046   6.362   3.025 -1.1934  1.7670 -0.3688
   60CHL1   C15 5564   4.967   6.221   3.162  0.0567 -0.3242 -0.8710
   60CHL1  H15A 5565   4.877   6.156   3.167  1.9059 -2.9730 -0.3209
   60CHL1  H15B 5566   5.049   6.147   3.153  1.3970  0.7650  1.4885
   60CHL1   C16 5567   4.958   6.322   3.282  0.0604  0.0521  0.4079
   60CHL1  H16A 5568   4.870   6.281   3.337  0.0648 -1.4176 -0.6159
   60CHL1  H16B 5569   5.052   6.334   3.338 -0.5038  1.7172  1.0395
   60CHL1   C17 5570   4.922   6.462   3.226  0.3059 -0.0196  0.1592
   60CHL1   H17 5571   5.020   6.512   3.214  0.1159  1.1374  2.7142
   60CHL1   C13 5572   4.866   6.437   3.085 -0.7099 -0.0077 -0.7288
   60CHL1   C18 5573   4.720   6.406   3.099 -0.4293 -0.7025  0.2254
   60CHL1  H18A 5574   4.665   6.371   3.009  0.8613 -1.2738 -0.3654
   60CHL1  H18B 5575   4.697   6.335   3.182  0.4574  1.9754  2.9407
   60CHL1  H18C 5576   4.671   6.504   3.117 -1.2475 -0.9328 -0.6451
   60CHL1   C12 5577   4.894   6.545   2.975  0.8987  0.3536  0.5624
   60CHL1  H12A 5578   4.855   6.641   3.014  0.5087  0.2668  0.3887
   60CHL1  H12B 5579   5.005   6.548   2.972  1.0760 -0.7016  3.6178
   60CHL1   C11 5580   4.840   6.498   2.837 -0.0211 -0.1337  0.3476
   60CHL1  H11A 5581   4.729   6.493   2.850 -0.1799  1.5107 -0.0557
   60CHL1  H11B 5582   4.870   6.572   2.760 -0.0332  0.2855  0.7337
   60CHL1    C9 5583   4.893   6.364   2.800  0.4152  0.6516 -0.4475
   60CHL1    H9 5584   4.999   6.383   2.771  1.0053 -0.1124  1.0398
   60CHL1   C10 5585   4.830   6.302   2.675  0.2874  0.4352  0.3141
   60CHL1   C19 5586   4.678   6.293   2.686 -0.3988 -0.1706 -0.8458
   60CHL1  H19A 5587   4.632   6.251   2.594 -1.2602 -1.1366 -0.0047
   60CHL1  H19B 5588   4.660   6.223   2.770  0.3068  2.1050  1.3546
   60CHL1  H19C 5589   4.628   6.388   2.717  0.3861 -0.2541  0.7685
   60CHL1    C1 5590   4.870   6.385   2.554 -0.3023 -0.0639  0.0594
   60CHL1   H1A 5591   4.819   6.484   2.553 -1.2316 -0.5329  0.1839
   60CHL1   H1B 5592   4.981   6.398   2.559 -0.1493 -1.4689  0.8196
   60CHL1    C2 5593   4.844   6.323   2.417  0.7084  0.2587 -0.2516
   60CHL1   H2A 5594   4.893   6.389   2.343 -0.6339  0.4182 -1.0353
   60CHL1   H2B 5595   4.737   6.310   2.389  0.6679 -1.0938  0.4657
   60CHL1   C20 5596   4.836   6.533   3.332 -0.4084 -0.5118 -1.1404
   60CHL1   H20 5597   4.749   6.468   3.356 -0.8803  0.3863 -0.3170
   60CHL1   C21 5598   4.786   6.672   3.294 -0.2624 -0.7016 -0.2529
   60CHL1  H21A 5599   4.874   6.738   3.277 -0.6710 -0.2842 -0.7594
   60CHL1  H21B 5600   4.727   6.718   3.376 -0.9460 -1.2453 -0.4304
   60CHL1  H21C 5601   4.728   6.691   3.202 -0.0124  0.5058 -0.1867
   60CHL1   C22 5602   4.911   6.552   3.469  0.2134 -0.0822 -0.4029
   60CHL1  H22A 5603   4.988   6.479   3.501 -0.3756  0.3879  2.3893
   60CHL1  H22B 5604   4.969   6.646   3.463  1.8656 -1.1530 -2.3110
   60CHL1   C23 5605   4.814   6.558   3.593 -0.5748 -0.0400  0.2635
   60CHL1  H23A 5606   4.755   6.652   3.586  0.6020  0.6676 -0.5446
   60CHL1  H23B 5607   4.747   6.471   3.575 -2.2285  1.5769 -1.9806
   60CHL1   C24 5608   4.888   6.549   3.725  0.1566 -0.7687 -0.1544
   60CHL1  H24A 5609   4.989   6.594   3.713  0.6571 -1.8329 -0.0499
   60CHL1  H24B 5610   4.841   6.617   3.799  0.0032 -0.8846 -0.1455
   60CHL1   C25 5611   4.912   6.409   3.785 -0.9110  0.5023  0.3461
   60CHL1   H25 5612   4.938   6.335   3.706 -1.5719 -0.0902  0.6683
   60CHL1   C26 5613   5.029   6.404   3.887 -0.7021 -0.4690  0.3345
   60CHL1  H26A 5614   5.046   6.302   3.927  0.6616 -0.3578  0.0813
   60CHL1  H26B 5615   5.120   6.455   3.848 -0.9095 -0.0439  0.3995
   60CHL1  H26C 5616   4.991   6.467   3.971 -1.6723 -0.5719 -0.0211
   60CHL1   C27 5617   4.776   6.364   3.843 -0.5870 -0.4212  0.5134
   60CHL1  H27A 5618   4.693   6.375   3.770 -0.1260 -1.1423 -0.1271
   60CHL1  H27B 5619   4.788   6.259   3.875  2.5672 -0.7522 -1.3268
   60CHL1  H27C 5620   4.743   6.409   3.939  0.5869 -0.0342  0.7497
   61CHL1    C3 5621   6.201   1.951   2.362 -0.4045 -0.2404 -0.4888
   61CHL1    H3 5622   6.183   1.842   2.377  0.2553 -0.6413 -2.3272
   61CHL1    O3 5623   6.178   1.992   2.225  1.1186 -0.0862 -0.0656
   61CHL1   H3' 5624   6.128   1.921   2.184 -3.0470  2.6333 -0.3102
   61CHL1    C4 5625   6.109   2.034   2.463 -0.3164  0.2695  0.1342
   61CHL1   H4A 5626   6.123   2.137   2.424  0.3192  0.0364 -0.2527
   61CHL1   H4B 5627   6.007   2.001   2.432 -0.5285 -0.5324  1.5716
   61CHL1    C5 5628   6.141   2.018   2.612 -0.1665  0.8821  0.7407
   61CHL1    C6 5629   6.054   1.974   2.697  0.2641  0.8167 -0.4810
   61CHL1    H6 5630   5.948   1.954   2.675  0.1186 -0.3982  1.1762
   61CHL1    C7 5631   6.085   1.950   2.842 -0.1317 -0.0794 -0.2607
   61CHL1   H7A 5632   6.009   1.997   2.908  1.4562  0.0799  1.5418
   61CHL1   H7B 5633   6.087   1.840   2.858  2.1492 -0.2731 -1.4597
   61CHL1    C8 5634   6.217   2.014   2.891  0.1702 -0.9071  0.2210
   61CHL1    H8 5635   6.196   2.123   2.892  0.5223 -0.8359  1.1327
   61CHL1   C14 5636   6.260   1.967   3.032  0.1193 -0.0647  0.4679
   61CHL1   H14 5637   6.289   1.860   3.020 -1.2785 -0.5583  1.2222
   61CHL1   C15 5638   6.156   1.963   3.149 -0.5546  0.1702  0.1189
   61CHL1  H15A 5639   6.109   2.064   3.141 -0.5633  0.1874  0.3848
   61CHL1  H15B 5640   6.076   1.887   3.135  0.0621 -0.6884  1.1448
   61CHL1   C16 5641   6.250   1.974   3.276  0.2948  0.1328  0.6335
   61CHL1  H16A 5642   6.215   2.060   3.337  1.8388  0.2411  1.4032
   61CHL1  H16B 5643   6.251   1.880   3.336  0.7983  0.0463  0.4887
   61CHL1   C17 5644   6.393   1.987   3.222 -0.0208 -0.0915  0.4396
   61CHL1   H17 5645   6.416   1.879   3.210 -0.3568 -0.1813  0.5822
   61CHL1   C13 5646   6.382   2.042   3.081 -0.0656 -0.1775 -0.4499
   61CHL1   C18 5647   6.346   2.187   3.104  0.1087 -0.6920 -0.0199
   61CHL1  H18A 5648   6.440   2.236   3.135  1.1945 -2.9034  0.3499
   61CHL1  H18B 5649   6.326   2.237   3.007  1.2496  0.0777  0.1237
   61CHL1  H18C 5650   6.252   2.204   3.162 -0.1243  1.9078 -1.0238
   61CHL1   C12 5651   6.509   2.029   2.992 -0.6288  0.0760 -0.1719
   61CHL1  H12A 5652   6.596   2.086   3.030 -0.7078 -1.2524  2.1984
   61CHL1  H12B 5653   6.545   1.923   2.992  0.9377  0.5849 -0.7687
   61CHL1   C11 5654   6.470   2.064   2.840  0.5991  0.4853 -0.2356
   61CHL1  H11A 5655   6.467   2.175   2.847  2.0750  0.5235  0.1748
   61CHL1  H11B 5656   6.551   2.030   2.772 -0.1156 -1.8648  0.0037
   61CHL1    C9 5657   6.332   2.001   2.798 -0.2084 -0.1782  0.5190
   61CHL1    H9 5658   6.336   1.890   2.790 -2.8349 -0.4893  2.2321
   61CHL1   C10 5659   6.293   2.044   2.651  0.7381  0.1749  0.5986
   61CHL1   C19 5660   6.326   2.196   2.630  0.0894  0.1693 -0.0894
   61CHL1  H19A 5661   6.244   2.254   2.679  0.2092  1.9891 -1.9224
   61CHL1  H19B 5662   6.429   2.232   2.650 -0.8714  1.6492  2.8304
   61CHL1  H19C 5663   6.304   2.221   2.524 -0.3554  1.6919  0.3428
   61CHL1    C1 5664   6.373   1.951   2.553  0.9563 -0.1171 -0.1762
   61CHL1   H1A 5665   6.482   1.965   2.567  1.5755 -3.2963 -0.9849
   61CHL1   H1B 5666   6.358   1.844   2.580  2.1646  0.4406  3.1293
   61CHL1    C2 5667   6.345   1.980   2.404  0.3386  0.7542 -0.0679
   61CHL1   H2A 5668   6.415   1.920   2.343 -0.9988  0.6178 -1.5133
   61CHL1   H2B 5669   6.367   2.086   2.382 -0.9687  1.0176 -0.2123
   61CHL1   C20 5670   6.500   2.048   3.323  0.3239 -0.1542  0.0428
   61CHL1   H20 5671   6.534   2.150   3.294  1.9436 -1.3511 -2.7683
   61CHL1   C21 5672   6.632   1.964   3.307  0.3623 -0.4037 -0.1373
   61CHL1  H21A 5673   6.606   1.859   3.333  0.0842  0.0969  1.7887
   61CHL1  H21B 5674   6.714   1.986   3.379  1.8639  1.3029 -2.2452
   61CHL1  H21C 5675   6.668   1.960   3.202  2.1339 -2.1779  0.4670
   61CHL1   C22 5676   6.441   2.056   3.463  0.4144 -0.3285 -0.0648
   61CHL1  H22A 5677   6.358   2.130   3.460  0.2100 -0.5725 -0.5741
   61CHL1  H22B 5678   6.405   1.958   3.502 -0.8621  0.0402 -0.2654
   61CHL1   C23 5679   6.537   2.124   3.565  0.6879 -0.3555 -0.5628
   61CHL1  H23A 5680   6.626   2.065   3.594  1.1126  1.5026  2.3380
   61CHL1  H23B 5681   6.565   2.225   3.527  0.3389  1.1652  2.8584
   61CHL1   C24 5682   6.468   2.163   3.699  0.3004  0.0549 -0.3471
   61CHL1  H24A 5683   6.394   2.241   3.672 -0.1656 -0.5570 -0.8567
   61CHL1  H24B 5684   6.400   2.080   3.729 -0.8325  1.9397  2.8780
   61CHL1   C25 5685   6.544   2.206   3.822 -0.4568  0.2364 -0.3032
   61CHL1   H25 5686   6.475   2.261   3.890 -1.5792 -2.5506  0.9318
   61CHL1   C26 5687   6.594   2.074   3.889  0.6022  0.3233  0.6941
   61CHL1  H26A 5688   6.641   2.015   3.807 -0.5523  0.7004 -0.2721
   61CHL1  H26B 5689   6.674   2.098   3.962  2.3044 -0.4497 -0.8469
   61CHL1  H26C 5690   6.507   2.025   3.937  1.4638 -0.1889  1.7726
   61CHL1   C27 5691   6.657   2.307   3.783 -0.5611 -0.7624  0.0232
   61CHL1  H27A 5692   6.603   2.395   3.741  1.6304  0.2802 -0.7743
   61CHL1  H27B 5693   6.714   2.330   3.876 -1.1838  0.4318  0.1318
   61CHL1  H27C 5694   6.720   2.265   3.702  0.4322 -0.5080  0.6503
   62CHL1    C3 5695   1.461   1.458   2.479 -0.1339  0.4039  0.3203
   62CHL1    H3 5696   1.379   1.470   2.553  0.4671  2.0328  0.7548
   62CHL1    O3 5697   1.442   1.527   2.355 -0.0619  0.7129  0.4734
   62CHL1   H3' 5698   1.349   1.529   2.333  0.0490 -0.4411 -0.1537
   62CHL1    C4 5699   1.590   1.505   2.546  0.2360  0.3066  0.4069
   62CHL1   H4A 5700   1.678   1.495   2.479  0.8363  0.0700  1.2092
   62CHL1   H4B 5701   1.575   1.614   2.563 -0.3047  0.2238  0.4802
   62CHL1    C5 5702   1.631   1.422   2.672 -0.5552 -0.5237  0.3197
   62CHL1    C6 5703   1.639   1.491   2.785  0.2563 -0.2876 -0.0210
   62CHL1    H6 5704   1.627   1.600   2.777  0.1903 -0.3957 -1.5429
   62CHL1    C7 5705   1.672   1.430   2.915 -0.6514  0.3595  0.0995
   62CHL1   H7A 5706   1.755   1.479   2.969  0.4784 -0.2062 -1.0653
   62CHL1   H7B 5707   1.592   1.416   2.991  0.9176 -3.2196  1.2821
   62CHL1    C8 5708   1.719   1.278   2.905 -0.5032 -0.4773  0.1503
   62CHL1    H8 5709   1.826   1.267   2.877 -0.4054 -0.7111  0.6012
   62CHL1   C14 5710   1.709   1.210   3.044 -0.5194  0.1729  0.5245
   62CHL1   H14 5711   1.607   1.231   3.081  0.2207  2.4682  1.4350
   62CHL1   C15 5712   1.783   1.280   3.159  0.6008  0.1243  0.3175
   62CHL1  H15A 5713   1.889   1.295   3.130  1.1457  1.6352  2.8092
   62CHL1  H15B 5714   1.737   1.379   3.181 -0.3537 -0.7319  2.4909
   62CHL1   C16 5715   1.764   1.175   3.265 -0.3785 -0.3464  0.3918
   62CHL1  H16A 5716   1.864   1.149   3.305 -0.4224 -0.6920  0.2796
   62CHL1  H16B 5717   1.696   1.207   3.348 -0.7753 -0.6803  0.2009
   62CHL1   C17 5718   1.702   1.045   3.199 -0.4733  0.1658 -0.0171
   62CHL1   H17 5719   1.593   1.055   3.215 -0.5695  1.8553 -1.3798
   62CHL1   C13 5720   1.738   1.059   3.050 -0.2944  0.8127  0.4521
   62CHL1   C18 5721   1.884   1.015   3.028  0.2625 -0.5264 -0.0438
   62CHL1  H18A 5722   1.894   0.905   3.013  1.0685 -0.6689  1.3775
   62CHL1  H18B 5723   1.935   1.063   2.942  0.1068  0.8014  0.5742
   62CHL1  H18C 5724   1.942   1.046   3.118  0.9383 -2.1351  0.1052
   62CHL1   C12 5725   1.648   0.992   2.943 -0.0697  0.5178  0.4523
   62CHL1  H12A 5726   1.677   0.885   2.942 -3.4721 -0.5137 -0.6152
   62CHL1  H12B 5727   1.542   0.997   2.975 -0.6159 -2.7306 -0.4769
   62CHL1   C11 5728   1.656   1.049   2.796 -0.6193 -0.1918 -0.2119
   62CHL1  H11A 5729   1.749   1.018   2.744 -1.3673  0.9790 -2.3751
   62CHL1  H11B 5730   1.571   1.003   2.740  0.6262 -1.1073 -1.4023
   62CHL1    C9 5731   1.634   1.204   2.799 -0.1542 -0.0944  0.4160
   62CHL1    H9 5732   1.532   1.214   2.842  0.7955  0.4201  2.6869
   62CHL1   C10 5733   1.629   1.272   2.657  0.0274 -0.4582  0.3296
   62CHL1   C19 5734   1.751   1.231   2.569  0.2312 -0.0412  0.3840
   62CHL1  H19A 5735   1.852   1.249   2.612  0.3085 -0.3843  0.3481
   62CHL1  H19B 5736   1.745   1.126   2.533  1.2445  0.2840 -0.7853
   62CHL1  H19C 5737   1.752   1.289   2.474 -0.7929  0.9960  0.9752
   62CHL1    C1 5738   1.502   1.228   2.582  0.4474 -0.2597  0.0514
   62CHL1   H1A 5739   1.517   1.119   2.562  2.9949 -0.0708  0.6076
   62CHL1   H1B 5740   1.415   1.231   2.651  0.0730 -0.8257 -0.3845
   62CHL1    C2 5741   1.477   1.310   2.453 -0.2997 -0.1735  0.2471
   62CHL1   H2A 5742   1.385   1.269   2.406  0.6242 -1.2652 -0.6825
   62CHL1   H2B 5743   1.559   1.297   2.378 -0.1440  0.9231  0.2081
   62CHL1   C20 5744   1.746   0.916   3.269 -0.7291 -0.4570  0.6182
   62CHL1   H20 5745   1.850   0.884   3.248 -0.9951 -0.3095 -1.1180
   62CHL1   C21 5746   1.656   0.806   3.221 -0.3183  0.1487 -0.0748
   62CHL1  H21A 5747   1.553   0.841   3.202  0.1606  1.5830 -0.1551
   62CHL1  H21B 5748   1.654   0.718   3.289  4.2238 -0.7796 -0.8009
   62CHL1  H21C 5749   1.698   0.781   3.121  0.0867  0.6473 -0.0389
   62CHL1   C22 5750   1.734   0.923   3.429 -0.3902  0.7076 -0.2720
   62CHL1  H22A 5751   1.774   0.823   3.455  0.6959  0.4997 -2.5131
   62CHL1  H22B 5752   1.798   1.007   3.464  0.8097 -0.6666  0.9384
   62CHL1   C23 5753   1.590   0.931   3.489 -0.2710 -0.7026  0.2688
   62CHL1  H23A 5754   1.543   1.024   3.450  2.3894  1.0487  0.9300
   62CHL1  H23B 5755   1.529   0.844   3.458 -0.7522 -0.0562 -0.6596
   62CHL1   C24 5756   1.586   0.949   3.643 -0.1076  0.0815 -1.0182
   62CHL1  H24A 5757   1.597   0.850   3.693  1.8457  0.4679 -0.6272
   62CHL1  H24B 5758   1.678   1.006   3.669  0.2752 -1.5470  1.6397
   62CHL1   C25 5759   1.461   1.023   3.693  0.4765  0.2092 -0.4613
   62CHL1   H25 5760   1.455   1.028   3.804  0.4380 -1.6432 -0.3450
   62CHL1   C26 5761   1.467   1.165   3.653 -0.3413  0.1354  1.1008
   62CHL1  H26A 5762   1.564   1.207   3.689 -0.0947  1.7029 -1.2014
   62CHL1  H26B 5763   1.464   1.180   3.543  0.9458 -1.3277  0.8171
   62CHL1  H26C 5764   1.393   1.237   3.693 -0.6937  0.1443  0.4416
   62CHL1   C27 5765   1.337   0.953   3.635 -0.2868  0.4585  0.0040
   62CHL1  H27A 5766   1.329   0.848   3.670  2.7736  0.2864  0.5174
   62CHL1  H27B 5767   1.239   1.002   3.654 -0.3988  0.6682 -1.0385
   62CHL1  H27C 5768   1.346   0.950   3.524 -1.2136  0.0390 -0.0677
   63CHL1    C3 5769   6.278   4.390   2.445  0.5157 -0.4652  0.4668
   63CHL1    H3 5770   6.213   4.465   2.494  0.4555  0.9795 -1.6843
   63CHL1    O3 5771   6.252   4.406   2.304 -0.8132 -0.0316  0.2889
   63CHL1   H3' 5772   6.335   4.393   2.256 -2.0064  0.3086 -2.0033
   63CHL1    C4 5773   6.430   4.428   2.476 -0.1128  0.4867  0.6939
   63CHL1   H4A 5774   6.485   4.392   2.387 -2.4787  0.7600 -0.9760
   63CHL1   H4B 5775   6.438   4.538   2.461  2.3668  0.0524 -2.2888
   63CHL1    C5 5776   6.482   4.375   2.609  0.5652  0.7524  0.4219
   63CHL1    C6 5777   6.548   4.453   2.691 -0.7452  0.8813 -0.0687
   63CHL1    H6 5778   6.570   4.558   2.665 -2.4738  1.3330  0.2035
   63CHL1    C7 5779   6.586   4.410   2.831 -0.4483 -0.3661  0.6020
   63CHL1   H7A 5780   6.684   4.455   2.859 -1.2352  0.9881  1.2668
   63CHL1   H7B 5781   6.514   4.448   2.907 -1.4931 -2.2093  0.6060
   63CHL1    C8 5782   6.596   4.258   2.855 -0.5563  0.7212  0.1085
   63CHL1    H8 5783   6.685   4.225   2.796 -0.1763  0.0686  1.0257
   63CHL1   C14 5784   6.614   4.234   3.004 -0.5829  1.0136 -0.1462
   63CHL1   H14 5785   6.521   4.270   3.051 -3.1004 -3.1901 -1.3781
   63CHL1   C15 5786   6.726   4.296   3.091 -1.2833 -0.4327 -0.4403
   63CHL1  H15A 5787   6.825   4.289   3.041 -0.8392  1.5549  0.0837
   63CHL1  H15B 5788   6.711   4.406   3.101 -1.8855 -0.4940 -0.6437
   63CHL1   C16 5789   6.718   4.226   3.214  0.0253  1.1196  0.2111
   63CHL1  H16A 5790   6.820   4.206   3.252  0.0197  1.8389  0.6292
   63CHL1  H16B 5791   6.661   4.292   3.283 -1.0884  0.6159 -0.1998
   63CHL1   C17 5792   6.634   4.094   3.186  0.4097 -0.0997 -0.0697
   63CHL1   H17 5793   6.533   4.120   3.223 -0.4691 -0.1364 -2.3410
   63CHL1   C13 5794   6.613   4.078   3.035 -0.0857 -0.6796 -0.3178
   63CHL1   C18 5795   6.743   4.013   2.970 -0.5564  0.2626  0.5214
   63CHL1  H18A 5796   6.837   4.060   3.005  0.1325  0.2161 -1.1810
   63CHL1  H18B 5797   6.754   3.904   2.988 -0.0615  0.3499  0.7574
   63CHL1  H18C 5798   6.744   4.026   2.859  1.3768  0.1826  0.4917
   63CHL1   C12 5799   6.479   4.009   2.989  0.3609  0.4193 -0.8077
   63CHL1  H12A 5800   6.476   3.899   3.003  1.2138  0.3810 -0.9168
   63CHL1  H12B 5801   6.407   4.064   3.054 -2.2687 -1.5685 -1.8333
   63CHL1   C11 5802   6.466   4.037   2.839  0.0909  0.8753  0.2747
   63CHL1  H11A 5803   6.530   3.964   2.785  0.4811  1.5381 -0.1686
   63CHL1  H11B 5804   6.357   4.017   2.827  0.2631  1.1932 -2.1872
   63CHL1    C9 5805   6.472   4.193   2.801 -0.1917 -0.4136 -0.4033
   63CHL1    H9 5806   6.382   4.228   2.857 -0.5902 -0.5212 -0.9667
   63CHL1   C10 5807   6.439   4.231   2.648 -0.4820  0.7311 -0.0197
   63CHL1   C19 5808   6.522   4.128   2.557 -0.8480 -0.2662 -0.7253
   63CHL1  H19A 5809   6.507   4.153   2.450  0.2632 -1.3991 -1.1763
   63CHL1  H19B 5810   6.629   4.135   2.586 -1.5470 -0.4749  2.2657
   63CHL1  H19C 5811   6.491   4.023   2.580 -1.3457 -0.0249 -0.2659
   63CHL1    C1 5812   6.281   4.212   2.626  0.0896  0.0401 -0.3881
   63CHL1   H1A 5813   6.254   4.110   2.660 -1.2353  0.0824 -1.2335
   63CHL1   H1B 5814   6.231   4.284   2.694  0.0935  0.6377 -1.0021
   63CHL1    C2 5815   6.237   4.247   2.480 -0.3586  0.0184 -0.4421
   63CHL1   H2A 5816   6.129   4.224   2.469 -0.3224 -1.9070  2.1143
   63CHL1   H2B 5817   6.284   4.178   2.407  0.8488 -0.6309  0.8980
   63CHL1   C20 5818   6.689   3.974   3.271 -0.3726  0.3771  0.2672
   63CHL1   H20 5819   6.797   3.959   3.254 -0.4478 -0.6561  0.6102
   63CHL1   C21 5820   6.613   3.852   3.229  0.5852 -0.4213 -0.8916
   63CHL1  H21A 5821   6.510   3.847   3.270  0.4863 -0.6229 -1.1588
   63CHL1  H21B 5822   6.665   3.768   3.280  4.0286  2.2003  0.2749
   63CHL1  H21C 5823   6.609   3.844   3.118  0.0809  1.6377 -1.0518
   63CHL1   C22 5824   6.678   3.992   3.427 -0.1492 -0.1802 -0.0753
   63CHL1  H22A 5825   6.731   4.089   3.441  2.0090 -1.0221 -1.7600
   63CHL1  H22B 5826   6.569   3.997   3.447 -0.4761  0.0077 -1.8056
   63CHL1   C23 5827   6.747   3.872   3.504  0.1949 -0.6367 -0.8406
   63CHL1  H23A 5828   6.683   3.784   3.483 -0.6971 -0.4098  0.7664
   63CHL1  H23B 5829   6.847   3.855   3.459  0.8024  3.4274 -1.4106
   63CHL1   C24 5830   6.754   3.894   3.652  0.1628 -0.4159 -0.2288
   63CHL1  H24A 5831   6.791   3.995   3.683  0.1911 -0.2538 -0.7855
   63CHL1  H24B 5832   6.651   3.905   3.692  0.4094  0.4243  0.2210
   63CHL1   C25 5833   6.833   3.788   3.736 -0.4682 -0.6434 -0.1124
   63CHL1   H25 5834   6.919   3.759   3.673 -0.1241 -2.2412  1.0263
   63CHL1   C26 5835   6.873   3.841   3.878  0.7760 -0.0191  0.4666
   63CHL1  H26A 5836   6.782   3.860   3.938  0.6715  0.7702  0.0703
   63CHL1  H26B 5837   6.926   3.777   3.952 -0.3646  0.5702  1.8308
   63CHL1  H26C 5838   6.932   3.934   3.866 -0.6015  0.9022  0.6296
   63CHL1   C27 5839   6.744   3.662   3.753 -0.0653  0.7624 -0.1286
   63CHL1  H27A 5840   6.659   3.682   3.821  0.8010  1.6236  0.7398
   63CHL1  H27B 5841   6.704   3.624   3.657 -1.9030  0.2934  0.7737
   63CHL1  H27C 5842   6.799   3.580   3.804 -2.4042 -0.7653  0.0740
   64CHL1    C3 5843   1.821   6.073   2.266 -0.8204 -0.4289  0.4374
   64CHL1    H3 5844   1.803   5.968   2.235 -0.5525 -0.9521  1.9791
   64CHL1    O3 5845   1.842   6.162   2.158  0.2795 -0.1340 -0.0984
   64CHL1   H3' 5846   1.924   6.136   2.117  0.4302  1.2244 -0.7028
   64CHL1    C4 5847   1.697   6.129   2.349  0.3491 -0.1870  0.8304
   64CHL1   H4A 5848   1.712   6.239   2.362  0.8186 -0.1344 -0.0800
   64CHL1   H4B 5849   1.613   6.113   2.280  2.3630 -1.4790 -1.4646
   64CHL1    C5 5850   1.673   6.051   2.477 -0.3909 -0.5036 -0.2064
   64CHL1    C6 5851   1.559   5.988   2.511 -0.0648  0.3985  0.0252
   64CHL1    H6 5852   1.479   5.984   2.436 -1.0040 -0.1030  1.0203
   64CHL1    C7 5853   1.541   5.912   2.631  0.2290  0.3601  0.1475
   64CHL1   H7A 5854   1.438   5.924   2.671  0.8866  0.0796  2.0354
   64CHL1   H7B 5855   1.547   5.801   2.624  0.5561  0.3570  0.4395
   64CHL1    C8 5856   1.633   5.966   2.744 -0.4314 -0.4851  0.9285
   64CHL1    H8 5857   1.608   6.074   2.752  0.9213 -0.0612 -0.1519
   64CHL1   C14 5858   1.607   5.883   2.875  0.0421 -0.7303 -0.1795
   64CHL1   H14 5859   1.640   5.779   2.855  1.5912 -0.6070  1.4766
   64CHL1   C15 5860   1.459   5.883   2.925 -0.3624  0.2793  0.8129
   64CHL1  H15A 5861   1.424   5.988   2.921 -1.4281 -0.0995 -0.3675
   64CHL1  H15B 5862   1.391   5.821   2.862  0.7237 -0.8101  0.6680
   64CHL1   C16 5863   1.478   5.843   3.065  0.4321 -0.5342 -0.6998
   64CHL1  H16A 5864   1.431   5.917   3.133  1.3155 -0.6272  0.0333
   64CHL1  H16B 5865   1.430   5.745   3.088 -0.5369  0.4353  1.7779
   64CHL1   C17 5866   1.630   5.843   3.104 -0.1481 -0.1561 -0.4917
   64CHL1   H17 5867   1.665   5.739   3.087  2.3825  0.6277 -0.3661
   64CHL1   C13 5868   1.694   5.928   2.994  0.8018 -0.1136  0.5386
   64CHL1   C18 5869   1.672   6.082   3.023  0.3643  0.2583 -0.3905
   64CHL1  H18A 5870   1.727   6.115   3.114  0.6499  0.7592 -0.7367
   64CHL1  H18B 5871   1.704   6.141   2.935 -2.2658  0.4744 -1.3001
   64CHL1  H18C 5872   1.562   6.097   3.037  0.4876 -1.7219  4.9984
   64CHL1   C12 5873   1.839   5.895   2.951  0.6003  0.2511  0.0495
   64CHL1  H12A 5874   1.905   5.923   3.036  1.6256 -0.0614 -0.6139
   64CHL1  H12B 5875   1.843   5.786   2.931  1.2284  0.1679  0.5786
   64CHL1   C11 5876   1.876   5.976   2.821 -0.6735  0.0278 -0.2851
   64CHL1  H11A 5877   1.883   6.085   2.842  0.8693  0.1580 -1.2971
   64CHL1  H11B 5878   1.973   5.941   2.781 -1.3437  0.5247 -2.4582
   64CHL1    C9 5879   1.779   5.960   2.702  0.4395 -0.7415  0.5630
   64CHL1    H9 5880   1.796   5.858   2.662  1.7947 -0.2096 -0.2767
   64CHL1   C10 5881   1.794   6.043   2.573 -0.3819 -0.1343  0.5922
   64CHL1   C19 5882   1.838   6.177   2.621  0.0540 -1.0323 -0.1550
   64CHL1  H19A 5883   1.838   6.251   2.539 -4.2090  1.1523  1.5271
   64CHL1  H19B 5884   1.771   6.233   2.690  0.3837 -0.5639 -0.2108
   64CHL1  H19C 5885   1.938   6.191   2.668 -1.3246  4.8971  1.9382
   64CHL1    C1 5886   1.912   5.984   2.487 -0.1371  0.2325  0.4347
   64CHL1   H1A 5887   2.002   5.991   2.552 -1.0583 -0.1285  1.7732
   64CHL1   H1B 5888   1.880   5.882   2.458  0.7386  0.1302 -0.2313
   64CHL1    C2 5889   1.937   6.073   2.358 -0.0752  0.4285  0.1053
   64CHL1   H2A 5890   2.025   6.025   2.311  0.0781 -0.8760  1.6516
   64CHL1   H2B 5891   1.948   6.181   2.383 -0.5554  0.4047  0.4419
   64CHL1   C20 5892   1.657   5.861   3.258  0.6358  0.3461  0.4579
   64CHL1   H20 5893   1.643   5.969   3.276  1.6958  0.6524 -0.4642
   64CHL1   C21 5894   1.800   5.816   3.288  0.4608  0.0937  0.5064
   64CHL1  H21A 5895   1.809   5.832   3.398  0.0714 -2.1231  0.8920
   64CHL1  H21B 5896   1.875   5.889   3.250 -0.9568  0.9071 -0.8126
   64CHL1  H21C 5897   1.833   5.713   3.263 -0.2355  0.3812 -1.7502
   64CHL1   C22 5898   1.558   5.787   3.351 -0.3156  0.0760  0.5628
   64CHL1  H22A 5899   1.457   5.777   3.306 -1.2461  1.4753  2.2121
   64CHL1  H22B 5900   1.598   5.686   3.373  0.3458  0.2600  0.2177
   64CHL1   C23 5901   1.543   5.851   3.487  0.3232 -0.3343 -0.4912
   64CHL1  H23A 5902   1.647   5.861   3.524  0.2749 -0.8372 -0.2040
   64CHL1  H23B 5903   1.505   5.955   3.482  0.1743 -0.4027 -0.8378
   64CHL1   C24 5904   1.464   5.769   3.587  0.2337 -0.2294 -0.0189
   64CHL1  H24A 5905   1.362   5.745   3.552  0.3677  2.3333 -2.6247
   64CHL1  H24B 5906   1.508   5.669   3.571 -0.0245 -0.5376  1.0924
   64CHL1   C25 5907   1.463   5.817   3.728 -0.3881  0.1769 -0.4321
   64CHL1   H25 5908   1.564   5.799   3.772 -0.5244 -3.0910 -1.2076
   64CHL1   C26 5909   1.413   5.958   3.747  0.3692 -0.1461 -0.4058
   64CHL1  H26A 5910   1.380   5.981   3.851  0.6382  0.1689 -0.3902
   64CHL1  H26B 5911   1.492   6.032   3.723  0.4274  0.7885  2.3038
   64CHL1  H26C 5912   1.314   5.974   3.699  0.2366  0.9231  0.1913
   64CHL1   C27 5913   1.380   5.718   3.813 -0.2256  0.0418  0.4247
   64CHL1  H27A 5914   1.400   5.734   3.921  0.2782  1.4058  0.1465
   64CHL1  H27B 5915   1.273   5.732   3.786 -0.0641  0.5653  0.0327
   64CHL1  H27C 5916   1.401   5.613   3.785 -1.8407 -0.3689  0.6396
   65CHL1    C3 5917   0.907   1.234   2.194 -0.3826 -0.0943 -0.3923
   65CHL1    H3 5918   0.816   1.292   2.219  0.0994 -0.1452  1.6195
   65CHL1    O3 5919   0.925   1.241   2.056  0.4486  0.4274  0.7449
   65CHL1   H3' 5920   0.959   1.155   2.031  0.8703 -0.3679  3.7262
   65CHL1    C4 5921   1.023   1.301   2.255  0.0709  0.5930  0.0778
   65CHL1   H4A 5922   1.122   1.258   2.229 -1.3204 -3.1199  0.2979
   65CHL1   H4B 5923   1.025   1.407   2.223  2.8639  1.2385  2.0326
   65CHL1    C5 5924   1.042   1.292   2.406 -0.7186 -0.6244 -0.6026
   65CHL1    C6 5925   1.046   1.398   2.487  0.1655  0.2386  0.1880
   65CHL1    H6 5926   1.052   1.498   2.441 -1.2132  0.0168 -0.5481
   65CHL1    C7 5927   1.068   1.387   2.632  0.2620  1.1617 -0.6893
   65CHL1   H7A 5928   1.147   1.461   2.656  0.8056  0.8232 -1.3865
   65CHL1   H7B 5929   0.973   1.419   2.679  0.0892 -1.7967  1.2482
   65CHL1    C8 5930   1.103   1.247   2.682  0.1989  0.7147 -0.7934
   65CHL1    H8 5931   1.210   1.223   2.662  0.5120  0.8438  0.6027
   65CHL1   C14 5932   1.092   1.244   2.829 -0.1753 -0.1806 -0.7288
   65CHL1   H14 5933   0.985   1.273   2.836 -0.5985 -0.2974 -4.5894
   65CHL1   C15 5934   1.167   1.346   2.907  0.2202  0.3811 -0.1173
   65CHL1  H15A 5935   1.275   1.339   2.880  0.4097 -1.3417  0.9638
   65CHL1  H15B 5936   1.113   1.443   2.902 -2.8016 -1.1075  1.5230
   65CHL1   C16 5937   1.143   1.295   3.050  0.7262 -0.5473 -0.2282
   65CHL1  H16A 5938   1.241   1.299   3.103 -0.6569 -0.6574  2.5267
   65CHL1  H16B 5939   1.080   1.363   3.111  0.1094 -2.1342  0.9933
   65CHL1   C17 5940   1.094   1.150   3.037  0.3454  0.1233  0.7068
   65CHL1   H17 5941   0.984   1.140   3.053 -0.2636  0.5375 -2.4566
   65CHL1   C13 5942   1.109   1.100   2.891 -0.0009  0.5169 -0.2024
   65CHL1   C18 5943   1.257   1.049   2.863 -0.2037  0.2063 -0.0125
   65CHL1  H18A 5944   1.266   0.948   2.909 -2.3659 -0.4863 -0.9604
   65CHL1  H18B 5945   1.283   1.030   2.757  0.6970 -0.2062  0.2776
   65CHL1  H18C 5946   1.327   1.116   2.916 -0.0399  0.2734 -0.3157
   65CHL1   C12 5947   1.001   1.008   2.832 -0.2364  0.5485 -0.4713
   65CHL1  H12A 5948   1.011   0.906   2.875  1.1819  1.2424  0.9796
   65CHL1  H12B 5949   0.905   1.055   2.860 -0.5112 -1.1947  1.8058
   65CHL1   C11 5950   1.016   0.998   2.672  0.0980 -0.2533  0.3605
   65CHL1  H11A 5951   1.102   0.936   2.640 -0.6835 -0.5523 -1.3008
   65CHL1  H11B 5952   0.923   0.943   2.646  0.2014 -0.9118  1.3580
   65CHL1    C9 5953   1.017   1.139   2.612  0.3536 -0.7252 -0.3148
   65CHL1    H9 5954   0.912   1.170   2.632  0.7100  1.0840 -1.0347
   65CHL1   C10 5955   1.032   1.145   2.461  0.3787  0.0896 -0.0553
   65CHL1   C19 5956   1.159   1.065   2.423 -0.1918  0.1159 -0.4073
   65CHL1  H19A 5957   1.236   1.094   2.499  0.7800 -1.4681 -0.7402
   65CHL1  H19B 5958   1.138   0.957   2.429 -0.5824  0.1761 -0.7247
   65CHL1  H19C 5959   1.200   1.084   2.322  2.8786  0.7188  0.8232
   65CHL1    C1 5960   0.906   1.083   2.393  0.3601  0.3852 -0.3331
   65CHL1   H1A 5961   0.894   0.979   2.429 -0.6532  1.2702  2.0405
   65CHL1   H1B 5962   0.817   1.137   2.432 -0.7168 -1.3674 -0.2611
   65CHL1    C2 5963   0.914   1.087   2.244  0.0675 -0.1174 -0.0081
   65CHL1   H2A 5964   0.823   1.032   2.209 -1.5123  2.0747  0.4624
   65CHL1   H2B 5965   1.004   1.041   2.196  0.6825 -0.2114  1.2145
   65CHL1   C20 5966   1.148   1.066   3.143  0.5212  0.2969  0.0008
   65CHL1   H20 5967   1.257   1.042   3.138  0.5397 -0.0312  1.4621
   65CHL1   C21 5968   1.073   0.926   3.149 -0.3030  0.3656 -0.0144
   65CHL1  H21A 5969   1.121   0.865   3.069 -1.8904 -1.1782  0.1561
   65CHL1  H21B 5970   0.965   0.927   3.120 -0.1884 -2.5806 -0.9178
   65CHL1  H21C 5971   1.102   0.883   3.247  0.1337 -1.7315 -1.0131
   65CHL1   C22 5972   1.135   1.137   3.281  0.1780  0.3649  0.2693
   65CHL1  H22A 5973   1.166   1.051   3.344 -0.4164 -1.8421 -2.2712
   65CHL1  H22B 5974   1.206   1.222   3.289 -0.4383  1.1497 -1.8378
   65CHL1   C23 5975   0.993   1.179   3.333  0.0894 -0.4629 -0.3421
   65CHL1  H23A 5976   0.961   1.277   3.290  0.1338 -0.2017  0.2040
   65CHL1  H23B 5977   0.929   1.094   3.302 -0.5683 -1.4763  3.2921
   65CHL1   C24 5978   0.982   1.194   3.488 -0.2127  0.4107 -0.4568
   65CHL1  H24A 5979   0.880   1.230   3.511 -0.0742  1.3725 -1.3167
   65CHL1  H24B 5980   1.005   1.093   3.530 -1.4754 -0.5486 -1.9784
   65CHL1   C25 5981   1.084   1.290   3.556 -0.5186  0.0130  0.0262
   65CHL1   H25 5982   1.188   1.269   3.523 -0.5797  1.1523 -0.9256
   65CHL1   C26 5983   1.072   1.441   3.528 -0.5843 -0.6572  0.0011
   65CHL1  H26A 5984   1.089   1.464   3.421  2.5332 -1.4579  0.2375
   65CHL1  H26B 5985   0.975   1.463   3.578 -1.4727  0.4792 -2.1141
   65CHL1  H26C 5986   1.146   1.494   3.592 -1.5321 -0.7199  1.2046
   65CHL1   C27 5987   1.081   1.268   3.706  0.9645  0.1167 -0.5241
   65CHL1  H27A 5988   1.099   1.159   3.717  2.2257  0.5372  2.6766
   65CHL1  H27B 5989   1.166   1.310   3.763  0.1080 -0.2551  1.1071
   65CHL1  H27C 5990   0.982   1.288   3.753 -0.0486  1.6993 -3.0876
   66CHL1    C3 5991   6.659   2.303   2.159  0.3644  0.0298 -0.8421
   66CHL1    H3 5992   6.561   2.338   2.200  1.2078 -0.7616  2.0159
   66CHL1    O3 5993   6.648   2.278   2.020  0.0312 -0.2182 -0.0080
   66CHL1   H3' 5994   6.636   2.363   1.977 -0.2051 -0.2826 -0.0724
   66CHL1    C4 5995   6.767   2.403   2.189  0.0218  0.0615 -0.0773
   66CHL1   H4A 5996   6.863   2.363   2.152  0.8359 -0.4741  2.3963
   66CHL1   H4B 5997   6.735   2.496   2.137  0.6724 -0.8498 -2.1731
   66CHL1    C5 5998   6.791   2.436   2.339  0.6252  0.2909 -0.1612
   66CHL1    C6 5999   6.798   2.568   2.391 -0.1862  0.4332  0.0924
   66CHL1    H6 6000   6.782   2.659   2.330 -1.5162  0.8797  1.0495
   66CHL1    C7 6001   6.814   2.600   2.534  0.4186  0.0041 -0.6966
   66CHL1   H7A 6002   6.900   2.671   2.540 -1.1251  1.9581 -0.8536
   66CHL1   H7B 6003   6.730   2.659   2.576 -0.6911 -1.5782 -0.5863
   66CHL1    C8 6004   6.839   2.477   2.620 -0.4478 -0.1095  0.3422
   66CHL1    H8 6005   6.947   2.455   2.605 -0.3896  1.2785 -1.7395
   66CHL1   C14 6006   6.816   2.509   2.769  0.3209  0.1144 -0.5372
   66CHL1   H14 6007   6.708   2.534   2.780  0.5664  0.6291  0.9807
   66CHL1   C15 6008   6.887   2.627   2.839  0.1859 -0.5148  0.1871
   66CHL1  H15A 6009   6.994   2.632   2.809  0.3988  1.8046  1.1201
   66CHL1  H15B 6010   6.834   2.719   2.806  2.1050  0.2677 -0.9027
   66CHL1   C16 6011   6.873   2.599   2.989 -0.0242  0.8934  0.6373
   66CHL1  H16A 6012   6.965   2.597   3.050 -0.7758  2.0363  1.8773
   66CHL1  H16B 6013   6.800   2.667   3.039 -0.4498  1.0174 -0.1304
   66CHL1   C17 6014   6.806   2.457   3.001 -0.7040 -0.3505  0.0646
   66CHL1   H17 6015   6.696   2.473   3.003 -0.6897  0.2601 -1.8223
   66CHL1   C13 6016   6.837   2.388   2.867 -0.1592 -0.0307  0.2899
   66CHL1   C18 6017   6.989   2.354   2.853  0.4056 -0.1680  0.2102
   66CHL1  H18A 6018   7.054   2.442   2.872 -0.7910  0.9273 -0.5501
   66CHL1  H18B 6019   7.014   2.270   2.920 -0.2844  0.0123  0.7044
   66CHL1  H18C 6020   7.020   2.324   2.750  1.8832  0.1782  0.5337
   66CHL1   C12 6021   6.748   2.267   2.834  0.2368  0.8528  0.4653
   66CHL1  H12A 6022   6.781   2.177   2.890  1.5055  0.5061 -0.7759
   66CHL1  H12B 6023   6.640   2.291   2.844  0.2387  2.1344 -2.0211
   66CHL1   C11 6024   6.771   2.232   2.684 -0.2323  0.6051  0.1000
   66CHL1  H11A 6025   6.874   2.194   2.663  1.0653  3.4813  0.7078
   66CHL1  H11B 6026   6.694   2.153   2.675  0.4883 -0.4400  2.3640
   66CHL1    C9 6027   6.758   2.349   2.579  0.0501 -0.1020 -0.4266
   66CHL1    H9 6028   6.650   2.374   2.574 -0.4332 -1.9232  0.0702
   66CHL1   C10 6029   6.792   2.306   2.431  0.3080 -0.4489 -0.2397
   66CHL1   C19 6030   6.932   2.237   2.405  0.5082  0.6732  0.5193
   66CHL1  H19A 6031   6.947   2.139   2.454  1.4288  0.3973 -0.2968
   66CHL1  H19B 6032   6.956   2.223   2.298  3.6091  2.3151  0.8909
   66CHL1  H19C 6033   7.009   2.301   2.453  0.5133  0.8905  0.2235
   66CHL1    C1 6034   6.684   2.207   2.382  0.2166  0.4586 -0.0385
   66CHL1   H1A 6035   6.696   2.111   2.436  1.5670  0.8497  0.3920
   66CHL1   H1B 6036   6.584   2.251   2.401  0.5778  0.4034  2.3804
   66CHL1    C2 6037   6.685   2.177   2.236  0.0440  0.0278  0.6824
   66CHL1   H2A 6038   6.610   2.102   2.204  2.4168 -2.4666  0.5985
   66CHL1   H2B 6039   6.785   2.140   2.206  0.0835  2.0811 -2.1382
   66CHL1   C20 6040   6.851   2.390   3.134 -0.9780 -0.1215 -0.2560
   66CHL1   H20 6041   6.960   2.368   3.130 -0.4242  2.3874 -0.7990
   66CHL1   C21 6042   6.770   2.273   3.162 -0.3281 -0.0329 -0.5006
   66CHL1  H21A 6043   6.780   2.223   3.261 -0.9038  1.5895  0.4177
   66CHL1  H21B 6044   6.791   2.194   3.088 -0.8439 -0.4110 -0.2507
   66CHL1  H21C 6045   6.662   2.300   3.161 -0.2026  0.5604  0.4517
   66CHL1   C22 6046   6.838   2.487   3.264 -0.0773  0.1132 -0.0577
   66CHL1  H22A 6047   6.875   2.590   3.248  2.1939 -0.3905  1.4071
   66CHL1  H22B 6048   6.730   2.491   3.292 -0.0519  0.9560 -0.0670
   66CHL1   C23 6049   6.911   2.439   3.388 -0.9177  0.1792 -0.4274
   66CHL1  H23A 6050   6.876   2.338   3.420 -0.5955  1.1061  3.3241
   66CHL1  H23B 6051   7.019   2.427   3.365 -0.8421 -0.6228  0.2735
   66CHL1   C24 6052   6.884   2.536   3.501 -0.1191 -0.1912  0.1760
   66CHL1  H24A 6053   6.866   2.636   3.457 -0.1448 -0.5456 -0.6469
   66CHL1  H24B 6054   6.790   2.500   3.548 -0.0790 -0.4449  0.0685
   66CHL1   C25 6055   7.002   2.541   3.598  1.0270 -0.1092  0.8413
   66CHL1   H25 6056   7.092   2.565   3.538 -0.3027 -2.6148 -2.3860
   66CHL1   C26 6057   6.990   2.659   3.691  0.4999 -0.8430 -0.2045
   66CHL1  H26A 6058   7.054   2.645   3.780 -2.1659  1.0544  2.2210
   66CHL1  H26B 6059   7.016   2.759   3.650  2.6904 -0.7287  1.2902
   66CHL1  H26C 6060   6.885   2.653   3.728  0.8534 -1.5545  0.7293
   66CHL1   C27 6061   7.024   2.410   3.662 -0.6279  0.0183 -0.0475
   66CHL1  H27A 6062   7.081   2.423   3.756 -0.3192  0.2454 -0.2647
   66CHL1  H27B 6063   7.081   2.350   3.588  1.2630  2.6069 -0.8521
   66CHL1  H27C 6064   6.934   2.355   3.696 -0.3869 -0.0584  0.4739
   67CHL1    C3 6065   5.053   6.984   2.122 -0.1330 -0.2071  0.4325
   67CHL1    H3 6066   5.073   7.092   2.142  1.9227 -0.1931 -1.3101
   67CHL1    O3 6067   5.117   6.954   1.996 -0.1213 -0.3755  0.1238
   67CHL1   H3' 6068   5.069   6.884   1.951 -1.5307  1.0626 -0.6997
   67CHL1    C4 6069   5.121   6.904   2.237  0.5792 -0.1271  0.2127
   67CHL1   H4A 6070   5.101   6.797   2.214 -0.8004  0.0704  0.3928
   67CHL1   H4B 6071   5.231   6.921   2.236  0.3692  1.6510  1.6390
   67CHL1    C5 6072   5.055   6.939   2.369  0.6629  0.1434  0.5269
   67CHL1    C6 6073   5.125   6.984   2.473  0.5587 -0.4436 -0.0223
   67CHL1    H6 6074   5.233   6.997   2.458  0.2321  3.1519 -0.2791
   67CHL1    C7 6075   5.062   7.012   2.605 -1.4618 -0.2344 -0.2801
   67CHL1   H7A 6076   5.128   6.974   2.685 -0.2381 -0.2255 -1.2561
   67CHL1   H7B 6077   5.061   7.121   2.627  2.9945 -0.2589  1.0316
   67CHL1    C8 6078   4.922   6.953   2.628  0.8406  0.1199 -0.3840
   67CHL1    H8 6079   4.923   6.842   2.641  1.7820 -0.0106 -1.3631
   67CHL1   C14 6080   4.856   7.006   2.753 -0.7034 -0.2561  0.6040
   67CHL1   H14 6081   4.865   7.116   2.746 -1.2165 -0.3057 -3.5972
   67CHL1   C15 6082   4.910   6.959   2.884  0.0474  0.4417 -0.1860
   67CHL1  H15A 6083   4.930   6.851   2.872  0.4890  0.6194 -1.2401
   67CHL1  H15B 6084   5.002   7.006   2.925  1.0249 -0.6255 -1.0759
   67CHL1   C16 6085   4.796   6.978   2.991 -0.3538  0.1972  0.3291
   67CHL1  H16A 6086   4.784   6.876   3.032  1.4950  0.1133  0.7657
   67CHL1  H16B 6087   4.818   7.038   3.082 -1.2139  1.8501 -0.5027
   67CHL1   C17 6088   4.685   7.034   2.905 -0.2880 -0.4744  0.0553
   67CHL1   H17 6089   4.719   7.140   2.897  1.4269 -1.1024 -1.4690
   67CHL1   C13 6090   4.708   6.974   2.762  0.1971  0.1013  0.6256
   67CHL1   C18 6091   4.669   6.824   2.772  0.0062 -0.1430 -0.1002
   67CHL1  H18A 6092   4.558   6.819   2.776 -0.2378  2.7949 -0.6434
   67CHL1  H18B 6093   4.695   6.771   2.678 -0.0565  1.0426 -0.8062
   67CHL1  H18C 6094   4.714   6.769   2.857  1.6206 -0.2034 -0.9502
   67CHL1   C12 6095   4.642   7.045   2.649 -0.4202  0.2219  0.1165
   67CHL1  H12A 6096   4.533   7.028   2.663 -0.6850  1.7299  0.0354
   67CHL1  H12B 6097   4.660   7.155   2.651 -0.2007  0.1666  1.5815
   67CHL1   C11 6098   4.687   6.994   2.515 -0.4656  0.4573 -0.3719
   67CHL1  H11A 6099   4.641   6.893   2.509 -0.6060  0.5715 -1.4076
   67CHL1  H11B 6100   4.641   7.052   2.431  1.9808  0.9108 -1.4652
   67CHL1    C9 6101   4.840   6.996   2.501  0.7471  1.2640 -0.4293
   67CHL1    H9 6102   4.856   7.106   2.500  0.3556  1.3326  0.0172
   67CHL1   C10 6103   4.897   6.928   2.372 -0.0511  1.2394 -0.0799
   67CHL1   C19 6104   4.850   6.783   2.376  0.0159 -0.1940 -0.0717
   67CHL1  H19A 6105   4.741   6.772   2.361 -0.0036 -2.1671  1.1899
   67CHL1  H19B 6106   4.913   6.731   2.301 -0.7694  0.8192 -1.5015
   67CHL1  H19C 6107   4.863   6.738   2.477 -1.1875  2.2079  1.2555
   67CHL1    C1 6108   4.839   7.000   2.249  0.1396 -0.0282  0.1813
   67CHL1   H1A 6109   4.733   6.967   2.257 -0.1722  1.1918  1.4492
   67CHL1   H1B 6110   4.838   7.110   2.266  0.9869  0.2252 -1.2218
   67CHL1    C2 6111   4.901   6.963   2.113  0.2959  0.3428 -0.5428
   67CHL1   H2A 6112   4.857   7.026   2.032  0.5220  1.3509  0.0984
   67CHL1   H2B 6113   4.890   6.854   2.098  0.6155  0.4013 -1.2298
   67CHL1   C20 6114   4.534   7.033   2.965 -0.3088  0.3959  0.1083
   67CHL1   H20 6115   4.479   6.943   2.929 -1.3989  0.0005  2.5045
   67CHL1   C21 6116   4.460   7.166   2.923 -0.7508  0.8522 -0.1837
   67CHL1  H21A 6117   4.469   7.180   2.813  1.3203  2.5233  0.1260
   67CHL1  H21B 6118   4.509   7.255   2.969  0.6619  0.4975 -0.9564
   67CHL1  H21C 6119   4.351   7.167   2.946 -1.3305  1.0254 -2.6655
   67CHL1   C22 6120   4.538   7.011   3.120 -0.5991 -0.2436  1.1723
   67CHL1  H22A 6121   4.564   6.904   3.134 -1.0670 -0.7377 -1.2661
   67CHL1  H22B 6122   4.613   7.084   3.157  1.0279 -0.1662 -1.9223
   67CHL1   C23 6123   4.411   7.019   3.199 -0.3317  0.4863  0.0806
   67CHL1  H23A 6124   4.363   7.116   3.175  1.0889  0.9830 -0.8855
   67CHL1  H23B 6125   4.349   6.937   3.156 -0.0014 -0.6219  1.6165
   67CHL1   C24 6126   4.430   7.006   3.355 -0.5168 -0.8167  0.2051
   67CHL1  H24A 6127   4.487   6.915   3.384  1.2515  0.1837  0.0290
   67CHL1  H24B 6128   4.509   7.076   3.389  0.3519 -1.3651 -0.6185
   67CHL1   C25 6129   4.307   7.020   3.444 -0.1517  0.5173 -0.4042
   67CHL1   H25 6130   4.239   6.934   3.429  0.9685 -0.7774  1.4423
   67CHL1   C26 6131   4.341   7.015   3.591 -0.1969 -0.3114 -0.0475
   67CHL1  H26A 6132   4.383   7.113   3.620  1.3849 -0.7137 -0.8629
   67CHL1  H26B 6133   4.248   6.982   3.642 -1.0213  1.2408 -0.4859
   67CHL1  H26C 6134   4.426   6.945   3.600 -0.0301 -0.4462 -2.0746
   67CHL1   C27 6135   4.223   7.147   3.408  0.0268 -0.3784 -0.7326
   67CHL1  H27A 6136   4.195   7.156   3.301  0.4072  0.9366 -0.7440
   67CHL1  H27B 6137   4.146   7.168   3.486  1.2505  1.9341 -0.0501
   67CHL1  H27C 6138   4.295   7.231   3.418 -0.0893 -0.2357 -1.0996
   68CHL1    C3 6139   2.382   0.222   2.164 -0.4945  0.7719 -0.0595
   68CHL1    H3 6140   2.276   0.249   2.182 -1.0117  0.0774 -1.9040
   68CHL1    O3 6141   2.414   0.246   2.028  0.4013 -0.1659  0.6428
   68CHL1   H3' 6142   2.422   0.342   2.027 -0.2979 -0.0205  2.7808
   68CHL1    C4 6143   2.472   0.313   2.251 -0.7415 -0.7662  0.2550
   68CHL1   H4A 6144   2.579   0.306   2.224 -1.0852 -0.0546 -1.4684
   68CHL1   H4B 6145   2.459   0.421   2.225 -0.9934 -0.5884  1.1059
   68CHL1    C5 6146   2.455   0.288   2.399  0.7948  0.8074 -0.7044
   68CHL1    C6 6147   2.412   0.389   2.476  0.7178 -0.3692 -0.6698
   68CHL1    H6 6148   2.408   0.491   2.437  3.7725  0.3385  0.5887
   68CHL1    C7 6149   2.391   0.376   2.625  0.2718  1.4097  0.7636
   68CHL1   H7A 6150   2.447   0.460   2.671 -2.3070  3.1479  0.9953
   68CHL1   H7B 6151   2.284   0.383   2.654  0.4355 -0.3481  1.9511
   68CHL1    C8 6152   2.452   0.241   2.683  0.4616  0.1932  0.1520
   68CHL1    H8 6153   2.562   0.252   2.690  0.3937  0.6900  0.5342
   68CHL1   C14 6154   2.393   0.215   2.820  0.0594  0.4654  0.9473
   68CHL1   H14 6155   2.283   0.205   2.812 -0.0747  1.7884  0.8646
   68CHL1   C15 6156   2.412   0.329   2.928  0.4436  0.3851 -0.2955
   68CHL1  H15A 6157   2.516   0.368   2.923  0.4457  0.2601 -1.8047
   68CHL1  H15B 6158   2.334   0.402   2.897 -1.7417 -1.6343  0.1455
   68CHL1   C16 6159   2.373   0.255   3.057  0.0692  0.0069  0.2933
   68CHL1  H16A 6160   2.462   0.273   3.121  0.2770  0.1255 -0.0258
   68CHL1  H16B 6161   2.286   0.307   3.102 -0.6797  0.3317 -1.4331
   68CHL1   C17 6162   2.362   0.103   3.021  0.0729 -0.4778  0.0808
   68CHL1   H17 6163   2.253   0.082   3.008  0.1839 -2.1482  1.3997
   68CHL1   C13 6164   2.433   0.092   2.892 -0.0134  0.3331  0.3871
   68CHL1   C18 6165   2.591   0.088   2.919  0.6457 -0.0203  0.0710
   68CHL1  H18A 6166   2.625  -0.011   2.956 -1.0259 -1.2017 -1.3605
   68CHL1  H18B 6167   2.643   0.090   2.820 -0.2841 -0.4359 -0.4409
   68CHL1  H18C 6168   2.621   0.163   2.995 -0.4736 -0.5457  1.0752
   68CHL1   C12 6169   2.397  -0.029   2.799  0.2868  0.7658 -0.4491
   68CHL1  H12A 6170   2.437  -0.118   2.852 -0.3583 -0.2624 -1.6531
   68CHL1  H12B 6171   2.289  -0.051   2.800  0.4185  0.1208  0.1268
   68CHL1   C11 6172   2.450  -0.024   2.657  0.3079 -0.2012 -0.1840
   68CHL1  H11A 6173   2.556  -0.055   2.661  0.6714  1.0608  0.2487
   68CHL1  H11B 6174   2.397  -0.108   2.606 -0.2485 -0.9742  1.5771
   68CHL1    C9 6175   2.420   0.123   2.592 -0.5959 -0.1732  0.7638
   68CHL1    H9 6176   2.309   0.122   2.583 -0.7027 -0.8211  2.0076
   68CHL1   C10 6177   2.482   0.142   2.442  0.1395 -0.1118 -1.0547
   68CHL1   C19 6178   2.630   0.107   2.443  0.4687 -0.4127  0.0055
   68CHL1  H19A 6179   2.647   0.000   2.467 -2.0375 -1.1860 -1.2846
   68CHL1  H19B 6180   2.673   0.123   2.342  0.4750  2.1466  0.3363
   68CHL1  H19C 6181   2.690   0.171   2.511  0.1781  0.3981 -0.4861
   68CHL1    C1 6182   2.402   0.042   2.350  1.1021 -0.0948 -0.9796
   68CHL1   H1A 6183   2.439  -0.061   2.367 -0.4989 -0.3656  1.3220
   68CHL1   H1B 6184   2.297   0.043   2.386  1.8260  4.1954  1.7855
   68CHL1    C2 6185   2.406   0.077   2.199 -0.3729  0.5889  0.1025
   68CHL1   H2A 6186   2.337   0.006   2.149  0.0156  0.5531 -0.3914
   68CHL1   H2B 6187   2.511   0.058   2.169 -0.0273 -1.6220  2.3652
   68CHL1   C20 6188   2.400   0.018   3.146 -0.2354  0.8006 -0.7833
   68CHL1   H20 6189   2.507   0.037   3.169 -0.4150  0.7134  0.1296
   68CHL1   C21 6190   2.399  -0.133   3.110  0.2627  0.1929 -0.0458
   68CHL1  H21A 6191   2.482  -0.163   3.043  0.7123 -1.5555  1.2389
   68CHL1  H21B 6192   2.294  -0.159   3.084 -0.9170  0.2399  4.1001
   68CHL1  H21C 6193   2.410  -0.181   3.209 -1.1700  2.8161  1.4857
   68CHL1   C22 6194   2.304   0.052   3.265 -0.0654 -0.9497  0.2026
   68CHL1  H22A 6195   2.312   0.162   3.281  1.9202 -0.8247 -1.2486
   68CHL1  H22B 6196   2.201   0.033   3.230 -0.7517  3.8774 -1.1636
   68CHL1   C23 6197   2.337  -0.020   3.393  0.9880  0.0051  1.2575
   68CHL1  H23A 6198   2.328  -0.130   3.381  2.7052  0.0709 -1.3219
   68CHL1  H23B 6199   2.445   0.003   3.407  1.7397 -2.5531  0.2126
   68CHL1   C24 6200   2.257   0.042   3.508 -0.9029  0.4238  0.5932
   68CHL1  H24A 6201   2.254   0.152   3.496 -1.1261  0.3522 -0.0289
   68CHL1  H24B 6202   2.155  -0.003   3.512 -1.1103  0.6666 -1.2661
   68CHL1   C25 6203   2.326   0.012   3.645  0.2937  0.5715 -0.2711
   68CHL1   H25 6204   2.426   0.060   3.650  0.2269  0.6185  1.1673
   68CHL1   C26 6205   2.248   0.058   3.770  0.1196  0.2721  0.0389
   68CHL1  H26A 6206   2.208   0.161   3.757 -0.2165  0.3023  1.1488
   68CHL1  H26B 6207   2.154  -0.000   3.782 -2.3350  2.9608 -3.7573
   68CHL1  H26C 6208   2.304   0.062   3.866 -1.1509 -0.8050  0.8719
   68CHL1   C27 6209   2.344  -0.135   3.676 -0.1552 -0.7334 -0.5100
   68CHL1  H27A 6210   2.413  -0.174   3.598  0.2098 -0.2867 -0.4164
   68CHL1  H27B 6211   2.405  -0.158   3.766  0.5092 -0.6605 -0.9367
   68CHL1  H27C 6212   2.251  -0.195   3.667  1.0323 -2.4549 -1.9598
   69CHL1    C3 6213   5.505   6.646   2.423 -0.3519  0.4352  0.6146
   69CHL1    H3 6214   5.451   6.549   2.424  0.2916  0.0718  1.1545
   69CHL1    O3 6215   5.549   6.671   2.287  1.1038  0.0812  0.1008
   69CHL1   H3' 6216   5.583   6.588   2.252 -2.5703 -1.1849 -0.9888
   69CHL1    C4 6217   5.426   6.767   2.478 -0.4560  0.0951 -0.2980
   69CHL1   H4A 6218   5.493   6.851   2.449  1.9417 -1.1495  1.2612
   69CHL1   H4B 6219   5.332   6.773   2.419 -1.2666  0.8223  1.0063
   69CHL1    C5 6220   5.403   6.748   2.625 -0.0030  0.2570  0.0039
   69CHL1    C6 6221   5.278   6.734   2.677 -0.0814 -0.0176 -0.2539
   69CHL1    H6 6222   5.203   6.739   2.597  2.2944 -0.0708 -2.6325
   69CHL1    C7 6223   5.241   6.734   2.820 -0.3957 -0.3939 -0.2299
   69CHL1   H7A 6224   5.154   6.799   2.841 -1.0492 -1.2197 -0.3574
   69CHL1   H7B 6225   5.224   6.629   2.849  1.9818 -0.3435  1.6829
   69CHL1    C8 6226   5.362   6.790   2.898  0.0788 -0.1961  0.3636
   69CHL1    H8 6227   5.382   6.896   2.873  1.7242 -0.7336 -0.7844
   69CHL1   C14 6228   5.328   6.768   3.044 -0.0832  0.4300  0.6328
   69CHL1   H14 6229   5.321   6.657   3.044 -0.2683  0.3870 -2.0046
   69CHL1   C15 6230   5.191   6.809   3.096 -0.2221  0.1288 -0.5037
   69CHL1  H15A 6231   5.176   6.915   3.066  0.1265 -0.2240 -2.0305
   69CHL1  H15B 6232   5.108   6.742   3.064 -0.2097  0.3466 -1.0053
   69CHL1   C16 6233   5.211   6.802   3.245 -0.0761  0.2396 -0.0549
   69CHL1  H16A 6234   5.198   6.901   3.294  0.8968  1.4287 -2.0414
   69CHL1  H16B 6235   5.145   6.724   3.288 -1.4879  1.6181  0.3758
   69CHL1   C17 6236   5.359   6.764   3.269 -0.8516 -0.1867 -0.2673
   69CHL1   H17 6237   5.367   6.654   3.268  0.4749 -0.1642 -3.3090
   69CHL1   C13 6238   5.435   6.807   3.138  0.2552  0.5625 -1.2983
   69CHL1   C18 6239   5.461   6.962   3.142  0.1249  0.9251  0.2938
   69CHL1  H18A 6240   5.540   6.986   3.068  4.0296 -2.4036  2.8929
   69CHL1  H18B 6241   5.365   7.016   3.127 -0.0131  0.3682 -0.9341
   69CHL1  H18C 6242   5.515   6.991   3.235  0.6245 -0.9896  0.6479
   69CHL1   C12 6243   5.567   6.732   3.097 -0.4984  0.2099  0.2021
   69CHL1  H12A 6244   5.648   6.758   3.168 -0.3051  0.5773 -0.1516
   69CHL1  H12B 6245   5.540   6.624   3.100 -0.9943  0.3085 -0.5140
   69CHL1   C11 6246   5.608   6.753   2.953 -0.0069 -0.1866 -0.8182
   69CHL1  H11A 6247   5.647   6.857   2.948  0.4150 -0.2943  0.1024
   69CHL1  H11B 6248   5.692   6.684   2.932 -1.4394 -2.9628  1.8195
   69CHL1    C9 6249   5.492   6.717   2.852 -0.5118 -0.1896  0.1360
   69CHL1    H9 6250   5.481   6.607   2.858 -1.2259 -0.0518  1.9531
   69CHL1   C10 6251   5.535   6.742   2.709  1.0767 -0.3912  0.5475
   69CHL1   C19 6252   5.603   6.882   2.694 -0.0836 -0.0248 -0.5750
   69CHL1  H19A 6253   5.708   6.864   2.726  0.0211 -0.2762 -1.0427
   69CHL1  H19B 6254   5.608   6.927   2.593  1.0138  2.2872  0.4375
   69CHL1  H19C 6255   5.551   6.960   2.753  2.0995 -0.0632  1.5383
   69CHL1    C1 6256   5.625   6.636   2.649 -0.5169  0.3082  0.0573
   69CHL1   H1A 6257   5.725   6.644   2.698  0.5187  0.9024 -2.0519
   69CHL1   H1B 6258   5.581   6.542   2.689 -0.1686  0.8408  1.7896
   69CHL1    C2 6259   5.639   6.628   2.497  0.4120 -0.1430  0.3092
   69CHL1   H2A 6260   5.698   6.540   2.461  1.8725  0.2638  1.5609
   69CHL1   H2B 6261   5.705   6.711   2.465 -0.1461  0.1927  0.0222
   69CHL1   C20 6262   5.428   6.800   3.413 -0.1570  0.0113  0.4916
   69CHL1   H20 6263   5.477   6.900   3.403  1.5963 -0.7358  1.2230
   69CHL1   C21 6264   5.547   6.706   3.435 -0.7073  0.0820 -0.1016
   69CHL1  H21A 6265   5.619   6.743   3.511 -0.5730  2.1251 -1.1693
   69CHL1  H21B 6266   5.613   6.692   3.347  0.5968  2.9643  0.3055
   69CHL1  H21C 6267   5.505   6.606   3.460  0.5468 -0.5699 -0.4826
   69CHL1   C22 6268   5.327   6.795   3.527 -0.5451  0.6647  0.6451
   69CHL1  H22A 6269   5.239   6.862   3.517  0.1962  2.2579  3.6377
   69CHL1  H22B 6270   5.283   6.695   3.549  0.1534  0.5264  1.4856
   69CHL1   C23 6271   5.392   6.851   3.655  0.3773 -0.0930 -0.4284
   69CHL1  H23A 6272   5.462   6.778   3.700 -1.4997 -0.7542  1.5672
   69CHL1  H23B 6273   5.450   6.940   3.623  2.7450 -1.2222  0.4953
   69CHL1   C24 6274   5.292   6.887   3.763  0.8333  0.0136 -0.8583
   69CHL1  H24A 6275   5.213   6.953   3.721  0.8762  0.0189 -0.9328
   69CHL1  H24B 6276   5.239   6.793   3.790  0.3826  0.9106  1.5508
   69CHL1   C25 6277   5.343   6.947   3.889 -0.1613 -0.0945 -0.1051
   69CHL1   H25 6278   5.411   6.879   3.945 -0.3083  0.8354  1.2797
   69CHL1   C26 6279   5.432   7.075   3.864 -0.4959 -0.0129  0.1097
   69CHL1  H26A 6280   5.464   7.115   3.962 -0.0978 -0.0334 -0.0109
   69CHL1  H26B 6281   5.526   7.037   3.818 -1.3604  0.7951 -2.5151
   69CHL1  H26C 6282   5.390   7.160   3.805  1.6870 -0.1292 -1.7569
   69CHL1   C27 6283   5.228   6.981   3.985 -0.1212 -0.4360  0.0755
   69CHL1  H27A 6284   5.158   7.042   3.924  1.0824  1.5943  0.6131
   69CHL1  H27B 6285   5.184   6.886   4.023  0.5776 -0.6786  0.3068
   69CHL1  H27C 6286   5.254   7.048   4.069 -2.5291  3.9292 -2.2774
   70CHL1    C3 6287   1.612   0.692   2.192  0.7918 -0.4916 -0.8622
   70CHL1    H3 6288   1.510   0.674   2.153 -0.2847  0.6730  1.2145
   70CHL1    O3 6289   1.690   0.749   2.094 -0.7240 -0.3745  0.4297
   70CHL1   H3' 6290   1.774   0.772   2.134 -1.4022 -0.1293  1.7621
   70CHL1    C4 6291   1.592   0.793   2.308 -0.2519 -0.6415  0.0965
   70CHL1   H4A 6292   1.697   0.820   2.332 -0.3430 -1.2348  1.2277
   70CHL1   H4B 6293   1.533   0.878   2.267  0.7193 -0.9032 -1.9587
   70CHL1    C5 6294   1.541   0.730   2.439  0.2983 -0.1498 -0.2895
   70CHL1    C6 6295   1.436   0.777   2.503  0.0813 -0.4013 -1.3276
   70CHL1    H6 6296   1.370   0.858   2.467 -1.6889 -0.1782  2.0585
   70CHL1    C7 6297   1.378   0.721   2.632  0.0158 -0.6093  0.8908
   70CHL1   H7A 6298   1.367   0.802   2.707  2.5460 -0.2220  0.9473
   70CHL1   H7B 6299   1.289   0.659   2.609  0.5529 -0.6995 -1.2144
   70CHL1    C8 6300   1.478   0.626   2.704 -0.5512  0.2244  0.1390
   70CHL1    H8 6301   1.567   0.675   2.748 -0.0752 -2.2112  2.0408
   70CHL1   C14 6302   1.406   0.546   2.817  0.3556 -0.0760 -0.3473
   70CHL1   H14 6303   1.322   0.485   2.778 -0.0643 -0.8472  1.6412
   70CHL1   C15 6304   1.332   0.632   2.916  0.1364  0.3191 -0.2955
   70CHL1  H15A 6305   1.372   0.734   2.934 -0.4145  0.1437  2.4646
   70CHL1  H15B 6306   1.232   0.658   2.874 -0.7344  0.1838  1.5749
   70CHL1   C16 6307   1.336   0.548   3.045  0.3995 -1.4205  0.2124
   70CHL1  H16A 6308   1.387   0.588   3.135 -0.1871 -3.3509  1.4507
   70CHL1  H16B 6309   1.229   0.542   3.073  0.1143  1.1994 -0.0493
   70CHL1   C17 6310   1.400   0.415   3.009  0.2873  0.1477  0.2047
   70CHL1   H17 6311   1.322   0.351   2.962  2.1096 -2.0852  0.0670
   70CHL1   C13 6312   1.500   0.458   2.898  0.2956 -0.7928 -0.2653
   70CHL1   C18 6313   1.617   0.539   2.961  0.0757  1.2856  0.2983
   70CHL1  H18A 6314   1.683   0.578   2.880  0.7988 -3.0706 -1.4630
   70CHL1  H18B 6315   1.579   0.618   3.029 -0.8850 -0.4145  1.8249
   70CHL1  H18C 6316   1.685   0.469   3.013  1.3334  0.4213 -2.3166
   70CHL1   C12 6317   1.549   0.351   2.804 -0.1056 -0.0232  0.9904
   70CHL1  H12A 6318   1.622   0.292   2.863  0.6719  0.4208  0.4869
   70CHL1  H12B 6319   1.464   0.282   2.780  1.2467 -2.1069  1.8951
   70CHL1   C11 6320   1.619   0.409   2.680  0.3670  0.7109  0.2224
   70CHL1  H11A 6321   1.719   0.440   2.716  0.5164 -0.5751  0.9483
   70CHL1  H11B 6322   1.644   0.334   2.602  1.3523  2.3655 -1.1097
   70CHL1    C9 6323   1.543   0.524   2.608  0.3819 -0.1725 -0.9997
   70CHL1    H9 6324   1.457   0.471   2.562  0.1974 -1.5382  0.7990
   70CHL1   C10 6325   1.612   0.597   2.490  0.0779  0.0360 -0.4463
   70CHL1   C19 6326   1.748   0.636   2.535  0.2133 -0.0797  0.0762
   70CHL1  H19A 6327   1.753   0.708   2.619  3.3213  0.5269 -0.4859
   70CHL1  H19B 6328   1.802   0.543   2.562  0.3008 -0.2828 -0.7793
   70CHL1  H19C 6329   1.803   0.678   2.448 -0.9822  1.9565  0.2334
   70CHL1    C1 6330   1.614   0.506   2.369  0.1867  0.4525  0.1836
   70CHL1   H1A 6331   1.685   0.427   2.402  0.3875  0.5096 -0.1053
   70CHL1   H1B 6332   1.512   0.465   2.352 -0.5151  0.6389  3.4058
   70CHL1    C2 6333   1.677   0.562   2.237  0.2382 -1.3978  0.2628
   70CHL1   H2A 6334   1.666   0.481   2.162  0.1051 -2.1208  1.0504
   70CHL1   H2B 6335   1.783   0.590   2.249 -0.2247  0.6857 -0.0597
   70CHL1   C20 6336   1.448   0.337   3.131  0.1824  0.4533  0.0741
   70CHL1   H20 6337   1.545   0.384   3.157  0.0601  1.5341 -1.2653
   70CHL1   C21 6338   1.464   0.192   3.083  0.6248  0.2363  0.4978
   70CHL1  H21A 6339   1.479   0.183   2.973  0.6635 -0.0619  0.5281
   70CHL1  H21B 6340   1.361   0.154   3.095 -0.0414  1.8228  0.0921
   70CHL1  H21C 6341   1.539   0.132   3.139 -1.3999 -2.5065  0.4432
   70CHL1   C22 6342   1.364   0.349   3.261 -0.3976 -0.3090 -0.4763
   70CHL1  H22A 6343   1.312   0.445   3.281  1.2925 -0.0229  3.7738
   70CHL1  H22B 6344   1.277   0.280   3.263 -1.5180  1.0632 -0.4860
   70CHL1   C23 6345   1.456   0.318   3.383  1.1702  0.1769  0.4099
   70CHL1  H23A 6346   1.504   0.218   3.368 -1.5101 -1.2962  1.0279
   70CHL1  H23B 6347   1.534   0.397   3.387  1.2038  0.1857 -0.3452
   70CHL1   C24 6348   1.375   0.314   3.517  0.0648  0.2918  0.0487
   70CHL1  H24A 6349   1.377   0.420   3.552  0.0932  0.2157  0.2794
   70CHL1  H24B 6350   1.275   0.273   3.490 -0.0041  1.3425 -1.4399
   70CHL1   C25 6351   1.443   0.227   3.624  0.3644 -0.0719 -0.3135
   70CHL1   H25 6352   1.463   0.125   3.588  0.4791  0.0097 -0.4798
   70CHL1   C26 6353   1.568   0.291   3.681 -0.3845 -0.3427  0.4310
   70CHL1  H26A 6354   1.549   0.399   3.701 -0.8955 -0.2681 -0.4041
   70CHL1  H26B 6355   1.592   0.243   3.778 -0.8020 -0.4328  0.4924
   70CHL1  H26C 6356   1.652   0.272   3.611  0.9303 -0.8897  2.0830
   70CHL1   C27 6357   1.339   0.190   3.732  0.4003 -0.0482 -0.6579
   70CHL1  H27A 6358   1.395   0.142   3.816  0.2344  2.9055  1.3000
   70CHL1  H27B 6359   1.282   0.276   3.771 -2.1822 -1.8692 -0.1680
   70CHL1  H27C 6360   1.261   0.123   3.690  0.6946  0.4917 -2.1064
   71CHL1    C3 6361   6.780   1.552   2.159  0.4322 -0.0232  0.5013
   71CHL1    H3 6362   6.869   1.486   2.153 -0.3870 -1.0715 -1.1406
   71CHL1    O3 6363   6.713   1.535   2.033 -0.4650 -0.3721  0.5597
   71CHL1   H3' 6364   6.762   1.471   1.982 -0.4379  0.6106 -0.6819
   71CHL1    C4 6365   6.684   1.516   2.269  0.7905  0.7435 -0.7104
   71CHL1   H4A 6366   6.588   1.571   2.260  0.9353  0.8210 -1.8809
   71CHL1   H4B 6367   6.654   1.410   2.259 -0.8705  0.8028  2.3354
   71CHL1    C5 6368   6.747   1.540   2.409 -0.5066  0.3585  0.1686
   71CHL1    C6 6369   6.754   1.444   2.505 -0.1668 -0.1010 -0.0524
   71CHL1    H6 6370   6.717   1.342   2.488  0.8442 -0.1668 -2.1281
   71CHL1    C7 6371   6.814   1.469   2.642  0.3927  0.0840  0.5045
   71CHL1   H7A 6372   6.751   1.425   2.722 -0.6575  0.8200  0.1026
   71CHL1   H7B 6373   6.912   1.416   2.643  0.2381 -0.3430 -1.6085
   71CHL1    C8 6374   6.824   1.622   2.673 -0.0496 -0.0255 -0.0849
   71CHL1    H8 6375   6.721   1.660   2.691 -1.2486 -1.5964 -2.9283
   71CHL1   C14 6376   6.909   1.642   2.791 -0.2593  0.3235 -0.2919
   71CHL1   H14 6377   7.006   1.612   2.745 -1.8229 -1.1284 -2.9439
   71CHL1   C15 6378   6.878   1.551   2.904 -0.2183  0.0174 -0.3144
   71CHL1  H15A 6379   6.771   1.522   2.919  0.2264 -0.8190  1.5446
   71CHL1  H15B 6380   6.945   1.462   2.899 -0.8677 -0.6498  1.6822
   71CHL1   C16 6381   6.925   1.634   3.024  0.3510  0.6153  0.3360
   71CHL1  H16A 6382   6.837   1.661   3.085 -0.0267 -2.0829  1.1544
   71CHL1  H16B 6383   6.994   1.570   3.084 -1.2905  0.0122  1.6294
   71CHL1   C17 6384   6.999   1.765   2.973 -0.7887 -0.3845  0.0113
   71CHL1   H17 6385   7.102   1.728   2.954 -0.7232 -0.7101  0.9213
   71CHL1   C13 6386   6.928   1.784   2.842 -0.3548  0.0398 -0.2400
   71CHL1   C18 6387   6.788   1.845   2.874 -1.3032  0.2568 -0.2794
   71CHL1  H18A 6388   6.734   1.859   2.779  1.8146 -0.6608 -2.3355
   71CHL1  H18B 6389   6.742   1.779   2.950  1.9910 -0.3088  1.4035
   71CHL1  H18C 6390   6.789   1.944   2.926 -1.3337  0.3394 -0.4341
   71CHL1   C12 6391   7.007   1.856   2.728  0.3317  0.3704 -0.6874
   71CHL1  H12A 6392   7.039   1.959   2.756 -3.5938  1.4391  0.6073
   71CHL1  H12B 6393   7.104   1.803   2.732  0.2296  0.2558  2.2433
   71CHL1   C11 6394   6.929   1.849   2.593 -0.0818 -0.1126 -0.0128
   71CHL1  H11A 6395   6.839   1.914   2.607 -0.7087 -1.4709  3.1502
   71CHL1  H11B 6396   6.983   1.893   2.507  1.0409 -0.0083  0.7354
   71CHL1    C9 6397   6.887   1.703   2.555 -0.0669 -0.0676 -0.0136
   71CHL1    H9 6398   6.986   1.656   2.538  0.0529  0.0203  0.4260
   71CHL1   C10 6399   6.807   1.686   2.421 -0.5906 -0.2403 -0.3793
   71CHL1   C19 6400   6.677   1.783   2.422 -0.2469  0.0127 -0.6412
   71CHL1  H19A 6401   6.613   1.760   2.510  1.6064  1.6239  1.2599
   71CHL1  H19B 6402   6.705   1.890   2.438 -1.8268  0.5954 -1.6277
   71CHL1  H19C 6403   6.622   1.772   2.327 -2.9259  0.1330  0.7960
   71CHL1    C1 6404   6.900   1.715   2.308  0.2284  0.0631  0.1248
   71CHL1   H1A 6405   6.933   1.820   2.303 -0.8203  0.3415 -1.6318
   71CHL1   H1B 6406   6.989   1.648   2.306  0.3815  0.2652  0.2147
   71CHL1    C2 6407   6.837   1.697   2.169 -0.5070  0.2213  0.0260
   71CHL1   H2A 6408   6.918   1.704   2.093  0.3304  0.4172  0.9195
   71CHL1   H2B 6409   6.760   1.773   2.142 -0.8618 -0.1795 -0.1105
   71CHL1   C20 6410   6.996   1.877   3.077  0.3218 -0.0390 -1.1809
   71CHL1   H20 6411   6.895   1.917   3.099  0.8793  0.7416  0.1357
   71CHL1   C21 6412   7.087   1.994   3.032 -0.4118  0.2739  0.4061
   71CHL1  H21A 6413   7.043   2.057   2.953  1.6927 -0.0876 -1.1428
   71CHL1  H21B 6414   7.185   1.958   2.995 -1.2767 -0.7188 -1.0220
   71CHL1  H21C 6415   7.085   2.066   3.117  0.1687 -1.5346  2.0373
   71CHL1   C22 6416   7.043   1.828   3.224 -0.9274 -0.7086 -0.9892
   71CHL1  H22A 6417   6.977   1.745   3.253 -4.1480  2.1480  0.5390
   71CHL1  H22B 6418   7.144   1.782   3.217 -0.2811  0.0586  1.8327
   71CHL1   C23 6419   7.030   1.932   3.337 -0.2249  0.4720 -0.2436
   71CHL1  H23A 6420   7.128   1.981   3.357  0.9703 -1.3083 -1.3987
   71CHL1  H23B 6421   6.955   2.009   3.307  0.7859  2.2491  1.5346
   71CHL1   C24 6422   6.999   1.860   3.472  0.1356 -0.0264  0.1540
   71CHL1  H24A 6423   6.928   1.776   3.455 -1.1334  0.5445  2.2895
   71CHL1  H24B 6424   7.092   1.812   3.509 -0.1238 -0.8289 -0.2066
   71CHL1   C25 6425   6.954   1.954   3.589  0.0566  0.1833  0.1308
   71CHL1   H25 6426   6.862   2.006   3.555  0.1967  1.8224  2.0157
   71CHL1   C26 6427   6.905   1.868   3.719  0.2321 -0.2140  0.0341
   71CHL1  H26A 6428   6.880   1.942   3.798  0.8771 -1.8275  1.7960
   71CHL1  H26B 6429   6.820   1.800   3.695  0.9175 -1.3234  0.7294
   71CHL1  H26C 6430   6.987   1.801   3.752  1.7721  0.4872 -2.1512
   71CHL1   C27 6431   7.061   2.065   3.632  0.0926  0.4457  0.0827
   71CHL1  H27A 6432   7.080   2.133   3.546  1.1934  1.0664  0.7861
   71CHL1  H27B 6433   7.014   2.126   3.712 -0.5415 -1.6369  1.3782
   71CHL1  H27C 6434   7.153   2.009   3.661 -1.2665 -1.2336  1.4226
   72CHL1    C3 6435   6.017   6.337   2.614  0.3781  0.0142 -0.1389
   72CHL1    H3 6436   6.126   6.361   2.619  1.0495 -1.6491 -3.8231
   72CHL1    O3 6437   5.978   6.308   2.477 -0.1184  0.2723 -0.1644
   72CHL1   H3' 6438   5.884   6.288   2.484  0.0212 -0.0933  0.8327
   72CHL1    C4 6439   5.999   6.199   2.681  0.0382  0.6949  0.6565
   72CHL1   H4A 6440   5.897   6.160   2.659  1.2157 -1.9222 -0.4722
   72CHL1   H4B 6441   6.074   6.134   2.632 -0.8378  0.1561 -0.0008
   72CHL1    C5 6442   6.018   6.209   2.829 -0.3084  0.3472  0.3636
   72CHL1    C6 6443   6.105   6.123   2.887  0.2265  0.0908  0.0970
   72CHL1    H6 6444   6.149   6.045   2.824  1.4744  1.1479 -0.3722
   72CHL1    C7 6445   6.127   6.126   3.037 -0.0464 -0.5513 -0.6396
   72CHL1   H7A 6446   6.136   6.021   3.074  1.2326 -1.0182 -2.1798
   72CHL1   H7B 6447   6.226   6.171   3.059 -0.7934  0.4708  0.7632
   72CHL1    C8 6448   6.011   6.204   3.114 -0.1194  0.4765 -0.1427
   72CHL1    H8 6449   5.919   6.142   3.113 -0.1215  0.3536  2.4366
   72CHL1   C14 6450   6.044   6.225   3.253  0.2469 -0.4978  0.2938
   72CHL1   H14 6451   6.134   6.290   3.257 -0.8341  1.1068 -0.0863
   72CHL1   C15 6452   6.090   6.104   3.346  0.4050  0.5247 -0.1007
   72CHL1  H15A 6453   6.019   6.020   3.331  0.5858  0.3075  0.2535
   72CHL1  H15B 6454   6.194   6.073   3.323 -0.9758 -2.6771 -2.9087
   72CHL1   C16 6455   6.071   6.161   3.485 -0.7071  0.2304 -0.6919
   72CHL1  H16A 6456   5.993   6.103   3.538 -1.3388  0.9622 -0.7967
   72CHL1  H16B 6457   6.160   6.175   3.549 -0.3947 -0.5031 -0.9562
   72CHL1   C17 6458   6.004   6.298   3.470  1.3034 -0.0699 -0.0605
   72CHL1   H17 6459   6.070   6.387   3.471 -1.6942  2.3379 -0.3799
   72CHL1   C13 6460   5.941   6.304   3.330 -0.2381 -0.7685 -0.2118
   72CHL1   C18 6461   5.795   6.241   3.336  0.4460 -0.0958  0.9009
   72CHL1  H18A 6462   5.790   6.136   3.371 -0.7191 -0.4168 -0.1496
   72CHL1  H18B 6463   5.727   6.309   3.393 -0.8822  0.5542 -1.3244
   72CHL1  H18C 6464   5.736   6.237   3.242  0.2519 -1.7274  1.0669
   72CHL1   C12 6465   5.932   6.441   3.268 -0.5792  0.2323  0.0097
   72CHL1  H12A 6466   5.851   6.498   3.317  0.0497  0.4061  0.8942
   72CHL1  H12B 6467   6.029   6.495   3.264 -0.9358  0.7992 -2.7439
   72CHL1   C11 6468   5.891   6.433   3.122  0.0170  0.2286  0.6659
   72CHL1  H11A 6469   5.786   6.396   3.122 -0.0680  0.4508  1.3674
   72CHL1  H11B 6470   5.886   6.536   3.079 -1.2301 -0.7265 -1.7150
   72CHL1    C9 6471   5.980   6.336   3.040 -0.1118 -0.3641 -0.4450
   72CHL1    H9 6472   6.082   6.380   3.036 -0.5607  0.7538  0.1000
   72CHL1   C10 6473   5.940   6.317   2.895 -0.8156  0.3390 -0.8660
   72CHL1   C19 6474   5.790   6.267   2.900  0.2507  0.2393  0.2485
   72CHL1  H19A 6475   5.773   6.188   2.976 -1.3185  0.8147  0.5250
   72CHL1  H19B 6476   5.723   6.353   2.921 -1.0548 -1.0805  1.6857
   72CHL1  H19C 6477   5.764   6.231   2.798  0.6016 -0.9921  0.5799
   72CHL1    C1 6478   5.938   6.456   2.817 -0.0448  0.7265 -0.3863
   72CHL1   H1A 6479   5.859   6.525   2.853  0.4861  1.3920 -0.4714
   72CHL1   H1B 6480   6.036   6.503   2.842  1.0490 -1.9706  0.8227
   72CHL1    C2 6481   5.922   6.442   2.669 -0.0912 -0.4232 -0.4349
   72CHL1   H2A 6482   5.956   6.536   2.620  1.4316 -0.7577 -0.0685
   72CHL1   H2B 6483   5.815   6.418   2.652 -0.6813  1.0563  0.9245
   72CHL1   C20 6484   5.906   6.321   3.592 -0.3331  0.2962 -0.3067
   72CHL1   H20 6485   5.816   6.258   3.583 -0.0123 -0.0838 -1.0059
   72CHL1   C21 6486   5.845   6.466   3.594 -0.4154 -0.0044  0.2435
   72CHL1  H21A 6487   5.769   6.483   3.515 -0.7272 -0.8119  0.3667
   72CHL1  H21B 6488   5.923   6.543   3.575 -0.0333 -0.4377  0.0454
   72CHL1  H21C 6489   5.814   6.496   3.696  1.5574  1.7426  0.4078
   72CHL1   C22 6490   5.978   6.307   3.727  0.5893 -0.4683  0.5013
   72CHL1  H22A 6491   6.053   6.225   3.728  2.6823  1.3545  1.4176
   72CHL1  H22B 6492   6.038   6.397   3.753  0.0778  0.6595 -1.9741
   72CHL1   C23 6493   5.870   6.282   3.829 -0.2974 -0.6126  0.1508
   72CHL1  H23A 6494   5.796   6.364   3.838 -0.5249 -0.9462  1.6490
   72CHL1  H23B 6495   5.817   6.190   3.795  1.5222 -0.9422 -2.0053
   72CHL1   C24 6496   5.942   6.264   3.964  0.3267 -0.1343 -0.2514
   72CHL1  H24A 6497   6.036   6.207   3.950 -0.9097 -2.0759 -1.1287
   72CHL1  H24B 6498   5.959   6.368   3.998 -0.5079  0.3834 -1.3580
   72CHL1   C25 6499   5.858   6.184   4.073 -0.4705  0.1892  0.9025
   72CHL1   H25 6500   5.856   6.085   4.023 -0.8290  1.6664 -2.2673
   72CHL1   C26 6501   5.920   6.160   4.207  0.2711 -0.0550 -0.3952
   72CHL1  H26A 6502   5.862   6.093   4.274  0.4336 -0.9215 -1.0886
   72CHL1  H26B 6503   6.003   6.087   4.191 -0.5958 -1.8762  2.5596
   72CHL1  H26C 6504   5.946   6.247   4.270  0.1026 -1.6684  2.0320
   72CHL1   C27 6505   5.715   6.232   4.089  0.1174  0.7889  0.5083
   72CHL1  H27A 6506   5.655   6.165   4.155 -0.9381  1.2127  0.0031
   72CHL1  H27B 6507   5.720   6.337   4.127 -1.6968  0.7231  1.0207
   72CHL1  H27C 6508   5.661   6.235   3.993 -0.6379 -1.5207  0.7985
   73CHL1    C3 6509   6.941   0.494   2.337  0.1333  0.6770 -0.6486
   73CHL1    H3 6510   6.999   0.399   2.346 -0.5659  0.2749 -0.2882
   73CHL1    O3 6511   6.876   0.500   2.212  0.1127  0.3671  0.3638
   73CHL1   H3' 6512   6.946   0.536   2.157 -1.8897  1.4807 -1.6573
   73CHL1    C4 6513   6.830   0.484   2.451  0.0913 -0.6086 -0.4028
   73CHL1   H4A 6514   6.759   0.569   2.443 -0.2961 -0.8436  0.4069
   73CHL1   H4B 6515   6.762   0.398   2.432 -0.1763 -0.5904  0.4142
   73CHL1    C5 6516   6.890   0.475   2.589  0.1435 -0.1630 -0.3368
   73CHL1    C6 6517   6.859   0.379   2.679 -0.4631 -0.0285  0.6389
   73CHL1    H6 6518   6.781   0.307   2.653 -0.2402 -0.1367  0.2551
   73CHL1    C7 6519   6.904   0.371   2.820 -0.4255  0.3646 -1.1169
   73CHL1   H7A 6520   6.832   0.342   2.900  0.0219  1.7140 -0.1898
   73CHL1   H7B 6521   6.984   0.295   2.830 -1.7983 -0.8543  1.9656
   73CHL1    C8 6522   6.963   0.503   2.865 -0.1066 -1.1160  0.4356
   73CHL1    H8 6523   6.876   0.568   2.884  1.2513 -0.2289  5.0217
   73CHL1   C14 6524   7.043   0.486   2.997  1.0270  0.0142  0.2338
   73CHL1   H14 6525   7.123   0.416   2.966  2.4650  1.6639  0.0240
   73CHL1   C15 6526   6.969   0.417   3.115 -0.3724  0.2666 -0.5501
   73CHL1  H15A 6527   6.866   0.454   3.133 -1.1603 -0.2645 -3.3757
   73CHL1  H15B 6528   6.973   0.309   3.091  0.2693  0.4748 -1.4734
   73CHL1   C16 6529   7.052   0.461   3.242  0.4083  0.7347  0.1733
   73CHL1  H16A 6530   6.987   0.518   3.312  0.7530 -0.1408  1.2488
   73CHL1  H16B 6531   7.089   0.371   3.296 -0.4438  1.1672  1.5228
   73CHL1   C17 6532   7.170   0.550   3.190 -0.1123  0.5545 -0.0783
   73CHL1   H17 6533   7.259   0.493   3.157  0.1932  0.6511  0.5618
   73CHL1   C13 6534   7.114   0.607   3.056 -0.1037 -0.0613  0.0063
   73CHL1   C18 6535   7.008   0.719   3.080 -0.0477 -0.0433 -0.5862
   73CHL1  H18A 6536   6.932   0.687   3.155 -2.5455  1.4186 -2.3422
   73CHL1  H18B 6537   7.065   0.807   3.118 -2.1124  1.4607 -0.7941
   73CHL1  H18C 6538   6.948   0.754   2.994 -0.0818  2.5231  0.3810
   73CHL1   C12 6539   7.205   0.661   2.946  0.0947  0.7669  0.2429
   73CHL1  H12A 6540   7.250   0.758   2.976  4.0898 -0.8305 -0.0302
   73CHL1  H12B 6541   7.299   0.605   2.927  0.3596  1.4073 -0.3493
   73CHL1   C11 6542   7.140   0.680   2.810 -0.6177 -0.3410 -0.3567
   73CHL1  H11A 6543   7.083   0.773   2.829  1.3806  0.7155  0.8723
   73CHL1  H11B 6544   7.213   0.701   2.729 -0.6001 -0.5290 -0.3913
   73CHL1    C9 6545   7.054   0.563   2.756 -0.3296 -0.8306 -0.1446
   73CHL1    H9 6546   7.136   0.489   2.749  1.2868  0.7354  1.2788
   73CHL1   C10 6547   6.994   0.583   2.619  0.1762 -0.4164  0.0427
   73CHL1   C19 6548   6.913   0.719   2.608  0.2149  0.7848  0.3304
   73CHL1  H19A 6549   6.828   0.720   2.680 -3.1905 -3.2843 -3.0691
   73CHL1  H19B 6550   6.981   0.804   2.626  0.4045  0.9323 -1.0017
   73CHL1  H19C 6551   6.860   0.741   2.513 -0.8463  1.9876  1.1646
   73CHL1    C1 6552   7.104   0.585   2.506 -0.4458 -0.7653  0.0910
   73CHL1   H1A 6553   7.156   0.682   2.523 -2.4978  0.6306 -1.0795
   73CHL1   H1B 6554   7.182   0.508   2.525  0.4772  0.7129  2.9134
   73CHL1    C2 6555   7.048   0.603   2.363 -0.2927  0.5189  0.3140
   73CHL1   H2A 6556   7.125   0.588   2.284 -1.7489  1.6823 -1.4018
   73CHL1   H2B 6557   7.007   0.706   2.366 -0.4333  0.4621  2.9696
   73CHL1   C20 6558   7.222   0.646   3.301  0.2606  0.2108  0.6964
   73CHL1   H20 6559   7.145   0.722   3.325  1.7009  1.3202  2.0369
   73CHL1   C21 6560   7.355   0.704   3.241  0.7273 -0.7098 -1.0754
   73CHL1  H21A 6561   7.412   0.768   3.311 -3.0574  1.1930  0.5684
   73CHL1  H21B 6562   7.330   0.775   3.159 -3.5460 -1.9984 -1.1267
   73CHL1  H21C 6563   7.417   0.622   3.199  0.8858 -0.8066 -0.6575
   73CHL1   C22 6564   7.230   0.574   3.441  0.4862  0.0681  0.1976
   73CHL1  H22A 6565   7.135   0.531   3.479  2.4347 -1.4817  3.7552
   73CHL1  H22B 6566   7.302   0.490   3.436 -1.1777 -1.3621 -0.9756
   73CHL1   C23 6567   7.278   0.675   3.548  0.7259  0.5092  0.0101
   73CHL1  H23A 6568   7.262   0.616   3.640 -0.5443 -0.0464 -0.5517
   73CHL1  H23B 6569   7.388   0.683   3.533  1.1027 -1.7497  1.1846
   73CHL1   C24 6570   7.196   0.804   3.572 -0.1771  0.0788  0.1056
   73CHL1  H24A 6571   7.240   0.844   3.666  2.5470 -0.9485 -0.6336
   73CHL1  H24B 6572   7.221   0.866   3.484  0.8205  1.0146  1.0245
   73CHL1   C25 6573   7.045   0.783   3.587 -0.0342 -0.0742 -0.0563
   73CHL1   H25 6574   7.000   0.710   3.517 -0.0239 -0.0089 -0.1313
   73CHL1   C26 6575   7.005   0.716   3.722  0.0584 -0.0063 -0.0460
   73CHL1  H26A 6576   7.073   0.756   3.800 -1.1143 -1.0599  1.5589
   73CHL1  H26B 6577   6.898   0.721   3.750  1.2613  2.3241  5.4931
   73CHL1  H26C 6578   7.033   0.609   3.727 -1.4205 -0.4013  0.0270
   73CHL1   C27 6579   6.972   0.911   3.570  0.0024 -0.3927 -0.1365
   73CHL1  H27A 6580   6.876   0.896   3.623  1.2867 -2.1726  1.8726
   73CHL1  H27B 6581   7.039   0.989   3.612  1.4975 -2.2192  1.0033
   73CHL1  H27C 6582   6.961   0.927   3.460 -0.8889 -0.0547 -0.0023
   74CHL1    C3 6583   1.408   0.171   1.988  0.2791  1.0835 -0.3460
   74CHL1    H3 6584   1.457   0.075   1.960  1.8673  1.8331 -0.2594
   74CHL1    O3 6585   1.398   0.251   1.872 -0.4746 -0.1331 -0.1514
   74CHL1   H3' 6586   1.395   0.200   1.790 -1.0683  0.9318 -0.8101
   74CHL1    C4 6587   1.274   0.139   2.041 -0.2990  0.0003  0.3985
   74CHL1   H4A 6588   1.221   0.230   2.074  1.6945  1.2521  0.2819
   74CHL1   H4B 6589   1.215   0.098   1.956  1.5612 -0.5192 -0.7184
   74CHL1    C5 6590   1.276   0.052   2.168 -0.4745  0.1323 -0.3389
   74CHL1    C6 6591   1.206  -0.061   2.179 -0.2516  0.3535  0.1848
   74CHL1    H6 6592   1.143  -0.096   2.097 -2.9706  1.8896  1.4926
   74CHL1    C7 6593   1.208  -0.146   2.310  0.6326  0.5283  1.8231
   74CHL1   H7A 6594   1.108  -0.181   2.344  0.7792 -1.6372  0.2543
   74CHL1   H7B 6595   1.268  -0.238   2.292  1.5701  1.0108  2.3999
   74CHL1    C8 6596   1.276  -0.079   2.424 -0.8211 -0.4314  0.1920
   74CHL1    H8 6597   1.203  -0.001   2.456 -0.6361  0.9461 -2.4757
   74CHL1   C14 6598   1.306  -0.177   2.540  0.0914 -0.7045 -0.0890
   74CHL1   H14 6599   1.383  -0.246   2.501  1.9632  1.4849 -0.5420
   74CHL1   C15 6600   1.188  -0.258   2.582  0.3736  0.9300  0.0835
   74CHL1  H15A 6601   1.099  -0.192   2.583  0.3880  0.9628  1.8412
   74CHL1  H15B 6602   1.167  -0.351   2.525 -2.1889  0.9552  0.9010
   74CHL1   C16 6603   1.232  -0.306   2.718 -0.4582  0.2666 -0.1097
   74CHL1  H16A 6604   1.168  -0.264   2.798  1.6120  1.1321  1.1897
   74CHL1  H16B 6605   1.235  -0.417   2.715  0.9181  0.2760  0.2947
   74CHL1   C17 6606   1.375  -0.248   2.744 -0.6228 -0.0771 -0.6210
   74CHL1   H17 6607   1.448  -0.318   2.698 -2.6374 -1.4646 -1.8370
   74CHL1   C13 6608   1.365  -0.112   2.662 -0.8825  0.5370 -0.1577
   74CHL1   C18 6609   1.277  -0.007   2.740  0.0087  0.6142  0.4647
   74CHL1  H18A 6610   1.335   0.039   2.822  0.8597  0.9635 -0.3101
   74CHL1  H18B 6611   1.248   0.071   2.666 -1.3933 -0.5020 -0.2203
   74CHL1  H18C 6612   1.186  -0.056   2.781  0.5665 -1.3437 -0.5151
   74CHL1   C12 6613   1.498  -0.050   2.618 -0.0092 -0.1948  0.0164
   74CHL1  H12A 6614   1.544  -0.001   2.706 -3.6420  1.1159  1.3815
   74CHL1  H12B 6615   1.571  -0.119   2.570 -1.2682 -0.2529 -1.9169
   74CHL1   C11 6616   1.477   0.063   2.507  0.5147  0.4655 -0.0322
   74CHL1  H11A 6617   1.409   0.137   2.555 -0.3761 -1.1472  1.2892
   74CHL1  H11B 6618   1.580   0.100   2.487  0.3838  0.9651  0.1949
   74CHL1    C9 6619   1.405   0.004   2.385  0.8145  0.1164  0.4044
   74CHL1    H9 6620   1.470  -0.069   2.333 -0.0675 -0.8153  0.5800
   74CHL1   C10 6621   1.366   0.108   2.276  0.0264  0.5448  0.4882
   74CHL1   C19 6622   1.306   0.240   2.338 -0.1396  0.3831  0.2190
   74CHL1  H19A 6623   1.212   0.211   2.390 -0.3217  0.7808  0.1170
   74CHL1  H19B 6624   1.374   0.283   2.416  0.0871 -0.6999  0.6313
   74CHL1  H19C 6625   1.280   0.321   2.267 -0.7612 -0.9017 -1.0607
   74CHL1    C1 6626   1.508   0.152   2.211 -0.5005 -0.1010  0.1347
   74CHL1   H1A 6627   1.574   0.204   2.284 -0.5746 -1.6120  1.3332
   74CHL1   H1B 6628   1.557   0.053   2.197  0.0672  0.1506  0.3053
   74CHL1    C2 6629   1.503   0.242   2.084 -0.4216 -0.7198  0.6136
   74CHL1   H2A 6630   1.605   0.254   2.043 -0.2867 -1.6519  0.6525
   74CHL1   H2B 6631   1.463   0.342   2.110 -1.4234  0.0482 -3.2579
   74CHL1   C20 6632   1.406  -0.245   2.897  0.1851  0.2723  0.0125
   74CHL1   H20 6633   1.376  -0.147   2.941 -0.8658  0.5833 -1.3109
   74CHL1   C21 6634   1.562  -0.246   2.905 -0.4964 -0.2181  0.6209
   74CHL1  H21A 6635   1.604  -0.339   2.860 -2.5435 -0.9719  0.1963
   74CHL1  H21B 6636   1.598  -0.211   3.005 -2.7244 -2.1519  2.2020
   74CHL1  H21C 6637   1.610  -0.178   2.832 -0.1383 -1.5271 -0.4007
   74CHL1   C22 6638   1.351  -0.354   2.990 -0.7089  0.8368 -0.8326
   74CHL1  H22A 6639   1.241  -0.347   3.003 -0.9122 -0.8712 -1.4352
   74CHL1  H22B 6640   1.370  -0.452   2.942 -0.5985  1.0628 -1.2494
   74CHL1   C23 6641   1.426  -0.361   3.130  0.3616  0.1861  0.4835
   74CHL1  H23A 6642   1.379  -0.440   3.193 -1.0703  0.7386  0.1560
   74CHL1  H23B 6643   1.528  -0.400   3.115 -0.0646 -1.1962  1.0018
   74CHL1   C24 6644   1.422  -0.222   3.200 -0.5109 -0.2109  0.3144
   74CHL1  H24A 6645   1.496  -0.153   3.153  1.0333 -1.4825  0.8115
   74CHL1  H24B 6646   1.321  -0.178   3.187 -1.4061 -2.2777 -0.0594
   74CHL1   C25 6647   1.458  -0.240   3.349 -0.1392 -0.5321  0.8136
   74CHL1   H25 6648   1.397  -0.317   3.400 -0.8912  0.0586  0.8326
   74CHL1   C26 6649   1.603  -0.295   3.369  0.7242  0.1474  0.6428
   74CHL1  H26A 6650   1.673  -0.208   3.361  1.4417 -0.4964 -0.5001
   74CHL1  H26B 6651   1.600  -0.342   3.469 -0.4325  0.8351  0.9484
   74CHL1  H26C 6652   1.633  -0.369   3.291  2.1091  0.9866  0.3425
   74CHL1   C27 6653   1.429  -0.103   3.423 -0.1647  1.3416 -0.3034
   74CHL1  H27A 6654   1.493  -0.022   3.381 -0.8226  1.3248 -1.3612
   74CHL1  H27B 6655   1.321  -0.081   3.408 -0.7647 -0.9079  0.4826
   74CHL1  H27C 6656   1.459  -0.122   3.528 -0.9272 -0.1805 -0.3387
   75CHL1    C3 6657   0.718   0.114   2.283 -0.0836 -0.2236 -0.4324
   75CHL1    H3 6658   0.728   0.007   2.251  2.2727  0.0643 -0.8492
   75CHL1    O3 6659   0.712   0.185   2.160 -0.3309 -0.0387  0.2110
   75CHL1   H3' 6660   0.640   0.131   2.126 -2.8271  2.1549  1.6677
   75CHL1    C4 6661   0.600   0.140   2.369  0.7096 -0.1315  1.0352
   75CHL1   H4A 6662   0.594   0.246   2.400 -1.2494 -0.0463  0.5340
   75CHL1   H4B 6663   0.503   0.123   2.316  0.3718  1.0910  1.2394
   75CHL1    C5 6664   0.609   0.058   2.495 -0.0281 -0.1086  0.2543
   75CHL1    C6 6665   0.520  -0.035   2.527  0.2527  0.5151 -0.4575
   75CHL1    H6 6666   0.435  -0.046   2.458 -0.6895  3.3462  0.1074
   75CHL1    C7 6667   0.508  -0.116   2.657  0.6916  0.0008 -1.0965
   75CHL1   H7A 6668   0.414  -0.091   2.710 -0.2367 -0.3443 -2.5235
   75CHL1   H7B 6669   0.515  -0.227   2.644 -0.3832 -0.2155 -0.0149
   75CHL1    C8 6670   0.616  -0.069   2.750  0.1635  0.3659  0.7505
   75CHL1    H8 6671   0.576   0.016   2.809 -1.1964 -0.5862  1.2462
   75CHL1   C14 6672   0.650  -0.180   2.857 -0.5093 -0.0142 -0.5520
   75CHL1   H14 6673   0.683  -0.271   2.803 -1.6947 -0.0821 -1.1994
   75CHL1   C15 6674   0.533  -0.224   2.943 -0.0095  0.9298  0.2372
   75CHL1  H15A 6675   0.477  -0.136   2.979 -1.8200 -0.5288  1.1821
   75CHL1  H15B 6676   0.460  -0.286   2.887 -1.3858  2.9160 -0.2593
   75CHL1   C16 6677   0.605  -0.300   3.056 -0.2356 -0.7090  0.0922
   75CHL1  H16A 6678   0.561  -0.259   3.150 -1.5817  2.4844 -1.7570
   75CHL1  H16B 6679   0.587  -0.409   3.048 -1.7004 -0.4277 -0.7239
   75CHL1   C17 6680   0.761  -0.273   3.042  0.0550  0.3966 -0.5324
   75CHL1   H17 6681   0.801  -0.364   2.993  0.0013 -0.0707  0.2669
   75CHL1   C13 6682   0.772  -0.148   2.952 -0.1529 -0.3570 -0.8546
   75CHL1   C18 6683   0.739  -0.024   3.036  0.6419 -0.1216 -0.3598
   75CHL1  H18A 6684   0.824  -0.006   3.105  0.0334 -0.6322  0.5486
   75CHL1  H18B 6685   0.719   0.066   2.974 -0.1858  0.0089  0.0780
   75CHL1  H18C 6686   0.651  -0.036   3.103 -1.0273  0.8885 -2.2677
   75CHL1   C12 6687   0.889  -0.143   2.852  0.3761  0.6426 -0.4184
   75CHL1  H12A 6688   0.983  -0.134   2.910 -0.8662 -0.0015  1.7990
   75CHL1  H12B 6689   0.904  -0.237   2.794  2.9797  1.8270 -1.8446
   75CHL1   C11 6690   0.876  -0.026   2.757  0.1007 -0.4724  0.9191
   75CHL1  H11A 6691   0.881   0.063   2.824  0.8437 -0.4706  0.8741
   75CHL1  H11B 6692   0.968  -0.013   2.695 -0.7593 -1.0734 -0.5230
   75CHL1    C9 6693   0.745  -0.038   2.672 -0.0125 -0.1111 -0.4243
   75CHL1    H9 6694   0.768  -0.126   2.609  0.3862  0.2727 -0.8274
   75CHL1   C10 6695   0.736   0.077   2.571 -0.4479  0.6086  0.0063
   75CHL1   C19 6696   0.730   0.214   2.640 -0.1848  0.4109  0.5046
   75CHL1  H19A 6697   0.716   0.308   2.582 -2.4961  0.7064  1.4331
   75CHL1  H19B 6698   0.643   0.206   2.709 -1.8108 -0.9480 -1.5830
   75CHL1  H19C 6699   0.823   0.237   2.697 -0.8230  1.3745  1.1770
   75CHL1    C1 6700   0.860   0.068   2.480 -0.0035  0.1378  0.4686
   75CHL1   H1A 6701   0.950   0.102   2.535  1.1165 -1.1114 -0.5271
   75CHL1   H1B 6702   0.894  -0.033   2.449  0.7333  0.4375  0.2776
   75CHL1    C2 6703   0.848   0.152   2.353 -0.0896  0.2169 -0.4203
   75CHL1   H2A 6704   0.935   0.130   2.288 -0.7481 -0.7372 -1.0117
   75CHL1   H2B 6705   0.844   0.259   2.383  0.8924 -0.2478  1.5425
   75CHL1   C20 6706   0.835  -0.268   3.173  0.4427  0.5591 -0.3895
   75CHL1   H20 6707   0.788  -0.195   3.243 -0.9408 -0.6475  0.0005
   75CHL1   C21 6708   0.983  -0.230   3.165  0.0169 -0.0723 -0.1539
   75CHL1  H21A 6709   1.038  -0.240   3.261  2.2790 -0.4653 -1.4234
   75CHL1  H21B 6710   0.990  -0.125   3.128 -1.1166  0.1533  0.2044
   75CHL1  H21C 6711   1.036  -0.299   3.096  0.9572 -1.1851  1.6167
   75CHL1   C22 6712   0.833  -0.398   3.254  0.1532  0.3177 -0.4309
   75CHL1  H22A 6713   0.738  -0.454   3.240 -0.4104  1.2546 -0.4660
   75CHL1  H22B 6714   0.917  -0.463   3.221 -1.2757 -1.5507 -0.5837
   75CHL1   C23 6715   0.859  -0.371   3.406 -0.1535  0.4567  0.0866
   75CHL1  H23A 6716   0.961  -0.336   3.431  0.0099 -0.0978  0.2182
   75CHL1  H23B 6717   0.790  -0.292   3.444 -1.8146 -0.8627 -0.0218
   75CHL1   C24 6718   0.827  -0.488   3.493  0.9049  0.1633  0.6878
   75CHL1  H24A 6719   0.837  -0.447   3.596 -0.1408  0.2102  0.7779
   75CHL1  H24B 6720   0.723  -0.520   3.473  1.0686 -1.3992  2.1240
   75CHL1   C25 6721   0.910  -0.617   3.478 -0.1254  0.5252  0.3816
   75CHL1   H25 6722   0.907  -0.649   3.372  1.0935  1.1748  0.1288
   75CHL1   C26 6723   1.066  -0.597   3.509 -0.0613 -0.1676 -0.1144
   75CHL1  H26A 6724   1.109  -0.698   3.493 -0.1762 -0.0107 -1.5679
   75CHL1  H26B 6725   1.124  -0.525   3.447 -1.4384  1.5434  0.4966
   75CHL1  H26C 6726   1.060  -0.569   3.616  0.6478 -1.9642  0.4255
   75CHL1   C27 6727   0.864  -0.735   3.556 -0.0519  0.4778 -0.1848
   75CHL1  H27A 6728   0.915  -0.829   3.526 -1.7105 -0.5852  0.1984
   75CHL1  H27B 6729   0.877  -0.717   3.665  0.6213  1.6809 -0.4477
   75CHL1  H27C 6730   0.757  -0.758   3.538  0.3171 -1.4438 -0.1543
   76CHL1    C3 6731   0.190   6.828   2.362  0.0687  0.4216  0.0011
   76CHL1    H3 6732   0.300   6.832   2.370  0.1100 -1.3742  0.8410
   76CHL1    O3 6733   0.156   6.864   2.229 -0.2623 -0.3573 -0.6132
   76CHL1   H3' 6734   0.061   6.859   2.218 -0.2359 -1.0184 -0.5255
   76CHL1    C4 6735   0.138   6.690   2.394 -0.1491 -0.1636  0.6410
   76CHL1   H4A 6736   0.027   6.686   2.383 -0.0763  1.9438 -1.7825
   76CHL1   H4B 6737   0.176   6.618   2.319  2.6979  1.4667  0.3972
   76CHL1    C5 6738   0.165   6.645   2.541  0.0141 -0.9505  0.3111
   76CHL1    C6 6739   0.234   6.536   2.569 -0.1759 -0.6742  0.3554
   76CHL1    H6 6740   0.281   6.480   2.487 -0.1571  0.1449 -0.2109
   76CHL1    C7 6741   0.260   6.494   2.706  0.5600  0.5097  1.0025
   76CHL1   H7A 6742   0.231   6.387   2.693 -1.0961  1.3099 -3.6003
   76CHL1   H7B 6743   0.370   6.499   2.726  1.5791 -0.3458 -3.2636
   76CHL1    C8 6744   0.182   6.556   2.813 -0.5905 -0.9721 -0.2991
   76CHL1    H8 6745   0.076   6.524   2.804 -0.1936 -2.5883  0.4708
   76CHL1   C14 6746   0.241   6.527   2.949 -0.3136 -0.2787  0.7066
   76CHL1   H14 6747   0.346   6.564   2.942 -0.9400  1.4345 -0.0327
   76CHL1   C15 6748   0.243   6.378   2.993 -0.0746  0.4500 -0.7411
   76CHL1  H15A 6749   0.140   6.340   2.972 -1.5286  2.5828  1.9649
   76CHL1  H15B 6750   0.316   6.307   2.949 -0.9328 -3.2441  3.1427
   76CHL1   C16 6751   0.273   6.396   3.143 -0.0158 -0.0376  0.2004
   76CHL1  H16A 6752   0.183   6.352   3.191 -0.2999  1.0142  0.6396
   76CHL1  H16B 6753   0.367   6.348   3.178 -0.5840  0.2439  2.2465
   76CHL1   C17 6754   0.270   6.553   3.178 -0.1676  0.1696 -0.1051
   76CHL1   H17 6755   0.374   6.588   3.161  0.8602 -1.6729  1.7898
   76CHL1   C13 6756   0.180   6.610   3.065  0.0411  0.5420 -0.2656
   76CHL1   C18 6757   0.031   6.573   3.091  0.1932  0.3917 -0.6356
   76CHL1  H18A 6758  -0.027   6.562   2.996  0.4468 -0.3712 -0.7124
   76CHL1  H18B 6759   0.023   6.473   3.139 -0.2850 -1.3559 -4.0096
   76CHL1  H18C 6760  -0.016   6.648   3.157  2.1769  1.0578  0.0914
   76CHL1   C12 6761   0.196   6.756   3.041 -0.1157  0.2578  0.0775
   76CHL1  H12A 6762   0.148   6.820   3.118  1.8339  0.7608  0.9368
   76CHL1  H12B 6763   0.303   6.784   3.030  0.5506 -1.6812  1.1211
   76CHL1   C11 6764   0.124   6.790   2.908  0.2784 -0.2289  0.2544
   76CHL1  H11A 6765   0.015   6.778   2.925 -0.2302 -0.2876 -2.5456
   76CHL1  H11B 6766   0.139   6.897   2.882 -0.0922 -0.5685 -1.4848
   76CHL1    C9 6767   0.175   6.708   2.789  0.1804 -0.0371 -0.7950
   76CHL1    H9 6768   0.280   6.745   2.781  0.2328  0.0095  0.0385
   76CHL1   C10 6769   0.110   6.743   2.650 -0.1435 -0.1856  0.0837
   76CHL1   C19 6770  -0.046   6.742   2.673 -0.2464  0.8967 -0.0386
   76CHL1  H19A 6771  -0.107   6.753   2.582  0.6090 -0.3266 -0.7886
   76CHL1  H19B 6772  -0.070   6.648   2.727  0.1387  0.8990  0.1464
   76CHL1  H19C 6773  -0.084   6.815   2.748 -0.9054 -0.1436  0.6762
   76CHL1    C1 6774   0.156   6.891   2.608  0.1355  0.3555 -0.3547
   76CHL1   H1A 6775   0.103   6.961   2.676 -1.9351 -1.1957 -0.2740
   76CHL1   H1B 6776   0.263   6.898   2.637 -0.1757  0.0174  0.9276
   76CHL1    C2 6777   0.132   6.929   2.462 -0.8748  0.8623 -0.4085
   76CHL1   H2A 6778   0.157   7.034   2.437  1.0165  1.1205  2.1949
   76CHL1   H2B 6779   0.022   6.926   2.446 -0.6988 -2.2403 -1.6753
   76CHL1   C20 6780   0.242   6.572   3.334  0.5531 -0.4043 -0.0514
   76CHL1   H20 6781   0.137   6.541   3.349 -0.6595  2.9796 -0.6639
   76CHL1   C21 6782   0.268   6.723   3.368 -0.3297 -0.0965  0.0767
   76CHL1  H21A 6783   0.374   6.755   3.359 -0.7725  1.7682  0.9875
   76CHL1  H21B 6784   0.237   6.765   3.466 -0.5597  0.7310 -0.3425
   76CHL1  H21C 6785   0.216   6.793   3.299  0.8831 -1.1497 -1.9989
   76CHL1   C22 6786   0.326   6.481   3.424 -0.0837  0.3997 -0.4738
   76CHL1  H22A 6787   0.334   6.378   3.384 -0.6648 -0.2021  0.9126
   76CHL1  H22B 6788   0.427   6.527   3.412 -0.5902  2.0443  1.0057
   76CHL1   C23 6789   0.278   6.469   3.562 -0.4066 -0.0047 -0.3987
   76CHL1  H23A 6790   0.288   6.568   3.612 -0.6289  0.7801 -1.8401
   76CHL1  H23B 6791   0.171   6.440   3.557 -0.2425 -0.5071 -1.4884
   76CHL1   C24 6792   0.361   6.366   3.650 -0.3177 -0.2012 -0.3196
   76CHL1  H24A 6793   0.373   6.265   3.606 -1.7488 -0.8072  0.5933
   76CHL1  H24B 6794   0.462   6.409   3.664 -0.6666  1.1812 -1.7758
   76CHL1   C25 6795   0.290   6.350   3.792 -0.2823 -0.2431  0.6110
   76CHL1   H25 6796   0.301   6.450   3.840  2.3474 -1.1842  2.2402
   76CHL1   C26 6797   0.131   6.313   3.773 -0.1521  0.0788 -0.1964
   76CHL1  H26A 6798   0.078   6.290   3.868 -1.0338 -0.9883 -0.9268
   76CHL1  H26B 6799   0.082   6.397   3.718 -0.6721  0.4671  0.8371
   76CHL1  H26C 6800   0.118   6.232   3.699 -0.6092  1.7961 -2.0933
   76CHL1   C27 6801   0.360   6.248   3.886  1.2184 -0.0505 -0.3311
   76CHL1  H27A 6802   0.356   6.148   3.837  1.6056  0.0420 -0.5597
   76CHL1  H27B 6803   0.466   6.279   3.902  0.3836  2.7585  0.2704
   76CHL1  H27C 6804   0.314   6.256   3.987 -0.3406  0.8730 -1.0903
   77SOPE     N 6805   3.130   4.299   6.090 -0.1947  0.6572 -0.5581
   77SOPE   HN1 6806   3.048   4.259   6.041 -1.5015  3.1782 -0.6166
   77SOPE   HN2 6807   3.221   4.255   6.064 -0.2360  1.3116 -1.9100
   77SOPE   HN3 6808   3.123   4.273   6.190  1.8641  0.6045 -0.3727
   77SOPE   C12 6809   3.142   4.438   6.047  0.7711 -0.9079  0.8974
   77SOPE  H12A 6810   3.184   4.506   6.124 -0.2880  1.4816 -0.5397
   77SOPE  H12B 6811   3.037   4.473   6.038  1.2319  0.3461  0.1608
   77SOPE   C11 6812   3.211   4.462   5.910 -0.5441 -0.2342  0.4664
   77SOPE  H11A 6813   3.157   4.397   5.837 -0.3170  0.6136 -0.4827
   77SOPE  H11B 6814   3.313   4.418   5.914 -0.3586  0.2751  1.5614
   77SOPE     P 6815   3.324   4.702   5.904  0.4097 -0.3308 -0.3744
   77SOPE   O13 6816   3.348   4.684   6.050 -0.4770  0.1499 -0.0111
   77SOPE   O14 6817   3.286   4.837   5.854 -0.2585  0.9684  0.0495
   77SOPE   O12 6818   3.212   4.596   5.858  0.0104  0.0121 -0.6418
   77SOPE   O11 6819   3.445   4.649   5.821  0.1143  1.1194 -0.0667
   77SOPE    C1 6820   3.509   4.726   5.719 -0.4782 -0.1409  0.0149
   77SOPE    HA 6821   3.619   4.718   5.720 -0.2234  2.1931  2.4076
   77SOPE    HB 6822   3.485   4.834   5.727 -0.5182 -0.2085  1.0049
   77SOPE    C2 6823   3.463   4.673   5.582  0.0309 -0.0441  0.3902
   77SOPE    HS 6824   3.361   4.714   5.564  1.3468  2.2698 -2.7123
   77SOPE   O21 6825   3.472   4.532   5.580  0.3032  0.5816 -0.4564
   77SOPE   C21 6826   3.373   4.473   5.521  0.1481  0.4404 -0.1825
   77SOPE   O22 6827   3.265   4.518   5.488 -0.5126  0.2467 -0.3005
   77SOPE   C22 6828   3.395   4.324   5.517 -0.2558  0.2846 -0.1857
   77SOPE   H2R 6829   3.294   4.279   5.524  0.6644 -2.0471 -1.1431
   77SOPE   H2S 6830   3.456   4.308   5.608  0.9177 -1.8248 -1.2758
   77SOPE    C3 6831   3.556   4.745   5.467  0.5033  1.2915  0.3010
   77SOPE    HX 6832   3.663   4.720   5.480  0.9448  1.3855 -2.5812
   77SOPE    HY 6833   3.552   4.850   5.504  0.7940  0.6731  2.1874
   77SOPE   O31 6834   3.509   4.718   5.336 -0.5655 -0.1007  0.8078
   77SOPE   C31 6835   3.595   4.764   5.239 -0.6037 -0.6510  0.3373
   77SOPE   O32 6836   3.704   4.808   5.270 -0.7229  0.2346 -0.3003
   77SOPE   C32 6837   3.535   4.734   5.094  0.6886 -1.1396 -0.2830
   77SOPE   H2X 6838   3.477   4.820   5.054  2.0157 -0.3752 -0.6337
   77SOPE   H2Y 6839   3.479   4.638   5.091 -0.8939 -0.4130  2.6174
   77SOPE   C23 6840   3.462   4.271   5.384  0.2198 -0.1067 -1.3094
   77SOPE   H3R 6841   3.479   4.167   5.420 -3.4215 -0.5888 -0.5465
   77SOPE   H3S 6842   3.561   4.317   5.366  1.3426 -2.2232 -0.8439
   77SOPE   C24 6843   3.380   4.286   5.256  0.2614  0.1514 -0.4816
   77SOPE   H4R 6844   3.276   4.246   5.254  1.3287 -3.0807  1.1471
   77SOPE   H4S 6845   3.381   4.391   5.219  0.6745  0.4487  0.3318
   77SOPE   C25 6846   3.437   4.188   5.150 -0.2540 -0.1707  0.4103
   77SOPE   H5R 6847   3.546   4.208   5.143 -0.5681  1.2486 -1.4340
   77SOPE   H5S 6848   3.423   4.085   5.189  1.3882 -0.2532  0.8791
   77SOPE   C26 6849   3.370   4.200   5.010  0.3677  0.4624  0.1843
   77SOPE   H6R 6850   3.406   4.109   4.958 -0.4413  0.6479 -0.7136
   77SOPE   H6S 6851   3.259   4.198   5.017  0.4150 -1.9599  1.2167
   77SOPE   C27 6852   3.420   4.325   4.925 -0.0952 -0.2408 -0.2344
   77SOPE   H7R 6853   3.405   4.422   4.976  0.3816  0.8003 -2.0041
   77SOPE   H7S 6854   3.525   4.318   4.891  0.4135  0.4371  1.1378
   77SOPE   C28 6855   3.333   4.338   4.803 -0.5606 -0.5270  0.1402
   77SOPE   H8R 6856   3.322   4.241   4.750 -1.2456 -0.9201  0.9690
   77SOPE   H8S 6857   3.226   4.359   4.828 -0.7853 -2.0127  0.4851
   77SOPE   C29 6858   3.371   4.452   4.713 -0.4476  0.2696 -0.2939
   77SOPE   H91 6859   3.391   4.549   4.761  0.3757 -0.4379  0.8372
   77SOPE  C210 6860   3.369   4.452   4.576 -0.7111  1.0183 -0.1983
   77SOPE  H101 6861   3.413   4.530   4.513  2.2880 -0.4768 -0.1239
   77SOPE  C211 6862   3.308   4.338   4.503 -0.4056  0.6071  0.2545
   77SOPE  H11R 6863   3.206   4.311   4.539 -1.7595  1.0972 -2.8531
   77SOPE  H11S 6864   3.355   4.242   4.531 -0.5055  0.6891  0.7080
   77SOPE  C212 6865   3.315   4.341   4.347  0.7079  0.0575  0.1147
   77SOPE  H12R 6866   3.250   4.427   4.320 -0.8374 -0.9864  0.4020
   77SOPE  H12S 6867   3.270   4.249   4.305  0.7921 -0.3394  0.8830
   77SOPE  C213 6868   3.460   4.368   4.288  0.1304  0.4862 -0.0773
   77SOPE  H13R 6869   3.514   4.272   4.299 -1.3499 -0.4059 -0.2679
   77SOPE  H13S 6870   3.524   4.431   4.353  1.3892  0.2773 -1.0754
   77SOPE  C214 6871   3.453   4.424   4.143  0.6171  0.6002 -0.0062
   77SOPE  H14R 6872   3.555   4.446   4.106  1.3990 -1.8876  0.4345
   77SOPE  H14S 6873   3.392   4.515   4.158 -1.1361 -0.3810 -0.8404
   77SOPE  C215 6874   3.388   4.323   4.044  0.3467 -0.2689 -0.4901
   77SOPE  H15R 6875   3.371   4.360   3.941 -2.7339  0.6659  0.2470
   77SOPE  H15S 6876   3.280   4.312   4.069 -0.2110  2.1628 -1.5550
   77SOPE  C216 6877   3.454   4.182   4.037  0.0848 -0.5957 -0.3495
   77SOPE  H16R 6878   3.420   4.131   4.129 -0.1640 -2.4396 -1.4218
   77SOPE  H16S 6879   3.565   4.182   4.046  0.3152 -3.4800 -1.9471
   77SOPE  C217 6880   3.419   4.107   3.910 -0.5971 -0.7303  0.8709
   77SOPE  H17R 6881   3.308   4.098   3.908 -0.5731 -1.1138  1.1295
   77SOPE  H17S 6882   3.463   4.006   3.920 -0.3923 -0.6291  1.0052
   77SOPE  C218 6883   3.470   4.169   3.779 -0.1567  0.4645 -0.1468
   77SOPE  H18R 6884   3.412   4.261   3.760  1.1266  1.5110  0.8448
   77SOPE  H18S 6885   3.452   4.092   3.700  3.7381 -1.7157  0.8451
   77SOPE  H18T 6886   3.579   4.187   3.769  0.0792  0.9832  2.5195
   77SOPE   C33 6887   3.656   4.713   5.009 -0.8309 -0.3829  0.2737
   77SOPE   H3X 6888   3.730   4.650   5.063  2.0245  0.1380 -2.6570
   77SOPE   H3Y 6889   3.701   4.813   4.992 -2.0203 -0.0721 -1.4011
   77SOPE   C34 6890   3.637   4.643   4.872 -0.8740 -0.4020  0.7279
   77SOPE   H4X 6891   3.573   4.701   4.803  0.7438  0.8072  0.1693
   77SOPE   H4Y 6892   3.590   4.544   4.888  0.3931 -1.7022 -2.7895
   77SOPE   C35 6893   3.765   4.611   4.792 -0.2461 -0.0882 -0.4988
   77SOPE   H5X 6894   3.836   4.564   4.862 -0.2869 -0.9233 -0.9996
   77SOPE   H5Y 6895   3.803   4.704   4.746  0.3926 -0.7581 -1.3588
   77SOPE   C36 6896   3.733   4.513   4.678  0.1253  0.5757 -0.4560
   77SOPE   H6X 6897   3.663   4.564   4.608 -0.4138 -0.6713 -0.8458
   77SOPE   H6Y 6898   3.688   4.417   4.711 -0.2996  1.2653  1.1158
   77SOPE   C37 6899   3.857   4.482   4.597  0.2589 -0.0102  0.2668
   77SOPE   H7X 6900   3.920   4.417   4.662  3.2081  0.3821 -1.9930
   77SOPE   H7Y 6901   3.914   4.575   4.575 -1.4210  0.7781 -0.9126
   77SOPE   C38 6902   3.836   4.413   4.459  0.2169  0.1215  0.5637
   77SOPE   H8X 6903   3.767   4.483   4.406 -0.1333 -0.7013 -0.0804
   77SOPE   H8Y 6904   3.784   4.316   4.474 -0.0441 -0.2463 -2.2283
   77SOPE   C39 6905   3.960   4.388   4.382 -0.2329 -0.2407 -0.5203
   77SOPE   H9X 6906   4.022   4.336   4.459  0.0669 -0.0715 -0.6421
   77SOPE   H9Y 6907   4.010   4.482   4.349  0.4818 -0.6992 -0.7614
   77SOPE  C310 6908   3.944   4.288   4.268 -0.0654  0.2710  0.0942
   77SOPE  H10X 6909   3.886   4.336   4.187 -0.4244 -3.6418 -2.2208
   77SOPE  H10Y 6910   3.899   4.191   4.299 -0.3357 -0.3876 -2.2179
   77SOPE  C311 6911   4.079   4.264   4.198  0.0225  0.0583  0.2280
   77SOPE  H11X 6912   4.119   4.361   4.161  2.7764 -1.3551 -0.7268
   77SOPE  H11Y 6913   4.057   4.202   4.108 -1.4435 -2.2270  2.0304
   77SOPE  C312 6914   4.191   4.196   4.274 -0.4197 -0.4415 -0.3214
   77SOPE  H12X 6915   4.149   4.093   4.281 -0.6845 -0.2715  0.7550
   77SOPE  H12Y 6916   4.215   4.238   4.373  0.5499 -1.2956 -0.1789
   77SOPE  C313 6917   4.331   4.181   4.205 -0.1797 -0.0257  0.2233
   77SOPE  H13X 6918   4.373   4.282   4.191  1.7314 -0.8515 -0.3336
   77SOPE  H13Y 6919   4.317   4.137   4.104  0.6337 -0.4295  0.2721
   77SOPE  C314 6920   4.439   4.107   4.280 -0.0753 -0.2690 -0.4305
   77SOPE  H14X 6921   4.400   4.006   4.306 -0.8226  0.0229 -0.3825
   77SOPE  H14Y 6922   4.467   4.148   4.379  2.1384 -0.6938 -0.8428
   77SOPE  C315 6923   4.573   4.080   4.203 -0.1228  0.8118 -0.1727
   77SOPE  H15X 6924   4.553   4.050   4.098  2.1865  0.9976 -0.7220
   77SOPE  H15Y 6925   4.641   4.014   4.262  0.0839  0.8526 -0.3617
   77SOPE  C316 6926   4.646   4.216   4.183  0.2168  0.5229  0.0138
   77SOPE  H16X 6927   4.666   4.259   4.283  1.2847 -0.5213  0.2719
   77SOPE  H16Y 6928   4.588   4.284   4.117  0.3595  1.4334  0.8118
   77SOPE  C317 6929   4.787   4.192   4.111 -0.8403  0.8313  0.4529
   77SOPE  H17X 6930   4.858   4.150   4.185 -0.0221  0.2804 -0.6286
   77SOPE  H17Y 6931   4.821   4.289   4.069 -0.4564  0.3639 -0.3271
   77SOPE  C318 6932   4.778   4.088   3.998  0.0927 -0.1704  0.6467
   77SOPE  H18X 6933   4.699   4.107   3.923 -0.3602  0.7977  1.3451
   77SOPE  H18Y 6934   4.763   3.984   4.035 -0.9742 -0.7299 -1.2557
   77SOPE  H18Z 6935   4.879   4.094   3.951  0.0528  2.0008  0.7645
   78SOPE     N 6936   2.621   3.947   6.129  0.4165 -0.1743 -0.2895
   78SOPE   HN1 6937   2.609   4.050   6.134  3.9048  0.3442 -0.5725
   78SOPE   HN2 6938   2.722   3.935   6.147  0.5976  1.2731 -0.2554
   78SOPE   HN3 6939   2.577   3.906   6.045 -1.3557 -0.6470  0.8016
   78SOPE   C12 6940   2.541   3.884   6.234 -0.1847 -0.4396  0.8362
   78SOPE  H12A 6941   2.585   3.889   6.336 -0.7754  0.0998  1.0655
   78SOPE  H12B 6942   2.534   3.776   6.208 -0.7099 -0.4027  0.8196
   78SOPE   C11 6943   2.404   3.947   6.236  0.0675 -0.0020  0.2895
   78SOPE  H11A 6944   2.406   4.053   6.267  0.1288  0.4398 -1.1426
   78SOPE  H11B 6945   2.348   3.897   6.317  0.0820 -3.2209 -1.4946
   78SOPE     P 6946   2.199   3.980   6.078  0.1662  0.7133 -0.5177
   78SOPE   O13 6947   2.109   3.946   6.189 -0.2227 -0.8448 -0.1121
   78SOPE   O14 6948   2.164   3.928   5.941  0.1476 -0.8464 -0.5363
   78SOPE   O12 6949   2.346   3.927   6.114 -0.1243  0.3879  0.1055
   78SOPE   O11 6950   2.221   4.126   6.075  0.0334  0.1697 -0.1295
   78SOPE    C1 6951   2.316   4.202   5.990  0.1072  0.4980  0.0800
   78SOPE    HA 6952   2.342   4.150   5.896  1.9835  0.9514  0.3023
   78SOPE    HB 6953   2.409   4.218   6.049 -0.5856 -0.1157  1.3764
   78SOPE    C2 6954   2.259   4.334   5.933  0.1836  0.5017  0.8767
   78SOPE    HS 6955   2.216   4.382   6.024  0.9992 -0.9979  2.0941
   78SOPE   O21 6956   2.160   4.298   5.837 -0.1059 -0.1274  0.7246
   78SOPE   C21 6957   2.073   4.398   5.817 -0.4505 -0.5326 -0.0876
   78SOPE   O22 6958   2.070   4.501   5.883 -0.2195 -0.1451 -0.3410
   78SOPE   C22 6959   1.992   4.371   5.693  0.9425 -0.0611  0.2812
   78SOPE   H2R 6960   1.943   4.273   5.708  2.4428 -1.5446 -3.3240
   78SOPE   H2S 6961   2.054   4.353   5.602  1.3550  1.6863  0.1764
   78SOPE    C3 6962   2.359   4.425   5.869 -0.6509  0.1357 -0.7135
   78SOPE    HX 6963   2.437   4.437   5.947 -0.0406 -1.3987 -1.0491
   78SOPE    HY 6964   2.322   4.528   5.852 -1.5070  0.2976  1.6798
   78SOPE   O31 6965   2.421   4.364   5.755  0.3124 -0.1392 -0.6810
   78SOPE   C31 6966   2.369   4.399   5.636  1.1036  0.0487 -0.1902
   78SOPE   O32 6967   2.274   4.471   5.618  0.0249 -0.5898  0.0970
   78SOPE   C32 6968   2.435   4.324   5.519 -0.1675  0.7918 -0.0837
   78SOPE   H2X 6969   2.435   4.214   5.536  1.3154  0.6681 -0.6443
   78SOPE   H2Y 6970   2.541   4.359   5.515  0.2860 -0.4695  0.4492
   78SOPE   C23 6971   1.885   4.478   5.666  0.6025 -0.5530  0.6238
   78SOPE   H3R 6972   1.927   4.581   5.659  2.9988 -1.4898 -0.0280
   78SOPE   H3S 6973   1.805   4.478   5.742  0.6419 -0.4611  0.6663
   78SOPE   C24 6974   1.815   4.451   5.538  0.1838 -0.5290 -0.7961
   78SOPE   H4R 6975   1.780   4.345   5.541  0.4029 -0.6181 -1.1805
   78SOPE   H4S 6976   1.724   4.513   5.546 -0.1099 -0.8718 -1.3401
   78SOPE   C25 6977   1.881   4.491   5.409 -0.9102 -0.1255  0.3183
   78SOPE   H5R 6978   1.897   4.599   5.428 -2.6266  0.1315  0.4787
   78SOPE   H5S 6979   1.979   4.444   5.386 -0.3253  2.0815 -2.1930
   78SOPE   C26 6980   1.799   4.492   5.278 -0.4411 -0.1366 -0.2177
   78SOPE   H6R 6981   1.742   4.396   5.275  2.3058 -1.9961  1.5963
   78SOPE   H6S 6982   1.723   4.571   5.291  0.2796  0.4376  0.5983
   78SOPE   C27 6983   1.884   4.519   5.150  0.0329  0.1245 -0.3093
   78SOPE   H7R 6984   1.963   4.596   5.156  0.2801  0.0743 -2.3596
   78SOPE   H7S 6985   1.945   4.428   5.132 -2.1901 -0.9861 -3.0704
   78SOPE   C28 6986   1.809   4.545   5.020 -0.0511  0.9584 -0.6623
   78SOPE   H8R 6987   1.770   4.647   5.038 -0.0732  0.6315  1.4450
   78SOPE   H8S 6988   1.876   4.541   4.931  0.2405  0.3415 -0.4262
   78SOPE   C29 6989   1.691   4.448   5.013 -0.6076  0.2673  0.2471
   78SOPE   H91 6990   1.729   4.345   5.010  2.2127  1.2435 -0.5453
   78SOPE  C210 6991   1.560   4.476   5.015 -0.6210 -0.0062  0.9723
   78SOPE  H101 6992   1.502   4.388   4.985  1.9234 -1.8278  1.0264
   78SOPE  C211 6993   1.504   4.619   5.018  0.3631  0.2757 -0.3195
   78SOPE  H11R 6994   1.474   4.648   4.915  3.0095  0.7496 -1.0315
   78SOPE  H11S 6995   1.566   4.701   5.060  0.7598  0.8639 -1.9708
   78SOPE  C212 6996   1.374   4.612   5.114 -0.1921  0.0976 -0.0867
   78SOPE  H12R 6997   1.323   4.514   5.106  2.0438 -1.3479  1.9425
   78SOPE  H12S 6998   1.300   4.690   5.085  0.4415  0.3905 -0.9686
   78SOPE  C213 6999   1.411   4.632   5.260  0.7267 -0.1796  0.2777
   78SOPE  H13R 7000   1.444   4.737   5.277  2.8919 -0.3326 -2.2894
   78SOPE  H13S 7001   1.496   4.565   5.286  0.0204 -0.5120  1.8204
   78SOPE  C214 7002   1.295   4.610   5.367  0.1726  0.0408  0.4433
   78SOPE  H14R 7003   1.198   4.645   5.325  0.4800  0.9054  0.4322
   78SOPE  H14S 7004   1.324   4.665   5.459 -2.5258 -1.1447  2.1398
   78SOPE  C215 7005   1.288   4.456   5.406  0.1082 -0.2953 -0.5934
   78SOPE  H15R 7006   1.315   4.385   5.325  0.8538  0.1895 -0.7748
   78SOPE  H15S 7007   1.188   4.444   5.455 -0.6131  1.3878 -1.5530
   78SOPE  C216 7008   1.392   4.430   5.517  0.5179 -0.4639 -0.0074
   78SOPE  H16R 7009   1.385   4.507   5.596 -0.8037 -0.3270 -0.2357
   78SOPE  H16S 7010   1.491   4.427   5.468 -0.4074 -3.1707 -1.9534
   78SOPE  C217 7011   1.378   4.306   5.591  0.2916  0.1830  0.5113
   78SOPE  H17R 7012   1.396   4.223   5.519  2.2556 -0.0157  1.1711
   78SOPE  H17S 7013   1.278   4.285   5.634  0.0351  1.4647  0.5930
   78SOPE  C218 7014   1.485   4.291   5.701  0.9692 -0.0988  0.0905
   78SOPE  H18R 7015   1.468   4.371   5.776 -0.7786 -1.4272  1.1954
   78SOPE  H18S 7016   1.591   4.300   5.668  0.7535 -0.1910 -0.6279
   78SOPE  H18T 7017   1.475   4.197   5.760  2.9553  0.0929  0.8270
   78SOPE   C33 7018   2.364   4.373   5.390  0.3445  0.1890 -0.1918
   78SOPE   H3X 7019   2.390   4.481   5.384  2.8931 -0.4271 -2.4004
   78SOPE   H3Y 7020   2.255   4.354   5.379  0.0318  1.5918  0.1839
   78SOPE   C34 7021   2.423   4.313   5.263 -0.0613 -0.4100  0.0371
   78SOPE   H4X 7022   2.395   4.206   5.254 -2.2219  0.0917  0.1894
   78SOPE   H4Y 7023   2.534   4.317   5.275  0.4433 -5.1332 -0.9933
   78SOPE   C35 7024   2.375   4.391   5.141 -0.1162 -0.2842 -0.8827
   78SOPE   H5X 7025   2.415   4.495   5.148 -2.9136  0.8138  0.2809
   78SOPE   H5Y 7026   2.266   4.407   5.153  0.0447 -0.7632  2.0431
   78SOPE   C36 7027   2.411   4.333   5.015 -0.2264  0.5969  0.1120
   78SOPE   H6X 7028   2.355   4.238   5.006 -0.2604  0.5653  0.5964
   78SOPE   H6Y 7029   2.521   4.321   5.027 -0.3275  0.1024  0.6110
   78SOPE   C37 7030   2.368   4.422   4.897  0.3867  0.7082 -0.3082
   78SOPE   H7X 7031   2.417   4.521   4.905  1.2388  0.2170  1.1280
   78SOPE   H7Y 7032   2.259   4.443   4.905 -0.2815 -1.8492 -1.6738
   78SOPE   C38 7033   2.418   4.368   4.755 -0.7940 -0.6910 -0.2734
   78SOPE   H8X 7034   2.422   4.257   4.743  0.8418 -0.5651 -1.1913
   78SOPE   H8Y 7035   2.523   4.399   4.738 -1.2140  0.1707 -1.4282
   78SOPE   C39 7036   2.351   4.432   4.632 -0.2654 -0.4540  0.3873
   78SOPE   H9X 7037   2.381   4.538   4.617 -0.2927 -0.4104  0.6370
   78SOPE   H9Y 7038   2.244   4.419   4.658 -0.3567  0.1887  0.3606
   78SOPE  C310 7039   2.394   4.352   4.508 -0.2571  0.0477 -0.8958
   78SOPE  H10X 7040   2.346   4.251   4.509  1.1454 -0.6467  0.7685
   78SOPE  H10Y 7041   2.504   4.347   4.497 -0.2575  1.4025 -1.6583
   78SOPE  C311 7042   2.351   4.404   4.374  0.4328 -0.5164 -0.3398
   78SOPE  H11X 7043   2.395   4.505   4.368  2.9314 -1.5466 -0.6861
   78SOPE  H11Y 7044   2.240   4.407   4.384  0.0894 -2.6181 -2.6430
   78SOPE  C312 7045   2.386   4.305   4.255  0.6318  0.3634 -0.6817
   78SOPE  H12X 7046   2.318   4.325   4.169 -0.0550 -1.7752 -0.6923
   78SOPE  H12Y 7047   2.392   4.198   4.283 -1.2396  0.6113  0.9201
   78SOPE  C313 7048   2.521   4.341   4.206 -0.4174 -0.9495  0.2696
   78SOPE  H13X 7049   2.592   4.309   4.285 -0.7806  0.3152  1.1423
   78SOPE  H13Y 7050   2.536   4.450   4.211 -1.3507 -0.7688 -0.5277
   78SOPE  C314 7051   2.558   4.275   4.071 -0.5367  0.1869  0.0774
   78SOPE  H14X 7052   2.498   4.181   4.072 -1.6793  0.8922 -0.4757
   78SOPE  H14Y 7053   2.664   4.243   4.069 -0.8640 -0.9798 -1.9836
   78SOPE  C315 7054   2.525   4.367   3.951  0.5224 -0.0886  0.7935
   78SOPE  H15X 7055   2.578   4.465   3.939  1.0542 -0.3696  0.8291
   78SOPE  H15Y 7056   2.417   4.390   3.962  0.6874  0.6868  0.8801
   78SOPE  C316 7057   2.540   4.300   3.810  0.0839 -0.1969 -0.5698
   78SOPE  H16X 7058   2.512   4.377   3.735  2.0266  2.0724  0.8856
   78SOPE  H16Y 7059   2.464   4.218   3.809 -0.7494  0.5560 -1.4012
   78SOPE  C317 7060   2.677   4.247   3.788  0.4492 -0.0663 -0.7298
   78SOPE  H17X 7061   2.682   4.146   3.834 -0.8934 -1.0857 -2.6800
   78SOPE  H17Y 7062   2.750   4.314   3.838  1.1728 -0.2843 -1.4682
   78SOPE  C318 7063   2.710   4.235   3.638  0.0670  0.5687 -0.3841
   78SOPE  H18X 7064   2.731   4.336   3.595  0.7261  0.3351 -0.6198
   78SOPE  H18Y 7065   2.633   4.184   3.576 -1.4864  1.2604  0.9055
   78SOPE  H18Z 7066   2.810   4.186   3.632  0.0238  0.4430 -0.0681
   79SOPE     N 7067   4.169   1.171   5.986  0.6935 -0.2237 -0.3005
   79SOPE   HN1 7068   4.097   1.126   5.925  3.6905 -1.5614 -3.2147
   79SOPE   HN2 7069   4.239   1.095   5.999 -1.4612 -2.2819  0.0102
   79SOPE   HN3 7070   4.128   1.185   6.080  0.8620 -1.0042 -0.1076
   79SOPE   C12 7071   4.212   1.292   5.929 -0.3963  0.2520 -0.3951
   79SOPE  H12A 7072   4.272   1.266   5.839 -0.5706  1.3272 -0.8393
   79SOPE  H12B 7073   4.269   1.348   6.005  0.3594 -1.1912  0.1386
   79SOPE   C11 7074   4.090   1.383   5.885  0.2737  0.3722 -0.1013
   79SOPE  H11A 7075   4.023   1.321   5.822  1.8739 -0.4357 -1.0674
   79SOPE  H11B 7076   4.131   1.461   5.818 -1.2159  2.4527  1.2962
   79SOPE     P 7077   4.087   1.573   6.065  0.0009 -0.1225  0.1484
   79SOPE   O13 7078   4.238   1.581   6.063  0.0370 -0.5116 -0.2909
   79SOPE   O14 7079   4.030   1.589   6.202  0.5199  0.2769 -0.7011
   79SOPE   O12 7080   4.025   1.444   5.997  0.0021  0.0872 -0.0488
   79SOPE   O11 7081   4.030   1.687   5.985  0.2579 -0.2909 -0.1993
   79SOPE    C1 7082   3.884   1.702   5.980 -0.2072 -0.3661  0.6340
   79SOPE    HA 7083   3.840   1.745   6.073 -2.5883  2.1497 -1.4758
   79SOPE    HB 7084   3.833   1.606   5.957  0.0644 -0.2576 -0.4762
   79SOPE    C2 7085   3.841   1.793   5.863  1.1248 -0.5030  0.1177
   79SOPE    HS 7086   3.734   1.775   5.838  1.2185 -2.1977  0.7757
   79SOPE   O21 7087   3.926   1.785   5.747 -0.2952 -0.1491  0.0751
   79SOPE   C21 7088   3.943   1.662   5.692 -0.0804  0.1530 -0.5370
   79SOPE   O22 7089   3.885   1.562   5.720 -0.3738  0.5036 -0.5773
   79SOPE   C22 7090   4.054   1.672   5.590 -0.2850 -0.5265 -0.7171
   79SOPE   H2R 7091   4.043   1.574   5.539 -0.3273 -0.2637 -1.2147
   79SOPE   H2S 7092   4.153   1.676   5.640 -0.0761 -1.7917 -0.9905
   79SOPE    C3 7093   3.829   1.948   5.896  0.0388 -0.5054  1.1127
   79SOPE    HX 7094   3.904   1.986   5.969  0.4492 -1.0211  0.9677
   79SOPE    HY 7095   3.741   1.956   5.964  0.3231 -2.3382  1.7573
   79SOPE   O31 7096   3.805   2.027   5.775  0.2947  0.2837  0.2092
   79SOPE   C31 7097   3.918   2.075   5.729  0.6564  0.7182 -0.2341
   79SOPE   O32 7098   4.030   2.057   5.777  0.1456 -0.0263 -0.1963
   79SOPE   C32 7099   3.885   2.185   5.627  0.1494 -0.1916 -0.6128
   79SOPE   H2X 7100   3.954   2.269   5.650  2.4746 -2.6144  2.1441
   79SOPE   H2Y 7101   3.779   2.218   5.638  0.1767 -0.5781  1.2015
   79SOPE   C23 7102   4.029   1.774   5.477 -0.5024 -0.3395 -0.6618
   79SOPE   H3R 7103   4.053   1.873   5.520  0.3633 -1.3202  1.2193
   79SOPE   H3S 7104   3.919   1.780   5.460 -0.6028  1.1832  0.3699
   79SOPE   C24 7105   4.099   1.728   5.351  0.4622 -0.1919  1.0317
   79SOPE   H4R 7106   4.210   1.736   5.352  0.5114 -0.8284  1.3325
   79SOPE   H4S 7107   4.083   1.621   5.323  1.3071 -0.0888  0.0485
   79SOPE   C25 7108   4.052   1.795   5.217  0.6252  0.2451  0.4113
   79SOPE   H5R 7109   3.940   1.794   5.216  0.6152  1.0139 -0.3297
   79SOPE   H5S 7110   4.093   1.898   5.213  3.2463 -0.7072  1.3017
   79SOPE   C26 7111   4.099   1.712   5.093 -0.1418 -0.0166 -0.0268
   79SOPE   H6R 7112   4.210   1.699   5.094 -0.3333 -1.9758 -0.5968
   79SOPE   H6S 7113   4.055   1.611   5.104  0.8274 -0.3739  0.6685
   79SOPE   C27 7114   4.045   1.764   4.958  0.7465  0.4402 -0.4041
   79SOPE   H7R 7115   4.013   1.682   4.890  2.2945  0.7030 -1.5061
   79SOPE   H7S 7116   3.949   1.817   4.980 -0.2890 -0.4837 -2.4533
   79SOPE   C28 7117   4.138   1.857   4.881  0.6015  0.2769 -0.2524
   79SOPE   H8R 7118   4.078   1.912   4.806  0.8216 -0.4173 -0.9483
   79SOPE   H8S 7119   4.173   1.938   4.948 -0.5992  1.1029 -0.5992
   79SOPE   C29 7120   4.255   1.779   4.833  0.2179 -0.1316  0.0997
   79SOPE   H91 7121   4.229   1.691   4.772 -1.5831  0.9406 -0.7592
   79SOPE  C210 7122   4.386   1.803   4.849  0.5422 -0.1825 -0.0180
   79SOPE  H101 7123   4.464   1.733   4.815  2.2020  1.3895  0.3733
   79SOPE  C211 7124   4.441   1.915   4.924 -0.0371 -1.4674 -0.5293
   79SOPE  H11R 7125   4.451   1.889   5.031 -2.1267  0.3512  0.1685
   79SOPE  H11S 7126   4.381   2.009   4.917 -0.0172 -1.4511 -0.4772
   79SOPE  C212 7127   4.580   1.973   4.884 -0.0860  0.0412 -0.0309
   79SOPE  H12R 7128   4.590   2.069   4.939 -2.8076  0.3153  0.1152
   79SOPE  H12S 7129   4.570   1.995   4.775 -3.8312 -2.6072 -0.4027
   79SOPE  C213 7130   4.700   1.883   4.899 -0.5718  0.2470 -1.0786
   79SOPE  H13R 7131   4.793   1.943   4.892  0.8122 -1.8333 -1.3431
   79SOPE  H13S 7132   4.706   1.816   4.810 -1.2107  2.1551 -2.6315
   79SOPE  C214 7133   4.707   1.816   5.036 -0.0897 -0.0313  0.3581
   79SOPE  H14R 7134   4.798   1.753   5.031  0.1596  0.4263 -1.7107
   79SOPE  H14S 7135   4.617   1.751   5.047 -0.4334  0.8268  3.8501
   79SOPE  C215 7136   4.709   1.910   5.157  0.2026 -0.2579  0.1580
   79SOPE  H15R 7137   4.631   1.986   5.136 -0.1214 -1.3897 -3.6237
   79SOPE  H15S 7138   4.806   1.962   5.153  0.6280 -1.0802 -1.2569
   79SOPE  C216 7139   4.701   1.839   5.293  0.0283  0.1026  0.0801
   79SOPE  H16R 7140   4.690   1.920   5.369 -0.2198  0.7615 -0.6507
   79SOPE  H16S 7141   4.796   1.786   5.315  0.9050  2.1668  1.7009
   79SOPE  C217 7142   4.578   1.757   5.297 -0.3338  0.1457 -0.9669
   79SOPE  H17R 7143   4.573   1.666   5.235 -2.2298  0.4182 -1.2719
   79SOPE  H17S 7144   4.496   1.823   5.261  0.3639  0.1623 -2.5924
   79SOPE  C218 7145   4.546   1.714   5.446  0.5975  0.7679  0.3063
   79SOPE  H18R 7146   4.625   1.643   5.480  0.8113 -0.1765 -2.0054
   79SOPE  H18S 7147   4.447   1.663   5.452  1.1625 -0.2217  2.4507
   79SOPE  H18T 7148   4.544   1.805   5.510 -0.5641  1.1448 -0.2485
   79SOPE   C33 7149   3.906   2.142   5.486  0.4670 -0.5118  0.4460
   79SOPE   H3X 7150   3.872   2.040   5.459  0.1244  0.1561 -1.8167
   79SOPE   H3Y 7151   4.014   2.154   5.464  0.5451 -1.7157  0.1351
   79SOPE   C34 7152   3.828   2.239   5.387  0.3374  0.6815  0.2943
   79SOPE   H4X 7153   3.887   2.327   5.419  1.1608 -0.2064  1.3319
   79SOPE   H4Y 7154   3.721   2.250   5.416 -0.4880 -1.5240 -1.5898
   79SOPE   C35 7155   3.861   2.231   5.239  0.0331 -0.8146 -0.1044
   79SOPE   H5X 7156   3.971   2.217   5.234  0.4092  1.7770 -0.0576
   79SOPE   H5Y 7157   3.832   2.322   5.183 -0.6302 -1.2833 -0.5438
   79SOPE   C36 7158   3.788   2.116   5.176 -0.3495 -0.1061 -0.3986
   79SOPE   H6X 7159   3.681   2.122   5.203 -0.3446  0.0314 -0.4120
   79SOPE   H6Y 7160   3.821   2.018   5.217  1.4473  0.4344 -0.4645
   79SOPE   C37 7161   3.801   2.110   5.026  0.0739 -0.5170  0.8384
   79SOPE   H7X 7162   3.905   2.077   5.006 -0.0167 -0.7067  0.6793
   79SOPE   H7Y 7163   3.777   2.207   4.978 -0.5032 -1.0448  0.0325
   79SOPE   C38 7164   3.719   2.007   4.947 -0.0442  0.1939  0.5041
   79SOPE   H8X 7165   3.609   2.020   4.958 -0.1532  0.3812 -0.7184
   79SOPE   H8Y 7166   3.746   1.911   4.997  0.4838 -0.0361 -0.2220
   79SOPE   C39 7167   3.756   1.997   4.799 -0.6836 -0.4057 -0.6973
   79SOPE   H9X 7168   3.866   1.992   4.785 -0.5971  1.1261 -0.6832
   79SOPE   H9Y 7169   3.742   2.095   4.748 -0.4511 -0.6069 -1.1566
   79SOPE  C310 7170   3.671   1.898   4.715 -0.3788  0.5623  0.8289
   79SOPE  H10X 7171   3.654   1.945   4.616 -1.6927 -1.8605 -0.1764
   79SOPE  H10Y 7172   3.573   1.888   4.766 -1.2769  0.1798 -0.8960
   79SOPE  C311 7173   3.737   1.763   4.696 -0.3796  0.2416 -0.4479
   79SOPE  H11X 7174   3.792   1.741   4.790  0.5399 -3.0283 -1.6045
   79SOPE  H11Y 7175   3.822   1.777   4.625  1.6376 -0.6332  1.6724
   79SOPE  C312 7176   3.646   1.645   4.665  0.6412  0.2026  0.0414
   79SOPE  H12X 7177   3.599   1.664   4.567  2.0148  1.0643 -0.4809
   79SOPE  H12Y 7178   3.570   1.639   4.746  2.3463 -2.0719  1.5929
   79SOPE  C313 7179   3.728   1.513   4.654 -0.1167 -0.9134  0.1233
   79SOPE  H13X 7180   3.667   1.426   4.620 -2.3978  0.3847  0.6508
   79SOPE  H13Y 7181   3.760   1.488   4.758 -2.0493 -1.4827  0.6261
   79SOPE  C314 7182   3.855   1.525   4.566  0.3542  0.4053  0.7052
   79SOPE  H14X 7183   3.895   1.422   4.561 -1.1221 -0.1482 -0.4563
   79SOPE  H14Y 7184   3.931   1.589   4.616 -0.0569  2.3552 -1.0003
   79SOPE  C315 7185   3.831   1.574   4.417  0.3697  0.3151  0.5051
   79SOPE  H15X 7186   3.793   1.677   4.428  1.6104  0.9460 -0.8484
   79SOPE  H15Y 7187   3.751   1.511   4.372  0.6589 -0.0858  0.5438
   79SOPE  C316 7188   3.957   1.576   4.326 -0.1545  0.1656  0.4827
   79SOPE  H16X 7189   4.013   1.481   4.314 -1.3663 -0.3188 -1.9497
   79SOPE  H16Y 7190   4.035   1.636   4.377  3.1782 -3.8177  0.5959
   79SOPE  C317 7191   3.926   1.621   4.181 -0.3683  0.9198 -0.3258
   79SOPE  H17X 7192   3.847   1.700   4.177  0.1379  1.4513  0.0144
   79SOPE  H17Y 7193   3.887   1.539   4.117 -0.3789  1.4890 -1.0643
   79SOPE  C318 7194   4.050   1.686   4.101 -0.5171 -0.1386  0.4834
   79SOPE  H18X 7195   4.010   1.712   4.001 -0.9645 -1.0220  0.4258
   79SOPE  H18Y 7196   4.134   1.616   4.083 -0.0771  0.7531 -1.1690
   79SOPE  H18Z 7197   4.084   1.783   4.145  0.8252 -0.0351 -0.7240
   80SOPE     N 7198   2.204   5.228   6.322 -0.2473 -0.2027  0.0785
   80SOPE   HN1 7199   2.211   5.329   6.298  1.9429 -0.8602 -2.4733
   80SOPE   HN2 7200   2.172   5.208   6.419 -0.1117  1.2541  0.4387
   80SOPE   HN3 7201   2.303   5.202   6.310 -0.6168 -1.4141 -0.5048
   80SOPE   C12 7202   2.130   5.151   6.203 -0.1315  0.8088  0.0273
   80SOPE  H12A 7203   2.137   5.210   6.109  0.0396 -0.4654 -0.7798
   80SOPE  H12B 7204   2.028   5.128   6.241  0.0977  1.1509  0.8801
   80SOPE   C11 7205   2.202   5.023   6.170 -0.2112 -0.4680  0.5429
   80SOPE  H11A 7206   2.135   4.966   6.102 -0.6000  0.5103  0.0905
   80SOPE  H11B 7207   2.218   4.965   6.263 -3.7638 -0.1488  1.5112
   80SOPE     P 7208   2.418   4.914   6.064 -0.0090 -0.8096  0.0502
   80SOPE   O13 7209   2.363   4.780   6.102 -0.1480 -0.5547 -0.4590
   80SOPE   O14 7210   2.551   4.934   6.121  0.1403  0.7019  0.1334
   80SOPE   O12 7211   2.324   5.042   6.099 -0.3848 -0.4862 -0.0738
   80SOPE   O11 7212   2.417   4.917   5.905  0.3010  0.5895  0.0658
   80SOPE    C1 7213   2.370   5.025   5.833  0.5392  0.4001  0.0617
   80SOPE    HA 7214   2.427   5.026   5.738 -0.7436  0.6185 -0.7298
   80SOPE    HB 7215   2.386   5.124   5.881  0.9345 -0.1469  1.0763
   80SOPE    C2 7216   2.218   5.009   5.797  0.3474 -0.0884  0.7223
   80SOPE    HS 7217   2.154   4.989   5.886 -0.0538  0.0652  0.4750
   80SOPE   O21 7218   2.206   4.902   5.702  1.1474 -0.2150 -0.1777
   80SOPE   C21 7219   2.084   4.859   5.678  0.9622  0.3428 -0.5685
   80SOPE   O22 7220   1.983   4.866   5.746  0.0477 -0.5676  0.0673
   80SOPE   C22 7221   2.080   4.800   5.541  0.4857 -0.0860 -0.1401
   80SOPE   H2R 7222   1.972   4.796   5.515  0.5572  0.9650 -0.6659
   80SOPE   H2S 7223   2.121   4.698   5.553 -1.8399 -1.0182  0.5427
   80SOPE    C3 7224   2.176   5.148   5.745  0.0752 -1.3429  0.4016
   80SOPE    HX 7225   2.184   5.220   5.829 -1.4671 -2.1145  1.2435
   80SOPE    HY 7226   2.069   5.143   5.717 -0.3656  1.7347  1.1152
   80SOPE   O31 7227   2.236   5.181   5.622 -0.1141  0.9971 -0.0015
   80SOPE   C31 7228   2.298   5.299   5.610  0.2758  0.5735 -0.5062
   80SOPE   O32 7229   2.286   5.386   5.696  0.6940 -0.1598 -0.0611
   80SOPE   C32 7230   2.374   5.311   5.482  0.1436 -0.6534  0.5287
   80SOPE   H2X 7231   2.422   5.217   5.448 -0.9900 -0.9569 -0.2910
   80SOPE   H2Y 7232   2.454   5.383   5.508 -0.0987 -0.4591  0.7416
   80SOPE   C23 7233   2.159   4.881   5.438  0.2654  0.6221 -0.2608
   80SOPE   H3R 7234   2.264   4.864   5.469  0.5565 -3.5063 -2.8390
   80SOPE   H3S 7235   2.142   4.991   5.442 -4.3365  0.1305 -0.8613
   80SOPE   C24 7236   2.164   4.825   5.297  1.3095 -0.3638 -0.8548
   80SOPE   H4R 7237   2.158   4.714   5.297 -0.6387 -0.3377  1.3652
   80SOPE   H4S 7238   2.080   4.874   5.243  2.4180  0.2293 -2.0954
   80SOPE   C25 7239   2.288   4.866   5.220 -0.2875 -0.2219  0.1211
   80SOPE   H5R 7240   2.323   4.963   5.260 -0.7778  0.3882 -0.8988
   80SOPE   H5S 7241   2.369   4.791   5.233 -1.2678 -1.1993  0.8307
   80SOPE   C26 7242   2.268   4.875   5.068 -0.1622  0.0880 -0.7540
   80SOPE   H6R 7243   2.201   4.956   5.033  1.3721  0.6328 -2.6006
   80SOPE   H6S 7244   2.364   4.905   5.021  0.5505 -0.3827  0.3629
   80SOPE   C27 7245   2.211   4.752   5.000 -0.3897 -0.1215 -0.0598
   80SOPE   H7R 7246   2.274   4.662   5.014 -1.5525 -1.0064 -0.3740
   80SOPE   H7S 7247   2.116   4.720   5.048 -0.3251  2.5755  2.1605
   80SOPE   C28 7248   2.175   4.789   4.857  0.1441 -0.7752  0.4953
   80SOPE   H8R 7249   2.102   4.716   4.816 -0.4048 -1.5906  2.7564
   80SOPE   H8S 7250   2.125   4.888   4.858  1.9151  0.1994 -1.0041
   80SOPE   C29 7251   2.307   4.803   4.784  0.1677  0.1985 -0.0354
   80SOPE   H91 7252   2.393   4.755   4.833  1.2030  1.7969 -0.2117
   80SOPE  C210 7253   2.326   4.867   4.666 -1.0437 -0.3197  0.2208
   80SOPE  H101 7254   2.428   4.871   4.626 -0.7869  0.2271  0.9092
   80SOPE  C211 7255   2.221   4.941   4.584 -0.3335 -0.3376 -0.3585
   80SOPE  H11R 7256   2.269   4.997   4.501 -0.1040  0.0715  0.0429
   80SOPE  H11S 7257   2.155   5.005   4.647 -0.2057 -1.4333  0.9488
   80SOPE  C212 7258   2.122   4.841   4.516 -0.5081 -0.9011  0.6385
   80SOPE  H12R 7259   2.053   4.803   4.595  0.3585  1.2932  2.5919
   80SOPE  H12S 7260   2.177   4.763   4.461 -0.8458 -0.7118  0.0245
   80SOPE  C213 7261   2.034   4.914   4.416  0.1461 -0.3741  0.5158
   80SOPE  H13R 7262   2.104   4.964   4.345  0.4741 -1.1897  0.2623
   80SOPE  H13S 7263   1.975   4.985   4.479 -1.4722 -0.3915 -0.8985
   80SOPE  C214 7264   1.928   4.821   4.349 -0.0221  0.7784  0.6008
   80SOPE  H14R 7265   1.859   4.872   4.279 -0.0928  0.2647  0.2963
   80SOPE  H14S 7266   1.875   4.784   4.439  0.3181 -0.4481  0.3148
   80SOPE  C215 7267   1.984   4.702   4.261  0.6008 -0.6753 -0.0399
   80SOPE  H15R 7268   2.064   4.646   4.314 -0.0204 -1.5241  0.0089
   80SOPE  H15S 7269   2.037   4.743   4.172 -3.2390 -1.4009 -2.9291
   80SOPE  C216 7270   1.885   4.602   4.214  0.8517  0.3641 -0.0596
   80SOPE  H16R 7271   1.817   4.638   4.134  1.0693 -0.3666 -0.5855
   80SOPE  H16S 7272   1.817   4.582   4.299  2.2078 -0.1698  0.9350
   80SOPE  C217 7273   1.949   4.470   4.162 -0.0086  0.4510  0.5891
   80SOPE  H17R 7274   1.877   4.387   4.146 -0.1904  0.4142  1.5289
   80SOPE  H17S 7275   2.015   4.432   4.243  0.7000 -1.0257 -0.6380
   80SOPE  C218 7276   2.040   4.479   4.041  0.0257 -0.3577  0.0214
   80SOPE  H18R 7277   2.103   4.388   4.040 -1.9331 -1.7820 -1.0851
   80SOPE  H18S 7278   2.103   4.571   4.042 -0.3333 -0.0608 -1.6194
   80SOPE  H18T 7279   1.977   4.468   3.950  0.4974 -1.8015 -0.1487
   80SOPE   C33 7280   2.279   5.352   5.366 -0.1492  0.5780 -0.6230
   80SOPE   H3X 7281   2.249   5.459   5.378  1.5335  1.1928 -1.6132
   80SOPE   H3Y 7282   2.192   5.283   5.372  1.2364 -1.7532 -4.1106
   80SOPE   C34 7283   2.345   5.333   5.235  0.5377 -0.1824  0.0564
   80SOPE   H4X 7284   2.369   5.225   5.220  0.4425 -0.1881 -0.0522
   80SOPE   H4Y 7285   2.447   5.376   5.247  0.1427  0.7426  0.2047
   80SOPE   C35 7286   2.278   5.401   5.120  0.5716 -0.8216  0.1661
   80SOPE   H5X 7287   2.296   5.511   5.124  2.1496 -0.9741 -1.5675
   80SOPE   H5Y 7288   2.169   5.380   5.131  0.3810 -0.4327 -0.9112
   80SOPE   C36 7289   2.331   5.354   4.989 -0.5308  0.1131 -0.4129
   80SOPE   H6X 7290   2.304   5.247   4.974 -1.5040  0.0315  1.5778
   80SOPE   H6Y 7291   2.441   5.366   4.983 -0.2209 -2.3871 -1.0585
   80SOPE   C37 7292   2.271   5.434   4.874 -0.1686 -0.0540  0.1316
   80SOPE   H7X 7293   2.291   5.544   4.872 -0.0482 -0.0822 -0.4639
   80SOPE   H7Y 7294   2.160   5.429   4.880 -0.3225  1.0853 -1.2146
   80SOPE   C38 7295   2.317   5.383   4.743  0.1789  0.2964  0.3693
   80SOPE   H8X 7296   2.283   5.278   4.727 -0.3378  0.5570 -0.2666
   80SOPE   H8Y 7297   2.426   5.400   4.733  0.1830 -0.3423 -0.8753
   80SOPE   C39 7298   2.264   5.461   4.624  0.3762  0.2284  0.0459
   80SOPE   H9X 7299   2.279   5.569   4.644 -1.6139  0.3438  1.1474
   80SOPE   H9Y 7300   2.153   5.453   4.612  0.4143 -0.3508  0.0632
   80SOPE  C310 7301   2.332   5.422   4.499 -0.1545 -0.1609 -0.3810
   80SOPE  H10X 7302   2.436   5.461   4.495 -0.6332  1.2583  0.3721
   80SOPE  H10Y 7303   2.286   5.453   4.402 -0.8943 -1.7625 -0.5790
   80SOPE  C311 7304   2.340   5.268   4.462 -0.0710  0.3166 -0.1341
   80SOPE  H11X 7305   2.240   5.221   4.472  0.5502 -1.4329 -1.6589
   80SOPE  H11Y 7306   2.411   5.225   4.536  0.2843  0.2341 -0.5199
   80SOPE  C312 7307   2.400   5.252   4.329  0.1321  0.1648  0.3368
   80SOPE  H12X 7308   2.358   5.328   4.259 -2.4673 -0.7062  0.8257
   80SOPE  H12Y 7309   2.366   5.155   4.286 -3.0255  1.7259 -1.0158
   80SOPE  C313 7310   2.553   5.258   4.329  0.1416  0.2646  0.3096
   80SOPE  H13X 7311   2.604   5.172   4.379 -1.1379  0.4378  1.9873
   80SOPE  H13Y 7312   2.584   5.358   4.365 -0.9347  1.0810 -0.9267
   80SOPE  C314 7313   2.597   5.245   4.179 -0.6734  0.3086 -0.3115
   80SOPE  H14X 7314   2.564   5.337   4.125 -0.5063 -0.0103 -0.9644
   80SOPE  H14Y 7315   2.537   5.165   4.132 -0.7261 -1.0934  1.9798
   80SOPE  C315 7316   2.741   5.230   4.171 -0.4645  0.1477  0.9433
   80SOPE  H15X 7317   2.769   5.137   4.225 -1.0978 -0.1541  0.7628
   80SOPE  H15Y 7318   2.783   5.316   4.226  1.3891  0.6810 -1.1619
   80SOPE  C316 7319   2.803   5.244   4.032  0.3925 -0.1075 -0.4469
   80SOPE  H16X 7320   2.910   5.269   4.047  0.3309  0.5169 -0.9829
   80SOPE  H16Y 7321   2.756   5.338   3.995  1.7719  1.3060  1.2560
   80SOPE  C317 7322   2.777   5.133   3.937  0.3457 -0.1596 -0.3703
   80SOPE  H17X 7323   2.785   5.187   3.840 -0.0380  1.0703  0.2617
   80SOPE  H17Y 7324   2.674   5.094   3.948  0.3296  0.1038  0.5281
   80SOPE  C318 7325   2.879   5.024   3.957  0.6213  0.0532  0.1546
   80SOPE  H18X 7326   2.865   4.960   4.046  1.6104  1.4284  1.3538
   80SOPE  H18Y 7327   2.980   5.070   3.964  0.5916  0.2278 -0.5182
   80SOPE  H18Z 7328   2.883   4.965   3.863  0.3765  0.9097 -0.4027
   81SOPE     N 7329   3.141   6.389   6.042 -1.1034  0.2975 -0.2621
   81SOPE   HN1 7330   3.184   6.294   6.032  1.7378  1.4197  0.1659
   81SOPE   HN2 7331   3.186   6.432   6.126  0.0877  1.2223 -1.3337
   81SOPE   HN3 7332   3.041   6.393   6.069 -0.5667  2.9926  1.7551
   81SOPE   C12 7333   3.160   6.482   5.920 -0.2219  0.1958  0.5277
   81SOPE  H12A 7334   3.070   6.505   5.859 -0.2423  1.1092  0.8761
   81SOPE  H12B 7335   3.244   6.437   5.862  0.3686  0.5356  1.0991
   81SOPE   C11 7336   3.217   6.623   5.962  0.4987 -0.7014  0.0364
   81SOPE  H11A 7337   3.259   6.678   5.875  1.7301  0.8809  1.5501
   81SOPE  H11B 7338   3.299   6.609   6.036  0.0621  1.8887  1.0920
   81SOPE     P 7339   3.114   6.857   6.032  0.8382 -0.0596 -0.3356
   81SOPE   O13 7340   3.206   6.896   6.129 -0.5663 -0.1813 -0.4630
   81SOPE   O14 7341   2.974   6.908   6.041 -0.0925  0.2937 -0.0094
   81SOPE   O12 7342   3.108   6.702   6.022 -0.8263 -0.3944  1.1737
   81SOPE   O11 7343   3.155   6.899   5.884 -0.0207  0.8294  0.2114
   81SOPE    C1 7344   3.056   6.936   5.786 -0.0331 -0.5698  0.4861
   81SOPE    HA 7345   3.095   7.016   5.719 -2.2597  0.9449  0.8945
   81SOPE    HB 7346   2.962   6.979   5.827  0.2083 -1.2221  1.7962
   81SOPE    C2 7347   3.027   6.822   5.683  0.5980 -0.2338 -0.0047
   81SOPE    HS 7348   2.982   6.738   5.741 -0.7002 -0.2996 -1.0496
   81SOPE   O21 7349   3.152   6.784   5.636 -0.5890  0.5305  0.1100
   81SOPE   C21 7350   3.181   6.655   5.613  0.4529 -0.3001  0.8641
   81SOPE   O22 7351   3.105   6.562   5.626 -0.1045  0.6713  0.2686
   81SOPE   C22 7352   3.329   6.651   5.557  0.4981  0.2750  0.0597
   81SOPE   H2R 7353   3.395   6.667   5.645  1.0536 -1.9918  0.1151
   81SOPE   H2S 7354   3.339   6.743   5.495 -2.7514  2.2826  2.1513
   81SOPE    C3 7355   2.935   6.862   5.574  0.0948 -0.1483  0.4251
   81SOPE    HX 7356   2.974   6.949   5.518  0.9701 -1.5579 -1.2592
   81SOPE    HY 7357   2.834   6.897   5.605  1.4155  2.2383  2.3910
   81SOPE   O31 7358   2.933   6.761   5.470  0.4330  0.2306 -0.5831
   81SOPE   C31 7359   2.853   6.659   5.495  0.2336  1.0118  0.4345
   81SOPE   O32 7360   2.792   6.641   5.599 -0.2117 -0.4298  0.2969
   81SOPE   C32 7361   2.875   6.546   5.391 -0.6123 -0.2574  0.5840
   81SOPE   H2X 7362   2.912   6.455   5.442  1.0421 -0.4760 -0.9000
   81SOPE   H2Y 7363   2.957   6.570   5.320 -0.3868 -0.0112  0.9277
   81SOPE   C23 7364   3.358   6.517   5.485  0.0843 -0.1197 -0.6911
   81SOPE   H3R 7365   3.340   6.431   5.552 -3.5800  1.9073  1.2450
   81SOPE   H3S 7366   3.466   6.526   5.462  0.8878  1.2475  2.8952
   81SOPE   C24 7367   3.269   6.502   5.360  0.0546  0.6033  0.6871
   81SOPE   H4R 7368   3.291   6.402   5.316  0.8293  0.3771  1.5628
   81SOPE   H4S 7369   3.162   6.503   5.388 -0.3811  0.8278 -0.8964
   81SOPE   C25 7370   3.285   6.619   5.264 -0.1086 -0.2465  0.1843
   81SOPE   H5R 7371   3.252   6.716   5.306  0.0548  0.1599 -0.5970
   81SOPE   H5S 7372   3.394   6.638   5.250 -0.3540  0.1291 -1.4517
   81SOPE   C26 7373   3.212   6.597   5.134  0.8022 -0.9491 -0.7207
   81SOPE   H6R 7374   3.237   6.504   5.078 -0.7911 -0.9672 -1.4584
   81SOPE   H6S 7375   3.104   6.600   5.158  1.0962  2.2461  0.6983
   81SOPE   C27 7376   3.240   6.718   5.040  1.0420 -0.5084 -0.6578
   81SOPE   H7R 7377   3.227   6.811   5.098 -0.4999 -0.6564 -0.7303
   81SOPE   H7S 7378   3.345   6.722   5.004  1.7532  0.1504  1.3930
   81SOPE   C28 7379   3.134   6.719   4.928 -0.5523  0.4695 -0.0966
   81SOPE   H8R 7380   3.157   6.620   4.884  1.9841  1.0186 -0.1641
   81SOPE   H8S 7381   3.030   6.718   4.966 -0.7753  1.9125 -0.5866
   81SOPE   C29 7382   3.167   6.833   4.835  0.2876  0.0497  0.0134
   81SOPE   H91 7383   3.174   6.932   4.882 -1.2196  0.5582 -0.7876
   81SOPE  C210 7384   3.212   6.825   4.704  0.8420 -0.1392 -0.1323
   81SOPE  H101 7385   3.218   6.916   4.643  0.0243 -0.6338 -0.9756
   81SOPE  C211 7386   3.238   6.703   4.626  0.4040 -0.1737 -0.3210
   81SOPE  H11R 7387   3.177   6.616   4.659  0.0386 -0.3532 -1.4176
   81SOPE  H11S 7388   3.338   6.657   4.642  0.1239 -0.5150  0.5219
   81SOPE  C212 7389   3.200   6.729   4.480 -0.0893 -0.3744  0.5013
   81SOPE  H12R 7390   3.252   6.823   4.453 -0.9752  1.3111  4.0520
   81SOPE  H12S 7391   3.094   6.760   4.470  0.3473  0.7499 -1.0378
   81SOPE  C213 7392   3.225   6.611   4.385  0.6803  0.0608 -0.0132
   81SOPE  H13R 7393   3.182   6.520   4.434  1.8162 -0.5126 -0.0560
   81SOPE  H13S 7394   3.334   6.613   4.366  0.6823  2.1725 -0.0284
   81SOPE  C214 7395   3.151   6.644   4.249 -0.1787  0.2244  0.1556
   81SOPE  H14R 7396   3.171   6.750   4.221 -3.1938  1.4304  2.1111
   81SOPE  H14S 7397   3.042   6.637   4.270 -0.0252 -0.7151  0.6708
   81SOPE  C215 7398   3.172   6.541   4.140 -0.0514  0.0021 -0.4479
   81SOPE  H15R 7399   3.158   6.439   4.181 -0.9221 -0.7392 -2.4266
   81SOPE  H15S 7400   3.279   6.543   4.112  0.0663  0.7303  0.0424
   81SOPE  C216 7401   3.083   6.537   4.013  0.0840 -0.3894  0.6588
   81SOPE  H16R 7402   2.980   6.528   4.052  0.5689 -1.2922  1.8085
   81SOPE  H16S 7403   3.096   6.443   3.954 -4.1559 -0.7383 -0.0325
   81SOPE  C217 7404   3.080   6.668   3.928 -0.8237 -0.0045  0.1287
   81SOPE  H17R 7405   3.173   6.672   3.866  0.1572  0.9110  1.5816
   81SOPE  H17S 7406   3.083   6.749   4.004  2.0738 -0.2238  0.3856
   81SOPE  C218 7407   2.970   6.682   3.826  0.2959  0.3994 -0.1612
   81SOPE  H18R 7408   2.965   6.787   3.791  2.4676  0.9440  0.9894
   81SOPE  H18S 7409   2.869   6.672   3.871  0.1483 -0.1460 -0.6083
   81SOPE  H18T 7410   2.986   6.611   3.742  0.0439  0.7358 -0.4952
   81SOPE   C33 7411   2.744   6.499   5.330 -0.1249 -0.0178  0.5089
   81SOPE   H3X 7412   2.680   6.582   5.294  0.0181 -1.8588 -4.8579
   81SOPE   H3Y 7413   2.689   6.435   5.402  1.6875 -1.9454  0.2547
   81SOPE   C34 7414   2.758   6.409   5.208  0.2631 -0.6856  0.0688
   81SOPE   H4X 7415   2.653   6.386   5.180  0.1263 -0.1710  0.1522
   81SOPE   H4Y 7416   2.812   6.323   5.253 -0.7596  0.3514  3.5764
   81SOPE   C35 7417   2.821   6.482   5.079  0.6491  0.1521  0.5172
   81SOPE   H5X 7418   2.925   6.497   5.114  1.1971 -2.6545  0.2984
   81SOPE   H5Y 7419   2.773   6.582   5.073  2.2439  0.9123 -0.2743
   81SOPE   C36 7420   2.810   6.404   4.947  0.2158 -0.2612 -0.1515
   81SOPE   H6X 7421   2.703   6.381   4.929 -0.4096  1.9732  0.4010
   81SOPE   H6Y 7422   2.864   6.308   4.962 -0.9700 -0.5967  2.6496
   81SOPE   C37 7423   2.878   6.473   4.833 -0.0149  0.2406 -0.3064
   81SOPE   H7X 7424   2.986   6.483   4.860 -0.4718  1.3066  1.2890
   81SOPE   H7Y 7425   2.839   6.575   4.816  1.4436  1.3336  2.2897
   81SOPE   C38 7426   2.878   6.380   4.706  0.3762  0.3714  0.5100
   81SOPE   H8X 7427   2.779   6.331   4.718 -0.6484  2.6803  2.6760
   81SOPE   H8Y 7428   2.945   6.293   4.716 -0.7579 -0.2718  4.4922
   81SOPE   C39 7429   2.889   6.448   4.572 -0.4666 -0.3540 -0.1464
   81SOPE   H9X 7430   2.995   6.474   4.548 -0.2576 -0.9717  0.1010
   81SOPE   H9Y 7431   2.825   6.537   4.590 -1.9497 -1.7352  1.8491
   81SOPE  C310 7432   2.833   6.368   4.460 -0.1310  0.1376  0.6642
   81SOPE  H10X 7433   2.862   6.430   4.372  0.5361  0.4825  1.1209
   81SOPE  H10Y 7434   2.723   6.360   4.472 -0.1801 -1.7848 -0.5680
   81SOPE  C311 7435   2.891   6.230   4.426 -0.0796 -0.2127 -0.0518
   81SOPE  H11X 7436   2.867   6.163   4.511  0.6744 -0.8732 -0.3442
   81SOPE  H11Y 7437   3.002   6.228   4.414 -0.1208  0.0996 -0.5206
   81SOPE  C312 7438   2.848   6.184   4.285 -0.1455  0.4780  0.6008
   81SOPE  H12X 7439   2.877   6.249   4.200  0.5729  0.5255  0.8742
   81SOPE  H12Y 7440   2.737   6.174   4.289 -0.3461  2.2921  0.5143
   81SOPE  C313 7441   2.899   6.043   4.252 -0.4559  0.1483 -0.0633
   81SOPE  H13X 7442   2.848   5.967   4.315  2.9325 -1.9918  0.3451
   81SOPE  H13Y 7443   3.007   6.041   4.278 -0.5358  3.5479  1.0263
   81SOPE  C314 7444   2.866   5.995   4.108  0.1260 -0.9070  0.1025
   81SOPE  H14X 7445   2.949   6.034   4.046 -0.5626  0.4810  0.0283
   81SOPE  H14Y 7446   2.771   6.043   4.076  1.6714  0.3718 -2.9165
   81SOPE  C315 7447   2.856   5.848   4.097 -0.5030  0.6648  0.6933
   81SOPE  H15X 7448   2.793   5.819   4.010  1.4901 -1.1793 -0.2365
   81SOPE  H15Y 7449   2.804   5.817   4.190  0.8105 -0.3302  1.1283
   81SOPE  C316 7450   2.991   5.777   4.098 -0.3541  0.4139 -0.4816
   81SOPE  H16X 7451   3.048   5.797   4.191  2.4280  0.4548 -2.1070
   81SOPE  H16Y 7452   3.055   5.813   4.015  1.4330  1.5510  1.3141
   81SOPE  C317 7453   2.983   5.622   4.101 -0.0531 -0.0738  1.4450
   81SOPE  H17X 7454   3.084   5.583   4.074 -0.9400 -1.0448 -0.7025
   81SOPE  H17Y 7455   2.913   5.583   4.024  1.2660  0.1870  0.0457
   81SOPE  C318 7456   2.953   5.550   4.227  1.4748  0.0045 -0.0145
   81SOPE  H18X 7457   3.007   5.594   4.314 -1.1166 -0.5758  2.0076
   81SOPE  H18Y 7458   2.969   5.441   4.209 -3.0943 -0.3753 -3.5099
   81SOPE  H18Z 7459   2.844   5.560   4.246  1.2638 -2.2081  0.1697
   82SOPE     N 7460   6.862   1.354   5.939  0.2577 -0.1240  0.6227
   82SOPE   HN1 7461   6.800   1.411   5.877  0.2681 -0.0114  0.7166
   82SOPE   HN2 7462   6.900   1.405   6.021 -1.0409  0.6629  0.7635
   82SOPE   HN3 7463   6.942   1.330   5.876 -0.1101  0.6908 -0.1845
   82SOPE   C12 7464   6.785   1.233   5.983  0.4826 -0.3980  0.1092
   82SOPE  H12A 7465   6.716   1.196   5.904  0.5986  2.5653 -1.5186
   82SOPE  H12B 7466   6.715   1.268   6.062  1.9828  2.8646  0.1566
   82SOPE   C11 7467   6.883   1.128   6.051  0.3976  0.0171 -0.4563
   82SOPE  H11A 7468   6.828   1.033   6.070 -0.4361  0.1279 -2.1075
   82SOPE  H11B 7469   6.903   1.166   6.153  0.8193 -0.3440 -0.4073
   82SOPE     P 7470   6.979   1.012   5.844  0.0460  0.2756  0.1382
   82SOPE   O13 7471   6.849   0.940   5.852  0.4705 -0.7975 -0.0894
   82SOPE   O14 7472   7.107   0.940   5.812  0.1114  0.0765  0.2165
   82SOPE   O12 7473   7.001   1.103   5.977 -0.0186 -0.3586  0.1288
   82SOPE   O11 7474   6.959   1.125   5.736 -0.1050 -0.1543  0.0476
   82SOPE    C1 7475   6.864   1.126   5.633  0.6940 -0.0685  0.1352
   82SOPE    HA 7476   6.848   1.228   5.591  0.6481 -0.4226 -0.7385
   82SOPE    HB 7477   6.761   1.101   5.667  0.0917  0.6936 -1.0461
   82SOPE    C2 7478   6.900   1.020   5.533 -1.0273 -0.9392  0.8353
   82SOPE    HS 7479   6.904   0.920   5.583  0.6757 -1.2409  0.1823
   82SOPE   O21 7480   7.026   1.056   5.476  0.3593 -0.0839  0.7376
   82SOPE   C21 7481   7.095   0.951   5.428 -0.4958  0.0619  0.6866
   82SOPE   O22 7482   7.067   0.833   5.443 -0.3075  0.1556 -0.6173
   82SOPE   C22 7483   7.223   1.007   5.363  0.3282 -0.0302  0.0166
   82SOPE   H2R 7484   7.288   1.054   5.441 -0.7211 -0.2555  1.0587
   82SOPE   H2S 7485   7.201   1.083   5.285  1.0190 -1.1282 -1.2922
   82SOPE    C3 7486   6.781   1.018   5.428  0.4149  0.3488  0.1940
   82SOPE    HX 7487   6.786   1.114   5.373 -0.7979  0.0607 -0.4576
   82SOPE    HY 7488   6.687   1.009   5.486 -0.7601 -1.0246 -1.7993
   82SOPE   O31 7489   6.804   0.904   5.337  0.2335  0.1713 -0.1921
   82SOPE   C31 7490   6.780   0.784   5.360  0.0154  0.0493 -0.2157
   82SOPE   O32 7491   6.744   0.731   5.463 -0.0469 -0.2323 -0.3478
   82SOPE   C32 7492   6.829   0.701   5.236  0.2720  0.0919 -0.3733
   82SOPE   H2X 7493   6.938   0.687   5.253  0.2764  1.7642  1.1494
   82SOPE   H2Y 7494   6.810   0.766   5.148 -2.8401  1.0863  0.8802
   82SOPE   C23 7495   7.310   0.890   5.307  0.1147 -0.7513  0.5027
   82SOPE   H3R 7496   7.317   0.804   5.376  0.4713 -0.8104  0.3944
   82SOPE   H3S 7497   7.413   0.926   5.287  0.2720 -1.7906 -0.7023
   82SOPE   C24 7498   7.258   0.853   5.166  0.4034 -0.0431  0.1247
   82SOPE   H4R 7499   7.147   0.848   5.168  0.2059  2.4089 -0.8433
   82SOPE   H4S 7500   7.297   0.939   5.108  0.0162 -0.0229 -0.1097
   82SOPE   C25 7501   7.324   0.721   5.111  0.3400  0.2884 -0.2087
   82SOPE   H5R 7502   7.433   0.714   5.134  0.7149  0.5431 -1.7568
   82SOPE   H5S 7503   7.280   0.629   5.154  0.2129 -0.5560 -2.0500
   82SOPE   C26 7504   7.301   0.704   4.961  0.0154 -0.6822  0.8644
   82SOPE   H6R 7505   7.344   0.616   4.909  1.0923  0.6119 -0.5473
   82SOPE   H6S 7506   7.193   0.719   4.943  0.7036  2.6237 -1.5390
   82SOPE   C27 7507   7.393   0.802   4.880 -0.3755  0.0173  0.7801
   82SOPE   H7R 7508   7.340   0.899   4.887 -1.0214 -0.2873  0.2653
   82SOPE   H7S 7509   7.496   0.804   4.922 -0.7783 -0.0499  1.8067
   82SOPE   C28 7510   7.404   0.768   4.729 -0.3162 -0.2665 -0.0541
   82SOPE   H8R 7511   7.452   0.668   4.725  0.3132  0.0449 -0.4741
   82SOPE   H8S 7512   7.298   0.765   4.695 -0.6599  1.4636  0.7961
   82SOPE   C29 7513   7.492   0.851   4.639 -0.5116  0.2043 -0.2541
   82SOPE   H91 7514   7.586   0.874   4.691 -0.6950 -1.2806  0.8035
   82SOPE  C210 7515   7.463   0.903   4.516  0.1110  0.8273 -0.0906
   82SOPE  H101 7516   7.536   0.973   4.473  1.4331  1.0601  2.3358
   82SOPE  C211 7517   7.341   0.869   4.435  0.1948 -0.0969  0.2998
   82SOPE  H11R 7518   7.303   0.765   4.448 -1.7563  0.4325 -0.7570
   82SOPE  H11S 7519   7.352   0.893   4.327 -0.8159 -1.8143 -0.2340
   82SOPE  C212 7520   7.229   0.962   4.481  0.4269 -0.6472  0.3212
   82SOPE  H12R 7521   7.267   1.065   4.467 -0.9003  0.0005  1.2358
   82SOPE  H12S 7522   7.201   0.938   4.586  1.1436 -0.0736  0.6610
   82SOPE  C213 7523   7.098   0.953   4.409 -0.4091 -0.4562 -0.0350
   82SOPE  H13R 7524   7.073   0.847   4.429  0.3304 -0.6302 -0.0196
   82SOPE  H13S 7525   7.115   0.971   4.301  1.3239 -0.3977  0.2213
   82SOPE  C214 7526   6.998   1.046   4.473  0.0041 -0.2007 -0.2812
   82SOPE  H14R 7527   6.983   1.128   4.400 -0.2941  1.5021  1.5979
   82SOPE  H14S 7528   7.044   1.107   4.554  2.1053  0.4813 -1.8940
   82SOPE  C215 7529   6.867   0.983   4.511 -1.1631 -0.5878 -0.0832
   82SOPE  H15R 7530   6.833   0.919   4.427  1.6790 -1.2452 -0.8566
   82SOPE  H15S 7531   6.784   1.057   4.506  0.1271  1.0528  1.6112
   82SOPE  C216 7532   6.867   0.878   4.627 -0.2790 -0.5201 -0.4037
   82SOPE  H16R 7533   6.947   0.802   4.617  1.0030  0.8227 -0.5999
   82SOPE  H16S 7534   6.766   0.831   4.632 -0.7251  0.4247 -0.2862
   82SOPE  C217 7535   6.892   0.940   4.770 -0.2681  0.7257 -0.3255
   82SOPE  H17R 7536   6.809   1.007   4.803 -1.3447 -0.1398 -1.1881
   82SOPE  H17S 7537   6.993   0.985   4.779  1.4764 -2.4795 -1.9628
   82SOPE  C218 7538   6.898   0.839   4.887  0.7513  0.0341 -0.2040
   82SOPE  H18R 7539   6.793   0.807   4.907  0.1886  2.6626  1.6441
   82SOPE  H18S 7540   6.932   0.872   4.988  2.7460  0.9046 -1.1259
   82SOPE  H18T 7541   6.971   0.761   4.858  0.0823 -1.0620  0.9090
   82SOPE   C33 7542   6.774   0.564   5.200  0.1486 -0.1841  0.2668
   82SOPE   H3X 7543   6.665   0.575   5.180  0.2049  1.2851  0.6394
   82SOPE   H3Y 7544   6.773   0.502   5.292  1.7136 -1.3007 -0.4190
   82SOPE   C34 7545   6.828   0.494   5.072 -0.2042  0.7690 -0.4889
   82SOPE   H4X 7546   6.818   0.572   4.993 -0.2026  0.9599 -0.3014
   82SOPE   H4Y 7547   6.769   0.402   5.052  1.6198 -1.3693  3.0541
   82SOPE   C35 7548   6.971   0.439   5.084 -0.5966  0.3162  0.2514
   82SOPE   H5X 7549   6.972   0.357   5.158 -2.7195  0.9332  1.0463
   82SOPE   H5Y 7550   7.028   0.520   5.134  0.3469 -1.7404  2.6665
   82SOPE   C36 7551   7.020   0.401   4.949  0.3946 -0.3762  0.3035
   82SOPE   H6X 7552   7.011   0.494   4.890 -0.4478 -1.3024 -1.1014
   82SOPE   H6Y 7553   6.956   0.324   4.901 -0.9881  0.1897  1.1616
   82SOPE   C37 7554   7.168   0.348   4.957 -0.0108  0.0418 -0.1501
   82SOPE   H7X 7555   7.171   0.274   5.040  1.0689  0.7739  0.4784
   82SOPE   H7Y 7556   7.230   0.436   4.985  2.5174 -1.4211 -0.8243
   82SOPE   C38 7557   7.210   0.278   4.824 -0.5229  0.3909 -0.4733
   82SOPE   H8X 7558   7.131   0.215   4.777  0.4285  0.3445 -2.1114
   82SOPE   H8Y 7559   7.308   0.226   4.827 -0.0227  1.3373  0.3430
   82SOPE   C39 7560   7.249   0.372   4.713 -0.3908 -0.1115 -0.0034
   82SOPE   H9X 7561   7.344   0.425   4.735 -1.7631  2.0209  1.1484
   82SOPE   H9Y 7562   7.168   0.444   4.691 -0.0812 -0.1566 -1.3419
   82SOPE  C310 7563   7.264   0.290   4.582  0.4946 -1.0334  0.6645
   82SOPE  H10X 7564   7.317   0.202   4.624  2.1976  1.0103  3.1332
   82SOPE  H10Y 7565   7.332   0.346   4.513  1.9827 -2.6432  0.7595
   82SOPE  C311 7566   7.129   0.263   4.507 -0.4025  0.8543 -0.0475
   82SOPE  H11X 7567   7.086   0.365   4.496  1.3861  1.6657  0.0843
   82SOPE  H11Y 7568   7.054   0.200   4.559  0.4937  1.6690  2.3881
   82SOPE  C312 7569   7.168   0.212   4.367 -0.0080 -0.3641 -0.2371
   82SOPE  H12X 7570   7.254   0.142   4.374  0.5438  0.2441 -0.8726
   82SOPE  H12Y 7571   7.204   0.294   4.302  0.9393  0.3547  1.1254
   82SOPE  C313 7572   7.058   0.145   4.286  0.1979 -0.8490 -0.1487
   82SOPE  H13X 7573   6.964   0.204   4.283 -1.9138 -4.0101 -1.1322
   82SOPE  H13Y 7574   7.031   0.044   4.323  0.5756 -1.2475 -0.9291
   82SOPE  C314 7575   7.101   0.118   4.140  0.4844 -0.0888 -0.1342
   82SOPE  H14X 7576   7.196   0.060   4.143 -0.4598 -1.8225 -1.3672
   82SOPE  H14Y 7577   7.098   0.222   4.102 -0.6222  0.3332  1.0418
   82SOPE  C315 7578   6.997   0.039   4.059 -0.3110  0.3934 -0.2712
   82SOPE  H15X 7579   6.898   0.085   4.076 -0.5701 -0.9289  2.1862
   82SOPE  H15Y 7580   6.997  -0.063   4.101  3.4612  0.3030 -0.1011
   82SOPE  C316 7581   7.036   0.039   3.905 -0.0995  0.2482 -0.6967
   82SOPE  H16X 7582   7.143   0.017   3.886  0.3637  0.8034  1.0865
   82SOPE  H16Y 7583   7.034   0.144   3.867  0.6676 -0.4249 -2.7297
   82SOPE  C317 7584   6.947  -0.047   3.811 -0.2534 -0.2963  0.1630
   82SOPE  H17X 7585   6.849   0.005   3.810 -0.5629 -0.8518  0.4885
   82SOPE  H17Y 7586   6.936  -0.148   3.857 -0.3018 -0.0539  0.6967
   82SOPE  C318 7587   7.001  -0.063   3.674  0.0524 -0.0397 -0.8632
   82SOPE  H18X 7588   7.008   0.031   3.617 -0.5769  0.3301 -0.3489
   82SOPE  H18Y 7589   6.945  -0.142   3.619 -1.2071  0.2581 -0.0519
   82SOPE  H18Z 7590   7.108  -0.091   3.676  0.5262  1.6863  0.5913
   83SOPE     N 7591   3.035   5.274   1.470  0.3307 -0.6835  1.2627
   83SOPE   HN1 7592   2.960   5.324   1.419  0.6469 -0.5279  0.9464
   83SOPE   HN2 7593   3.093   5.221   1.402 -0.5082 -1.2524  0.9840
   83SOPE   HN3 7594   2.995   5.190   1.515  2.2068 -1.9556  0.7010
   83SOPE   C12 7595   3.089   5.373   1.563 -0.4700  0.3297 -0.0130
   83SOPE  H12A 7596   3.001   5.429   1.604 -0.5014  1.0567 -1.0144
   83SOPE  H12B 7597   3.157   5.446   1.514  2.7878 -2.7940 -0.5399
   83SOPE   C11 7598   3.148   5.289   1.683  0.0338  0.0351 -0.1271
   83SOPE  H11A 7599   3.063   5.234   1.728 -1.1712  0.8586 -1.3346
   83SOPE  H11B 7600   3.184   5.366   1.754 -0.8967  1.7533 -1.4581
   83SOPE     P 7601   3.286   5.093   1.761  0.0141  0.0789 -0.0224
   83SOPE   O13 7602   3.427   5.057   1.744 -0.2434  0.1360  0.0475
   83SOPE   O14 7603   3.180   4.990   1.749 -0.1155 -0.1853  0.3106
   83SOPE   O12 7604   3.259   5.204   1.647  0.4961  0.6158  0.2755
   83SOPE   O11 7605   3.263   5.172   1.899  0.2309 -0.3122  0.9341
   83SOPE    C1 7606   3.351   5.275   1.931  0.0211  0.6951  0.6820
   83SOPE    HA 7607   3.294   5.351   1.989 -3.3778 -0.6108 -0.6901
   83SOPE    HB 7608   3.392   5.330   1.843  0.1463 -1.7806 -0.9058
   83SOPE    C2 7609   3.472   5.225   2.016  0.0705  1.0298 -1.0731
   83SOPE    HS 7610   3.519   5.144   1.957  1.1923  0.5877  0.3846
   83SOPE   O21 7611   3.427   5.185   2.147 -0.4378  0.3238 -0.2794
   83SOPE   C21 7612   3.458   5.067   2.189  0.5236 -0.0911 -0.3474
   83SOPE   O22 7613   3.518   4.983   2.127  0.3298 -0.1747  0.0161
   83SOPE   C22 7614   3.407   5.042   2.330  1.0053 -0.0061 -0.5273
   83SOPE   H2R 7615   3.347   5.132   2.356  1.0661  0.2328 -1.1967
   83SOPE   H2S 7616   3.490   5.032   2.403  0.1904 -1.6372  0.2370
   83SOPE    C3 7617   3.573   5.348   2.025  0.1458  0.6815 -0.7519
   83SOPE    HX 7618   3.514   5.427   2.074 -1.0462 -0.7208  0.1658
   83SOPE    HY 7619   3.582   5.389   1.922 -0.0050 -0.4929 -1.2608
   83SOPE   O31 7620   3.694   5.316   2.089 -0.0085  0.7526  0.1434
   83SOPE   C31 7621   3.789   5.250   2.016  1.0077  0.2664  0.1863
   83SOPE   O32 7622   3.776   5.233   1.894 -0.4516 -0.3912  0.7292
   83SOPE   C32 7623   3.916   5.216   2.095  0.1926  0.2977 -0.1041
   83SOPE   H2X 7624   3.934   5.290   2.175 -1.2382  0.7189 -0.1383
   83SOPE   H2Y 7625   4.000   5.224   2.023 -0.6773  0.5170 -1.1257
   83SOPE   C23 7626   3.307   4.916   2.339  0.4237  0.1859 -0.3397
   83SOPE   H3R 7627   3.240   4.918   2.251  0.2872 -0.9837 -0.2753
   83SOPE   H3S 7628   3.246   4.924   2.432  1.2214 -0.3873  0.2547
   83SOPE   C24 7629   3.380   4.778   2.351  0.8569 -0.9013 -0.3182
   83SOPE   H4R 7630   3.308   4.696   2.334 -1.4471  0.2974  2.7361
   83SOPE   H4S 7631   3.466   4.786   2.280  0.6721  1.4955 -0.3655
   83SOPE   C25 7632   3.428   4.753   2.488  0.4629  0.1017 -0.1436
   83SOPE   H5R 7633   3.501   4.835   2.507 -0.5613  1.3693 -1.4205
   83SOPE   H5S 7634   3.350   4.768   2.566 -0.0417 -2.4136 -0.0976
   83SOPE   C26 7635   3.495   4.610   2.512  0.2200 -0.0281  0.2397
   83SOPE   H6R 7636   3.417   4.533   2.499 -1.5154  1.4269  1.6349
   83SOPE   H6S 7637   3.570   4.598   2.431 -0.8855  1.9435 -1.1858
   83SOPE   C27 7638   3.565   4.602   2.647  0.2062  0.2690  0.1707
   83SOPE   H7R 7639   3.503   4.639   2.731 -2.6495  1.7409 -2.3998
   83SOPE   H7S 7640   3.595   4.497   2.668  1.3783  0.4786 -0.3982
   83SOPE   C28 7641   3.691   4.695   2.650 -0.0562  0.7026 -0.5933
   83SOPE   H8R 7642   3.665   4.795   2.610 -0.7512  0.8966  0.3019
   83SOPE   H8S 7643   3.715   4.716   2.756  0.5179  2.7304 -1.0787
   83SOPE   C29 7644   3.809   4.639   2.578 -0.1389  0.6307 -0.1433
   83SOPE   H91 7645   3.793   4.598   2.477 -0.7706  1.8399 -0.5628
   83SOPE  C210 7646   3.928   4.636   2.634  0.0127  0.5821 -0.6234
   83SOPE  H101 7647   4.013   4.606   2.571 -0.1300  0.4466 -0.7501
   83SOPE  C211 7648   3.980   4.685   2.768 -0.2123  0.4431  0.3342
   83SOPE  H11R 7649   3.960   4.794   2.772 -1.0742  0.2676  1.1420
   83SOPE  H11S 7650   4.090   4.668   2.766 -0.2372  0.3010 -0.8294
   83SOPE  C212 7651   3.944   4.619   2.900  0.6663  0.2137  0.5249
   83SOPE  H12R 7652   3.964   4.510   2.901 -1.2036 -0.1565  0.5595
   83SOPE  H12S 7653   3.834   4.620   2.914  0.2767  0.8106 -2.1291
   83SOPE  C213 7654   4.014   4.692   3.014  0.7814  0.1756  1.2080
   83SOPE  H13R 7655   3.983   4.799   3.018 -0.4743 -0.2001  4.3378
   83SOPE  H13S 7656   4.124   4.682   2.996  0.6286 -1.7294  1.1073
   83SOPE  C214 7657   3.968   4.643   3.154 -1.0405 -0.5712  0.3858
   83SOPE  H14R 7658   3.969   4.532   3.162 -1.3156 -0.6322 -0.2886
   83SOPE  H14S 7659   3.862   4.674   3.151 -0.6970  1.0430  2.8046
   83SOPE  C215 7660   4.051   4.709   3.266  0.5623  0.4452  0.4814
   83SOPE  H15R 7661   4.048   4.819   3.250  0.9574  0.2369 -1.1839
   83SOPE  H15S 7662   4.157   4.684   3.246  0.5227  0.3019  0.4466
   83SOPE  C216 7663   4.030   4.644   3.403  0.0047 -0.1870 -0.1669
   83SOPE  H16R 7664   4.048   4.536   3.388  1.3665 -0.0423  0.3100
   83SOPE  H16S 7665   3.924   4.643   3.437  0.6772 -0.4140  2.0837
   83SOPE  C217 7666   4.122   4.702   3.512 -0.8889 -0.3769 -0.6018
   83SOPE  H17R 7667   4.083   4.805   3.525 -0.7560 -0.4149  0.1318
   83SOPE  H17S 7668   4.226   4.707   3.475 -1.0011  1.4067 -0.7618
   83SOPE  C218 7669   4.105   4.634   3.649  0.5135 -0.8470  0.2092
   83SOPE  H18R 7670   3.996   4.629   3.666  0.3979 -0.6982 -0.4384
   83SOPE  H18S 7671   4.140   4.693   3.737  0.4487  0.4805 -0.6172
   83SOPE  H18T 7672   4.132   4.527   3.648 -1.4846 -1.3861 -0.1191
   83SOPE   C33 7673   3.917   5.066   2.147  0.1643 -0.5669 -0.5412
   83SOPE   H3X 7674   4.022   5.046   2.177  0.6785  2.2099 -0.2948
   83SOPE   H3Y 7675   3.883   4.996   2.067 -0.3841 -1.2199  0.2457
   83SOPE   C34 7676   3.833   5.048   2.279  0.1476  0.1023  0.8840
   83SOPE   H4X 7677   3.809   4.942   2.302  0.8692  0.0235  1.2961
   83SOPE   H4Y 7678   3.735   5.097   2.259  0.9277  2.9185  3.2279
   83SOPE   C35 7679   3.898   5.113   2.401  0.0155 -0.1794 -0.1080
   83SOPE   H5X 7680   3.917   5.222   2.388 -2.1560  0.1104 -1.3845
   83SOPE   H5Y 7681   3.995   5.062   2.417  0.0986 -0.7775 -2.1656
   83SOPE   C36 7682   3.813   5.085   2.526 -0.8775  0.0650  0.6129
   83SOPE   H6X 7683   3.789   4.978   2.538  1.0708 -0.5133 -0.3420
   83SOPE   H6Y 7684   3.715   5.137   2.518 -0.4970  0.6239 -0.7450
   83SOPE   C37 7685   3.884   5.143   2.647 -0.5430  0.6118 -0.8235
   83SOPE   H7X 7686   3.903   5.252   2.643  1.1118  0.5157  1.7855
   83SOPE   H7Y 7687   3.984   5.095   2.645 -1.4906 -1.5917  0.5314
   83SOPE   C38 7688   3.817   5.106   2.781 -0.3071 -0.0384 -0.7925
   83SOPE   H8X 7689   3.770   5.006   2.771 -0.9208 -0.0248  1.4541
   83SOPE   H8Y 7690   3.731   5.174   2.796 -0.5830 -0.2121 -1.5771
   83SOPE   C39 7691   3.922   5.114   2.895 -0.5523  0.1766  0.7222
   83SOPE   H9X 7692   3.992   5.198   2.880  0.2888 -0.4339  1.1652
   83SOPE   H9Y 7693   3.984   5.023   2.903 -0.8142 -0.3372 -2.1269
   83SOPE  C310 7694   3.858   5.151   3.030  0.5287  0.0309  0.3491
   83SOPE  H10X 7695   3.785   5.070   3.050  0.3960 -0.0633 -0.4544
   83SOPE  H10Y 7696   3.804   5.249   3.031  0.4905  0.0083  0.4641
   83SOPE  C311 7697   3.957   5.158   3.147  0.0550  0.2140 -1.1216
   83SOPE  H11X 7698   4.036   5.236   3.141  1.7594 -1.2343  1.0625
   83SOPE  H11Y 7699   4.013   5.064   3.161  1.2979  1.3530  2.7145
   83SOPE  C312 7700   3.876   5.159   3.281 -0.2893 -0.5928  0.2186
   83SOPE  H12X 7701   3.789   5.090   3.274 -0.5376 -0.1296 -1.8660
   83SOPE  H12Y 7702   3.839   5.263   3.290 -0.9288 -0.4420 -3.0657
   83SOPE  C313 7703   3.970   5.121   3.391 -0.2732 -1.0166 -0.5536
   83SOPE  H13X 7704   4.053   5.194   3.378 -1.7097  0.7544 -0.2717
   83SOPE  H13Y 7705   4.007   5.019   3.369 -0.5076 -0.3969 -4.6055
   83SOPE  C314 7706   3.920   5.138   3.537 -0.6544  0.2129  0.3966
   83SOPE  H14X 7707   3.843   5.060   3.556  0.0878 -0.9932 -1.2468
   83SOPE  H14Y 7708   3.860   5.231   3.547 -0.8252 -0.1222  3.7120
   83SOPE  C315 7709   4.031   5.108   3.634 -0.4315 -0.2857  0.1898
   83SOPE  H15X 7710   4.057   5.000   3.628 -0.2899 -0.2638  0.3965
   83SOPE  H15Y 7711   3.997   5.130   3.737  0.5370 -0.1315  0.4884
   83SOPE  C316 7712   4.162   5.183   3.634  0.3587 -0.8942  0.4554
   83SOPE  H16X 7713   4.223   5.158   3.544  0.6912 -1.5106  0.8505
   83SOPE  H16Y 7714   4.217   5.159   3.727  3.5575  2.1430 -0.4179
   83SOPE  C317 7715   4.148   5.332   3.621 -0.3715 -0.3055 -0.6647
   83SOPE  H17X 7716   4.080   5.360   3.705 -0.2585  0.7242 -0.9081
   83SOPE  H17Y 7717   4.094   5.352   3.526  0.7430 -1.3682 -1.5573
   83SOPE  C318 7718   4.278   5.393   3.627  0.5762  0.0280  0.1314
   83SOPE  H18X 7719   4.330   5.377   3.530  0.3417 -0.1441  0.0346
   83SOPE  H18Y 7720   4.340   5.355   3.712 -0.6833  0.2901  1.1990
   83SOPE  H18Z 7721   4.273   5.504   3.637  0.5845 -0.1146  2.3594
   84SOPE     N 7722   2.408   3.894   1.865 -0.1653  0.0956 -0.0992
   84SOPE   HN1 7723   2.345   3.814   1.844 -1.2671  0.7912  0.4843
   84SOPE   HN2 7724   2.496   3.881   1.811  1.5236  2.7225  1.7424
   84SOPE   HN3 7725   2.434   3.893   1.966 -1.3634  2.4364  0.2997
   84SOPE   C12 7726   2.336   4.025   1.841  0.4630  0.3109 -0.2099
   84SOPE  H12A 7727   2.240   4.028   1.897  0.0188 -0.8451 -0.8744
   84SOPE  H12B 7728   2.303   4.025   1.735 -1.1766  1.1428  0.2767
   84SOPE   C11 7729   2.422   4.135   1.887 -0.1842 -0.9337  0.3658
   84SOPE  H11A 7730   2.441   4.115   1.995 -1.9583  1.1758  1.1444
   84SOPE  H11B 7731   2.369   4.232   1.881 -0.9546 -1.3569  0.2923
   84SOPE     P 7732   2.634   4.264   1.818 -0.1536 -0.5408 -0.0133
   84SOPE   O13 7733   2.555   4.384   1.778  0.1957 -0.3889  0.2328
   84SOPE   O14 7734   2.759   4.250   1.746  0.1747 -0.9600  1.0577
   84SOPE   O12 7735   2.540   4.127   1.809 -0.6768  0.2377 -0.6975
   84SOPE   O11 7736   2.659   4.279   1.974  0.4103 -0.3085 -0.3105
   84SOPE    C1 7737   2.723   4.172   2.052  0.0003 -0.3081 -0.1192
   84SOPE    HA 7738   2.826   4.202   2.081 -0.6939  0.9372  1.1729
   84SOPE    HB 7739   2.719   4.074   2.000  1.6091 -0.3265 -0.2601
   84SOPE    C2 7740   2.642   4.148   2.187  0.7956  0.0847 -0.2195
   84SOPE    HS 7741   2.532   4.135   2.177  0.2901  0.9941  3.0084
   84SOPE   O21 7742   2.660   4.262   2.270 -0.2831 -0.2393  0.3650
   84SOPE   C21 7743   2.596   4.283   2.382  0.1561 -0.9424  0.4094
   84SOPE   O22 7744   2.503   4.222   2.426 -0.0823  0.3729 -0.6294
   84SOPE   C22 7745   2.691   4.373   2.469 -0.2996 -0.1714 -0.0379
   84SOPE   H2R 7746   2.708   4.462   2.404  0.7115 -0.5193 -0.2616
   84SOPE   H2S 7747   2.784   4.315   2.485 -0.5234 -0.4864  0.1352
   84SOPE    C3 7748   2.683   4.016   2.254 -0.1289  0.2066  0.2600
   84SOPE    HX 7749   2.651   3.934   2.186 -0.6586  1.3292 -0.8750
   84SOPE    HY 7750   2.629   4.007   2.350 -2.7922 -0.1291 -1.1569
   84SOPE   O31 7751   2.827   4.026   2.257  0.3884  0.6365 -0.0022
   84SOPE   C31 7752   2.878   4.072   2.373  0.4403 -0.3222  0.6049
   84SOPE   O32 7753   2.812   4.099   2.471  0.4794 -0.4228 -0.1907
   84SOPE   C32 7754   3.027   4.068   2.360  1.0813 -0.0310 -0.1228
   84SOPE   H2X 7755   3.052   4.110   2.260 -2.4249  1.0672 -0.6560
   84SOPE   H2Y 7756   3.048   3.959   2.362 -1.1086 -0.4954  0.2210
   84SOPE   C23 7757   2.638   4.401   2.621  0.1327  0.1242  0.3012
   84SOPE   H3R 7758   2.575   4.315   2.653 -0.7994  0.2467 -1.1465
   84SOPE   H3S 7759   2.572   4.489   2.611  1.5147  1.2586  0.8603
   84SOPE   C24 7760   2.751   4.433   2.713  0.8329 -0.4748 -0.5488
   84SOPE   H4R 7761   2.818   4.345   2.724 -1.1498 -1.9473  0.4773
   84SOPE   H4S 7762   2.797   4.523   2.666 -2.0904  0.5107 -1.7928
   84SOPE   C25 7763   2.701   4.466   2.851 -0.5656 -0.5896  0.2940
   84SOPE   H5R 7764   2.645   4.558   2.825  1.0503 -0.3642 -2.9106
   84SOPE   H5S 7765   2.637   4.391   2.901 -0.5183 -1.0203 -0.2921
   84SOPE   C26 7766   2.823   4.497   2.943  0.1918  0.2589 -0.2225
   84SOPE   H6R 7767   2.866   4.403   2.984 -2.2508 -0.4836  0.7936
   84SOPE   H6S 7768   2.902   4.554   2.890  0.3958  0.1000 -0.0916
   84SOPE   C27 7769   2.785   4.585   3.069  1.1085  0.5211 -0.3913
   84SOPE   H7R 7770   2.693   4.536   3.108  1.1458 -0.3016 -1.2944
   84SOPE   H7S 7771   2.860   4.577   3.151  1.1373  2.1600 -0.2241
   84SOPE   C28 7772   2.758   4.732   3.037 -0.4106 -0.0446  0.2542
   84SOPE   H8R 7773   2.856   4.779   3.014 -1.0682  0.8869 -0.7586
   84SOPE   H8S 7774   2.696   4.742   2.945  0.6010  0.7065 -0.3773
   84SOPE   C29 7775   2.681   4.796   3.152 -1.1760 -0.4738  0.0923
   84SOPE   H91 7776   2.575   4.808   3.123 -1.4756 -0.5480  1.1236
   84SOPE  C210 7777   2.733   4.849   3.263 -0.2739  0.3053  0.1304
   84SOPE  H101 7778   2.671   4.890   3.343  0.7036 -1.0260  1.6466
   84SOPE  C211 7779   2.883   4.848   3.292  0.3427  0.1994 -0.6221
   84SOPE  H11R 7780   2.914   4.951   3.321 -2.7708  0.3471  2.8324
   84SOPE  H11S 7781   2.938   4.807   3.204  0.0495  1.5584 -1.4710
   84SOPE  C212 7782   2.922   4.766   3.418  0.5017  0.4505  0.1884
   84SOPE  H12R 7783   3.028   4.735   3.407  1.0434  1.9495  0.9718
   84SOPE  H12S 7784   2.860   4.674   3.415 -1.3217  1.6451 -1.1482
   84SOPE  C213 7785   2.905   4.851   3.550 -0.2922 -0.0569 -0.0434
   84SOPE  H13R 7786   2.796   4.865   3.560 -0.4221 -1.8852  1.6374
   84SOPE  H13S 7787   2.961   4.945   3.533  3.1209 -2.3230 -2.9762
   84SOPE  C214 7788   2.973   4.781   3.669  0.5740  0.8946  0.1035
   84SOPE  H14R 7789   3.020   4.865   3.723 -0.4927  0.6986  1.3846
   84SOPE  H14S 7790   3.058   4.724   3.627 -0.6337  1.2169 -3.1465
   84SOPE  C215 7791   2.879   4.686   3.746 -0.0035  0.2200  0.6864
   84SOPE  H15R 7792   2.838   4.614   3.672 -0.7952  1.1764  0.1761
   84SOPE  H15S 7793   2.797   4.753   3.779  0.3122  0.3981  1.1146
   84SOPE  C216 7794   2.944   4.618   3.863  0.4765 -0.3008 -0.2847
   84SOPE  H16R 7795   2.864   4.554   3.906 -1.9920  0.3515 -3.4602
   84SOPE  H16S 7796   2.966   4.698   3.937 -2.5565 -0.0431  0.4577
   84SOPE  C217 7797   3.071   4.535   3.823  0.5277 -0.1862  0.0787
   84SOPE  H17R 7798   3.116   4.517   3.923 -3.8069 -2.6980  1.8176
   84SOPE  H17S 7799   3.142   4.602   3.771 -0.6554  0.2770 -0.9792
   84SOPE  C218 7800   3.050   4.399   3.764  0.6610  0.9017  0.2410
   84SOPE  H18R 7801   2.979   4.338   3.824  0.0804  1.0985 -0.2280
   84SOPE  H18S 7802   3.147   4.352   3.738  0.5474  0.2159  1.0011
   84SOPE  H18T 7803   3.001   4.412   3.665  2.7489 -0.1473 -0.9944
   84SOPE   C33 7804   3.104   4.147   2.465 -0.4096 -0.5942  0.0556
   84SOPE   H3X 7805   3.207   4.108   2.449  0.6984  2.2728 -0.4318
   84SOPE   H3Y 7806   3.083   4.128   2.573  2.6716 -2.2514  0.4815
   84SOPE   C34 7807   3.101   4.300   2.440  1.0003 -0.5495 -0.6663
   84SOPE   H4X 7808   3.002   4.350   2.430  2.2007  1.8176 -1.7917
   84SOPE   H4Y 7809   3.141   4.319   2.338 -2.5302  1.5032 -1.8137
   84SOPE   C35 7810   3.190   4.373   2.552 -0.3254  0.7432  0.1721
   84SOPE   H5X 7811   3.198   4.482   2.531 -0.6891  1.4275  3.1853
   84SOPE   H5Y 7812   3.292   4.332   2.537 -1.2212 -1.1024 -1.2780
   84SOPE   C36 7813   3.150   4.343   2.701 -0.5320 -0.7869  0.0011
   84SOPE   H6X 7814   3.159   4.234   2.718 -1.0378 -1.3452 -2.8684
   84SOPE   H6Y 7815   3.040   4.358   2.707 -0.5898 -1.6683  1.5548
   84SOPE   C37 7816   3.215   4.434   2.802  0.1658 -0.5416 -0.7305
   84SOPE   H7X 7817   3.150   4.456   2.889  0.2771 -1.2998 -0.4416
   84SOPE   H7Y 7818   3.204   4.535   2.758  0.0882  0.1752  0.8786
   84SOPE   C38 7819   3.364   4.415   2.836  0.0832 -0.1323 -0.1016
   84SOPE   H8X 7820   3.393   4.506   2.893  0.9162  1.0611 -2.3303
   84SOPE   H8Y 7821   3.429   4.414   2.746 -1.2161 -1.7290 -1.0910
   84SOPE   C39 7822   3.399   4.285   2.917  0.8274 -0.6993  0.2898
   84SOPE   H9X 7823   3.388   4.202   2.844  2.1036  0.0546 -0.7926
   84SOPE   H9Y 7824   3.319   4.276   2.994  0.9664  1.7912  0.8085
   84SOPE  C310 7825   3.542   4.269   2.978 -0.2092 -0.1383  0.3132
   84SOPE  H10X 7826   3.607   4.319   2.902  1.1955  0.8265  2.0629
   84SOPE  H10Y 7827   3.571   4.163   2.996  2.6043  0.4808 -0.0349
   84SOPE  C311 7828   3.557   4.332   3.118 -0.2300  0.1159 -0.1960
   84SOPE  H11X 7829   3.483   4.289   3.188  0.1423 -0.9640 -0.4460
   84SOPE  H11Y 7830   3.553   4.442   3.100  2.9686  0.0178 -2.4820
   84SOPE  C312 7831   3.689   4.300   3.172  0.0981 -0.4049 -1.1993
   84SOPE  H12X 7832   3.763   4.364   3.120 -0.5770  1.9710  0.6112
   84SOPE  H12Y 7833   3.727   4.196   3.157  1.1406 -0.6273  2.1660
   84SOPE  C313 7834   3.704   4.306   3.321  0.2166  0.2261  0.4432
   84SOPE  H13X 7835   3.635   4.235   3.372  1.4552 -1.3715 -0.0043
   84SOPE  H13Y 7836   3.672   4.406   3.359 -0.1985  0.5738 -0.7934
   84SOPE  C314 7837   3.843   4.284   3.367 -0.5575 -0.1079 -1.0327
   84SOPE  H14X 7838   3.906   4.358   3.313 -0.1605 -1.3837 -2.3928
   84SOPE  H14Y 7839   3.895   4.191   3.336  2.8144  1.3976 -0.3307
   84SOPE  C315 7840   3.856   4.312   3.520  0.0820 -0.3945 -0.2632
   84SOPE  H15X 7841   3.779   4.252   3.573 -2.0942  0.8399 -1.8689
   84SOPE  H15Y 7842   3.839   4.418   3.546  2.9822  0.1401 -0.2108
   84SOPE  C316 7843   4.002   4.278   3.573  0.0198 -0.5034 -0.4646
   84SOPE  H16X 7844   4.071   4.346   3.520  0.5333 -0.9637 -0.3952
   84SOPE  H16Y 7845   4.033   4.176   3.541 -0.6323 -1.2537  1.1759
   84SOPE  C317 7846   4.019   4.297   3.723 -0.1503 -0.5882  0.0228
   84SOPE  H17X 7847   3.989   4.402   3.748  0.8513 -0.3266  0.1695
   84SOPE  H17Y 7848   4.128   4.302   3.740 -0.3024  1.3074  0.7894
   84SOPE  C318 7849   3.959   4.186   3.806  0.1935  0.1678  0.2533
   84SOPE  H18X 7850   3.851   4.177   3.782  0.5258  0.3575 -1.4370
   84SOPE  H18Y 7851   3.958   4.209   3.915 -0.5063  1.1379  0.0617
   84SOPE  H18Z 7852   4.003   4.085   3.797 -1.7952 -0.9466  1.9763
   85SOPE     N 7853   5.506   4.094   1.701  0.4295  0.2109 -0.3477
   85SOPE   HN1 7854   5.497   4.066   1.800  1.5626  0.9337 -0.0105
   85SOPE   HN2 7855   5.436   4.036   1.652  0.1306  0.2968 -0.0229
   85SOPE   HN3 7856   5.604   4.067   1.679  1.0618 -0.1131  2.4929
   85SOPE   C12 7857   5.475   4.236   1.679 -0.3080  0.2941 -0.2392
   85SOPE  H12A 7858   5.457   4.250   1.570 -0.1530  4.2578  0.1216
   85SOPE  H12B 7859   5.562   4.299   1.709 -0.0824  1.7443 -3.4991
   85SOPE   C11 7860   5.355   4.265   1.773 -0.9106 -0.3642  0.6085
   85SOPE  H11A 7861   5.356   4.374   1.798 -2.6743 -0.0455 -0.5466
   85SOPE  H11B 7862   5.364   4.201   1.863 -0.4793 -1.3983 -0.1495
   85SOPE     P 7863   5.154   4.356   1.636 -0.2440 -0.4920 -0.3816
   85SOPE   O13 7864   5.031   4.305   1.579 -0.9319  0.5877 -0.4307
   85SOPE   O14 7865   5.245   4.421   1.541 -0.0392 -0.1973  0.1244
   85SOPE   O12 7866   5.231   4.234   1.702  0.0317 -0.5813  0.6512
   85SOPE   O11 7867   5.112   4.457   1.750  0.0848 -0.3297 -0.1581
   85SOPE    C1 7868   5.025   4.406   1.852  0.6393  0.2549 -0.1903
   85SOPE    HA 7869   5.088   4.330   1.904 -0.1586  0.8449  1.7211
   85SOPE    HB 7870   4.928   4.362   1.820  0.2640  0.6526  0.3968
   85SOPE    C2 7871   4.990   4.513   1.962 -0.8597  0.3373 -0.2488
   85SOPE    HS 7872   4.932   4.593   1.910  0.1565  1.0056 -0.3723
   85SOPE   O21 7873   5.110   4.560   2.028 -0.1339 -0.6170  0.2911
   85SOPE   C21 7874   5.100   4.672   2.094  0.4408 -0.1562 -0.3147
   85SOPE   O22 7875   4.999   4.742   2.086  0.7001 -0.2290 -0.4758
   85SOPE   C22 7876   5.219   4.701   2.177 -0.1848 -0.9044  0.1233
   85SOPE   H2R 7877   5.265   4.788   2.125 -0.8200 -0.9638 -0.5508
   85SOPE   H2S 7878   5.286   4.613   2.174  2.6268  0.9881  2.0990
   85SOPE    C3 7879   4.906   4.428   2.072 -0.5227  0.0021 -0.2307
   85SOPE    HX 7880   4.969   4.342   2.104 -1.0904 -0.3238  0.0360
   85SOPE    HY 7881   4.821   4.369   2.032 -1.4185  1.1085 -0.0279
   85SOPE   O31 7882   4.874   4.500   2.195 -0.0460 -0.4039  0.2025
   85SOPE   C31 7883   4.765   4.566   2.196  0.4551  0.5444 -0.1295
   85SOPE   O32 7884   4.675   4.561   2.114  0.2032  0.1956  0.1832
   85SOPE   C32 7885   4.756   4.665   2.314 -0.1222  0.2047  0.0955
   85SOPE   H2X 7886   4.650   4.699   2.320  0.3469  1.9171 -0.7446
   85SOPE   H2Y 7887   4.819   4.753   2.289  0.3968  0.5128  2.2661
   85SOPE   C23 7888   5.174   4.749   2.316  0.6627  0.5743  0.0584
   85SOPE   H3R 7889   5.158   4.671   2.394 -1.2987 -0.2345 -1.0777
   85SOPE   H3S 7890   5.084   4.813   2.321  0.1423 -0.2134  2.6917
   85SOPE   C24 7891   5.280   4.832   2.380 -0.4281 -0.5904  0.1243
   85SOPE   H4R 7892   5.377   4.777   2.386 -0.5589 -0.8556 -0.1968
   85SOPE   H4S 7893   5.294   4.921   2.315  2.2258 -0.5563  0.6208
   85SOPE   C25 7894   5.230   4.883   2.520  0.8453  0.0851 -0.2286
   85SOPE   H5R 7895   5.124   4.914   2.511  0.4703 -1.2059 -0.4020
   85SOPE   H5S 7896   5.243   4.796   2.588  2.4199 -3.1743 -4.2502
   85SOPE   C26 7897   5.322   5.003   2.569 -0.0268 -0.7938 -0.1292
   85SOPE   H6R 7898   5.423   4.957   2.568 -0.4634 -1.8999 -2.6678
   85SOPE   H6S 7899   5.314   5.087   2.496 -0.7990  0.0646  0.9087
   85SOPE   C27 7900   5.287   5.057   2.711  0.2334  0.2897  0.3064
   85SOPE   H7R 7901   5.265   4.973   2.780  0.4276  1.2004  1.5131
   85SOPE   H7S 7902   5.377   5.111   2.745  0.1949  1.0966 -0.8098
   85SOPE   C28 7903   5.165   5.164   2.727 -0.1491  0.9747  0.0371
   85SOPE   H8R 7904   5.079   5.112   2.678 -0.5682 -0.1673  1.8825
   85SOPE   H8S 7905   5.152   5.171   2.837  0.4170  0.0715  0.1741
   85SOPE   C29 7906   5.207   5.293   2.667 -0.8636 -0.2775 -0.6985
   85SOPE   H91 7907   5.261   5.299   2.571  2.0733  2.8830  0.9319
   85SOPE  C210 7908   5.182   5.414   2.724  0.2144  0.3130  0.2382
   85SOPE  H101 7909   5.208   5.504   2.667 -0.4746  0.0237 -0.5440
   85SOPE  C211 7910   5.117   5.449   2.859 -0.2129  0.2596  0.8287
   85SOPE  H11R 7911   5.186   5.415   2.940  2.4895 -0.7151 -1.6663
   85SOPE  H11S 7912   5.023   5.391   2.862 -0.3621  0.4918  0.6488
   85SOPE  C212 7913   5.079   5.600   2.876 -0.2886  0.0557  0.0439
   85SOPE  H12R 7914   5.003   5.640   2.806 -1.7194  1.1517  2.1562
   85SOPE  H12S 7915   5.167   5.667   2.864  0.2685 -0.9689 -2.4621
   85SOPE  C213 7916   5.031   5.636   3.012 -0.6914 -0.2904 -0.2862
   85SOPE  H13R 7917   5.124   5.634   3.072  0.5085  1.7468 -1.9485
   85SOPE  H13S 7918   4.957   5.562   3.047 -1.5660 -0.1359 -1.7250
   85SOPE  C214 7919   4.974   5.775   3.027  0.0417 -0.1730  0.5020
   85SOPE  H14R 7920   4.887   5.772   2.957 -0.1797  2.1587  0.5815
   85SOPE  H14S 7921   5.041   5.855   2.987 -0.8300  0.2557 -0.1479
   85SOPE  C215 7922   4.933   5.810   3.172 -0.1265  0.5676  0.1505
   85SOPE  H15R 7923   4.870   5.727   3.210  0.2582 -0.0364 -0.5090
   85SOPE  H15S 7924   4.883   5.909   3.165 -2.4818 -0.5255  0.5687
   85SOPE  C216 7925   5.060   5.838   3.252 -0.6015  0.7854 -0.0750
   85SOPE  H16R 7926   5.133   5.895   3.190  0.2410 -1.3317 -1.1117
   85SOPE  H16S 7927   5.112   5.740   3.263 -2.4764 -0.5140 -2.0551
   85SOPE  C217 7928   5.041   5.895   3.392 -0.5560 -0.0119  0.5885
   85SOPE  H17R 7929   4.958   5.835   3.436  0.0480 -1.5034 -0.2122
   85SOPE  H17S 7930   5.004   5.998   3.374  0.2849 -0.1067 -2.2617
   85SOPE  C218 7931   5.169   5.897   3.469 -0.1178 -0.1808 -0.0301
   85SOPE  H18R 7932   5.249   5.954   3.417 -1.6783  1.1156 -1.1285
   85SOPE  H18S 7933   5.202   5.793   3.490 -0.7915 -0.3775  0.0713
   85SOPE  H18T 7934   5.156   5.940   3.571  0.7645  0.1790 -0.0633
   85SOPE   C33 7935   4.813   4.610   2.447  0.4255 -0.0576 -0.1366
   85SOPE   H3X 7936   4.910   4.556   2.437  1.1471  0.7927  1.7231
   85SOPE   H3Y 7937   4.740   4.541   2.495 -0.5716  0.1313 -1.3370
   85SOPE   C34 7938   4.842   4.727   2.545 -0.2047  0.3138  0.1758
   85SOPE   H4X 7939   4.758   4.800   2.543  1.0492  1.8100 -0.2834
   85SOPE   H4Y 7940   4.934   4.770   2.500 -0.2426 -1.0049 -1.2419
   85SOPE   C35 7941   4.861   4.687   2.688  0.6045 -0.2366 -0.0998
   85SOPE   H5X 7942   4.920   4.594   2.685  0.7162 -0.1892  0.5178
   85SOPE   H5Y 7943   4.759   4.663   2.726  0.8406 -2.1357 -0.5650
   85SOPE   C36 7944   4.934   4.792   2.771  0.4416  0.1809  0.2980
   85SOPE   H6X 7945   4.878   4.888   2.769 -0.4691 -0.3387  0.0804
   85SOPE   H6Y 7946   5.031   4.804   2.718 -0.0624  0.6256 -0.5606
   85SOPE   C37 7947   4.952   4.742   2.917 -0.2877  0.4432 -0.3936
   85SOPE   H7X 7948   5.012   4.649   2.912  1.5601  1.3796  1.8981
   85SOPE   H7Y 7949   4.852   4.717   2.958  0.5329  0.1589  1.5796
   85SOPE   C38 7950   5.028   4.840   3.011 -0.5205 -0.7391  0.1429
   85SOPE   H8X 7951   5.119   4.881   2.964 -1.2019  2.1030  1.0975
   85SOPE   H8Y 7952   5.058   4.788   3.105  0.6650 -0.9201 -0.3248
   85SOPE   C39 7953   4.946   4.960   3.061 -0.8229  0.0628 -0.5354
   85SOPE   H9X 7954   4.859   4.918   3.118 -0.9291 -1.4913 -1.7805
   85SOPE   H9Y 7955   4.915   5.011   2.968  1.3734  2.1459 -0.2085
   85SOPE  C310 7956   5.027   5.065   3.143  0.5872  0.0342  0.0163
   85SOPE  H10X 7957   5.097   5.118   3.076  0.2696 -0.9649 -1.1429
   85SOPE  H10Y 7958   5.089   5.010   3.217 -0.2767 -0.5384  0.3372
   85SOPE  C311 7959   4.935   5.164   3.218 -0.3555  0.1280  0.0356
   85SOPE  H11X 7960   5.005   5.225   3.280  2.4607 -0.9864 -1.8323
   85SOPE  H11Y 7961   4.859   5.125   3.288 -2.2531  4.1235  0.4419
   85SOPE  C312 7962   4.871   5.259   3.121 -1.4747  0.4321  0.2871
   85SOPE  H12X 7963   4.822   5.200   3.040 -0.2642  2.2914 -1.9025
   85SOPE  H12Y 7964   4.952   5.313   3.068 -1.6556 -1.5948 -2.2650
   85SOPE  C313 7965   4.784   5.362   3.184 -0.1327  0.1141  0.1559
   85SOPE  H13X 7966   4.852   5.429   3.241 -1.2030  0.8345  0.6192
   85SOPE  H13Y 7967   4.721   5.310   3.260  0.4485 -0.6152  0.1473
   85SOPE  C314 7968   4.690   5.443   3.095  0.2823 -0.2374 -0.0039
   85SOPE  H14X 7969   4.637   5.371   3.029 -0.2627 -0.0403  0.2097
   85SOPE  H14Y 7970   4.745   5.508   3.024 -1.0269  1.6304  0.6014
   85SOPE  C315 7971   4.590   5.539   3.158 -0.2895  0.2695  0.0467
   85SOPE  H15X 7972   4.539   5.575   3.066  0.0366  1.4012  0.2967
   85SOPE  H15Y 7973   4.640   5.627   3.203 -1.9355  0.3272  1.8947
   85SOPE  C316 7974   4.494   5.479   3.251  0.4459 -0.4020  0.1297
   85SOPE  H16X 7975   4.537   5.419   3.334 -0.7548 -1.4240  0.0295
   85SOPE  H16Y 7976   4.438   5.408   3.186  1.7180  1.2563 -3.0071
   85SOPE  C317 7977   4.388   5.577   3.312 -0.0730 -0.4324  0.4266
   85SOPE  H17X 7978   4.303   5.516   3.350  1.0986 -1.0341  2.2136
   85SOPE  H17Y 7979   4.361   5.650   3.233  0.8254 -1.0397 -0.4720
   85SOPE  C318 7980   4.447   5.657   3.430  0.1582 -0.3097 -0.5378
   85SOPE  H18X 7981   4.544   5.704   3.402 -0.6135  0.4015 -2.1521
   85SOPE  H18Y 7982   4.466   5.588   3.515  0.5503 -1.7185 -1.7260
   85SOPE  H18Z 7983   4.378   5.738   3.460 -0.0108 -1.1262  1.4107
   86SOPE     N 7984   5.339   1.305   1.837 -0.2475  0.1912  0.1807
   86SOPE   HN1 7985   5.323   1.369   1.917 -0.2252  0.1592  0.2109
   86SOPE   HN2 7986   5.355   1.212   1.880  0.7639 -0.3249 -1.2204
   86SOPE   HN3 7987   5.424   1.346   1.793  0.1510 -0.0278  0.7319
   86SOPE   C12 7988   5.208   1.314   1.771  0.9531 -0.1100  0.3638
   86SOPE  H12A 7989   5.221   1.261   1.674  2.7932 -0.8635  0.9779
   86SOPE  H12B 7990   5.195   1.422   1.748  0.3573 -0.5837 -1.8386
   86SOPE   C11 7991   5.097   1.260   1.870 -0.1330  0.5985 -0.3210
   86SOPE  H11A 7992   4.999   1.259   1.815  0.1431  3.4200 -1.0325
   86SOPE  H11B 7993   5.088   1.342   1.944  0.9286  0.6907 -0.2869
   86SOPE     P 7994   5.128   0.999   1.874 -0.1402 -0.1916 -0.0844
   86SOPE   O13 7995   5.251   0.964   1.802  0.0201  0.0153  0.0768
   86SOPE   O14 7996   4.999   1.003   1.803 -0.0073  0.3190  0.0638
   86SOPE   O12 7997   5.146   1.146   1.933 -0.1257  0.9989  0.0774
   86SOPE   O11 7998   5.111   0.893   1.988 -0.3980 -0.2438 -0.0523
   86SOPE    C1 7999   5.092   0.946   2.117  0.5334 -0.3814 -0.6672
   86SOPE    HA 8000   5.029   0.874   2.173 -0.4220  1.3132  0.4916
   86SOPE    HB 8001   5.039   1.043   2.120  1.0220 -0.0593 -1.7442
   86SOPE    C2 8002   5.223   0.956   2.196  0.3372 -0.4759  0.1838
   86SOPE    HS 8003   5.293   1.023   2.141  0.1115 -1.4496 -1.3622
   86SOPE   O21 8004   5.282   0.826   2.192 -0.2472 -0.4336 -0.1064
   86SOPE   C21 8005   5.392   0.811   2.266 -0.2423  0.1475 -0.1497
   86SOPE   O22 8006   5.456   0.892   2.328  0.0624 -0.0901  0.1539
   86SOPE   C22 8007   5.451   0.669   2.253  0.3293 -0.0223 -0.3233
   86SOPE   H2R 8008   5.500   0.657   2.154  3.5310 -1.6565  1.3188
   86SOPE   H2S 8009   5.368   0.596   2.267 -1.1723  1.4047 -1.4042
   86SOPE    C3 8010   5.194   1.015   2.332  0.7304  0.0188 -0.7865
   86SOPE    HX 8011   5.286   1.020   2.394  0.5492 -2.3495 -0.2228
   86SOPE    HY 8012   5.131   0.953   2.400  1.9852 -0.4299  0.0027
   86SOPE   O31 8013   5.133   1.145   2.332  0.5866  0.0416  0.4204
   86SOPE   C31 8014   5.200   1.246   2.285 -0.0379  0.1381 -0.4252
   86SOPE   O32 8015   5.319   1.245   2.261 -0.5765 -0.4345  0.2025
   86SOPE   C32 8016   5.106   1.361   2.244  0.3531  0.4900  0.4276
   86SOPE   H2X 8017   5.023   1.308   2.192  1.0971 -0.8915  0.6085
   86SOPE   H2Y 8018   5.157   1.430   2.175  2.4802 -2.3421 -1.0573
   86SOPE   C23 8019   5.569   0.645   2.348  0.1684 -1.0395  0.2525
   86SOPE   H3R 8020   5.633   0.736   2.349 -1.6237  0.2641  1.3625
   86SOPE   H3S 8021   5.624   0.567   2.292  0.0446 -0.6639 -0.4060
   86SOPE   C24 8022   5.519   0.600   2.484  0.0939 -0.0546 -0.3738
   86SOPE   H4R 8023   5.447   0.677   2.518 -0.3980 -0.1505 -1.1570
   86SOPE   H4S 8024   5.467   0.506   2.459  2.5538 -1.3027 -1.1664
   86SOPE   C25 8025   5.634   0.578   2.582  1.1039 -0.4181 -0.0601
   86SOPE   H5R 8026   5.693   0.486   2.561 -1.1748 -2.1901  0.8848
   86SOPE   H5S 8027   5.706   0.661   2.562 -0.0589  0.7228  0.3612
   86SOPE   C26 8028   5.605   0.595   2.731  0.4292  0.0022 -0.4806
   86SOPE   H6R 8029   5.701   0.593   2.788 -1.3303 -0.5665  2.7113
   86SOPE   H6S 8030   5.546   0.688   2.739 -1.7119 -1.1638 -1.8340
   86SOPE   C27 8031   5.521   0.484   2.784 -0.1605  0.0084 -0.2270
   86SOPE   H7R 8032   5.417   0.498   2.749 -1.1782  2.9414  3.3511
   86SOPE   H7S 8033   5.555   0.385   2.746  0.9552  1.6613 -3.8838
   86SOPE   C28 8034   5.514   0.482   2.935 -0.1513 -0.5960  0.1823
   86SOPE   H8R 8035   5.480   0.383   2.974  1.0605 -2.0987 -2.2840
   86SOPE   H8S 8036   5.614   0.504   2.976 -1.0694  1.2617  1.5341
   86SOPE   C29 8037   5.425   0.593   2.984 -0.4874  0.5544 -0.2930
   86SOPE   H91 8038   5.319   0.591   2.952 -0.2728  0.9203 -1.0409
   86SOPE  C210 8039   5.471   0.700   3.056  0.2980  0.2081  0.5936
   86SOPE  H101 8040   5.393   0.774   3.082 -1.1174  0.1333 -2.8921
   86SOPE  C211 8041   5.608   0.734   3.105  0.0319  0.4033  0.0212
   86SOPE  H11R 8042   5.686   0.701   3.033  2.1196  1.4912  1.6778
   86SOPE  H11S 8043   5.632   0.685   3.202  1.5653 -2.7272 -1.7741
   86SOPE  C212 8044   5.618   0.890   3.127  0.0260 -0.5929 -0.1591
   86SOPE  H12R 8045   5.692   0.895   3.209 -2.6169 -2.9712  2.6044
   86SOPE  H12S 8046   5.538   0.957   3.165  3.5009  1.4424  4.5275
   86SOPE  C213 8047   5.674   0.966   3.006  0.2663 -0.1440 -0.0906
   86SOPE  H13R 8048   5.769   0.916   2.978  0.8977  1.3515 -0.7534
   86SOPE  H13S 8049   5.704   1.066   3.046 -0.3732  0.0051  0.0226
   86SOPE  C214 8050   5.585   0.974   2.886  0.1102 -0.1717  0.3308
   86SOPE  H14R 8051   5.487   1.015   2.916  0.2154  0.3446 -0.0121
   86SOPE  H14S 8052   5.568   0.870   2.854 -0.0714  0.6187 -2.4052
   86SOPE  C215 8053   5.657   1.056   2.779 -0.1120 -0.3064  0.1224
   86SOPE  H15R 8054   5.741   0.999   2.735  0.4127  1.4101 -1.2330
   86SOPE  H15S 8055   5.699   1.150   2.820  0.3651 -0.6261  0.3620
   86SOPE  C216 8056   5.558   1.098   2.663 -0.1831  0.4662  0.0185
   86SOPE  H16R 8057   5.510   1.001   2.639  0.2567  0.1498  0.3797
   86SOPE  H16S 8058   5.608   1.119   2.566  2.4647 -0.6708  1.0186
   86SOPE  C217 8059   5.454   1.192   2.711 -0.2444 -0.5050  0.3968
   86SOPE  H17R 8060   5.500   1.273   2.772  1.3523 -1.6052  0.6987
   86SOPE  H17S 8061   5.377   1.135   2.767 -0.4434  0.9302  1.6737
   86SOPE  C218 8062   5.378   1.262   2.603 -0.2024  0.5557  0.5660
   86SOPE  H18R 8063   5.308   1.344   2.632 -0.6814  0.8352 -1.2585
   86SOPE  H18S 8064   5.323   1.185   2.546 -0.9612  1.5994 -0.1591
   86SOPE  H18T 8065   5.457   1.305   2.537 -0.6392 -0.3442 -0.5580
   86SOPE   C33 8066   5.047   1.428   2.376  0.2273 -0.6746  0.2583
   86SOPE   H3X 8067   5.023   1.354   2.456 -0.9673  0.3107  0.8469
   86SOPE   H3Y 8068   4.951   1.475   2.344 -0.8875 -0.1092  3.9369
   86SOPE   C34 8069   5.149   1.531   2.439 -0.2109  0.5709  0.2647
   86SOPE   H4X 8070   5.183   1.601   2.360 -2.0411  0.1354 -0.9705
   86SOPE   H4Y 8071   5.230   1.468   2.481 -1.0379 -1.2983 -0.8252
   86SOPE   C35 8072   5.094   1.618   2.559 -0.4968 -0.4757 -0.3476
   86SOPE   H5X 8073   4.986   1.644   2.551 -0.7785 -1.4960  0.0449
   86SOPE   H5Y 8074   5.147   1.716   2.556  1.0013 -1.1648  1.8282
   86SOPE   C36 8075   5.122   1.554   2.693 -0.1204 -0.1706 -0.2168
   86SOPE   H6X 8076   5.232   1.548   2.705 -0.1503  1.6969  1.4170
   86SOPE   H6Y 8077   5.074   1.454   2.681 -0.3477  0.1001 -1.9916
   86SOPE   C37 8078   5.060   1.638   2.811 -0.5100  0.8401 -0.1433
   86SOPE   H7X 8079   4.949   1.641   2.810 -0.5071  1.6296 -1.6789
   86SOPE   H7Y 8080   5.095   1.743   2.803 -0.3529  0.8623  0.7653
   86SOPE   C38 8081   5.109   1.584   2.947  0.4289 -0.2446  0.1092
   86SOPE   H8X 8082   5.220   1.588   2.954  0.6944 -2.4310 -1.7878
   86SOPE   H8Y 8083   5.077   1.478   2.948  0.9184 -0.3949  0.3335
   86SOPE   C39 8084   5.060   1.661   3.069 -0.1092  0.1090 -0.0179
   86SOPE   H9X 8085   4.952   1.637   3.083  0.1314 -1.1301 -0.1178
   86SOPE   H9Y 8086   5.067   1.771   3.060  0.5460  0.1416  0.8208
   86SOPE  C310 8087   5.142   1.615   3.198  0.0802 -0.5586 -0.0459
   86SOPE  H10X 8088   5.252   1.617   3.179  0.5210 -2.5362  1.9524
   86SOPE  H10Y 8089   5.117   1.507   3.210 -0.6815 -0.4248 -0.3943
   86SOPE  C311 8090   5.100   1.692   3.316  0.4155  0.9264  0.2071
   86SOPE  H11X 8091   4.990   1.679   3.309  0.6498 -1.6466  0.2285
   86SOPE  H11Y 8092   5.133   1.798   3.317  0.0304  1.0538  1.9275
   86SOPE  C312 8093   5.143   1.609   3.443  0.6025 -0.2493 -0.0649
   86SOPE  H12X 8094   5.113   1.502   3.441 -1.6829  0.3080  0.6385
   86SOPE  H12Y 8095   5.083   1.649   3.528 -0.0931  0.2863 -0.7898
   86SOPE  C313 8096   5.284   1.614   3.476 -0.0530 -0.1243 -0.4659
   86SOPE  H13X 8097   5.321   1.718   3.460  0.3871 -0.0480  0.9071
   86SOPE  H13Y 8098   5.341   1.555   3.402  0.5789 -0.5321  0.3260
   86SOPE  C314 8099   5.316   1.567   3.615  0.9939  0.4121 -0.2378
   86SOPE  H14X 8100   5.277   1.463   3.622  1.0596  0.3731 -0.4463
   86SOPE  H14Y 8101   5.254   1.613   3.695 -0.1733 -1.9348  0.2930
   86SOPE  C315 8102   5.468   1.552   3.641  0.4498 -0.2975  0.0021
   86SOPE  H15X 8103   5.515   1.651   3.658 -2.3608  1.0537  0.4762
   86SOPE  H15Y 8104   5.501   1.507   3.545 -2.0622 -0.3538 -0.9034
   86SOPE  C316 8105   5.501   1.468   3.768 -0.2550  0.1763  0.5442
   86SOPE  H16X 8106   5.443   1.373   3.760 -2.6817  1.5348  0.9753
   86SOPE  H16Y 8107   5.466   1.509   3.865 -1.1791 -1.7635  1.0876
   86SOPE  C317 8108   5.653   1.438   3.764  0.5552 -0.3046  0.0345
   86SOPE  H17X 8109   5.723   1.520   3.792 -0.3891  1.5256 -2.5089
   86SOPE  H17Y 8110   5.669   1.409   3.658 -0.5672 -2.2744  0.3613
   86SOPE  C318 8111   5.687   1.325   3.860  0.1461 -0.6675  0.7365
   86SOPE  H18X 8112   5.793   1.299   3.838  0.7777 -0.8283  3.5986
   86SOPE  H18Y 8113   5.625   1.234   3.845 -0.8338  0.2420 -1.1323
   86SOPE  H18Z 8114   5.681   1.367   3.962  0.4341 -0.8396  0.8257
   87SOPE     N 8115   5.335   0.675   1.664  0.3331  0.2181 -0.4590
   87SOPE   HN1 8116   5.347   0.771   1.700  2.7957 -0.3006  0.2779
   87SOPE   HN2 8117   5.382   0.687   1.572  2.9140  0.7476  0.8457
   87SOPE   HN3 8118   5.235   0.645   1.662 -0.0020  1.1982  0.7162
   87SOPE   C12 8119   5.397   0.574   1.746  0.3734 -0.1355 -0.2734
   87SOPE  H12A 8120   5.482   0.531   1.688  1.2229  0.1355  0.7339
   87SOPE  H12B 8121   5.319   0.499   1.772  0.6524 -0.7462 -1.1692
   87SOPE   C11 8122   5.437   0.639   1.886 -0.7595  0.8876 -0.2950
   87SOPE  H11A 8123   5.490   0.565   1.950 -3.0541  0.7951  1.6106
   87SOPE  H11B 8124   5.346   0.645   1.949  1.3947 -1.9180  3.5614
   87SOPE     P 8125   5.657   0.753   1.849 -0.0377  0.5314  0.3727
   87SOPE   O13 8126   5.718   0.885   1.822 -0.1544  0.0411 -0.2305
   87SOPE   O14 8127   5.680   0.641   1.756 -0.0859  0.1891  0.2598
   87SOPE   O12 8128   5.502   0.764   1.871 -0.2978  0.6322  0.0835
   87SOPE   O11 8129   5.697   0.715   1.995  0.2070  0.1660  0.0387
   87SOPE    C1 8130   5.830   0.704   2.037 -0.4220 -0.2053  0.0409
   87SOPE    HA 8131   5.836   0.714   2.148  1.5939 -0.1706 -0.0390
   87SOPE    HB 8132   5.889   0.785   1.989 -2.3312 -1.0783 -4.2329
   87SOPE    C2 8133   5.889   0.561   2.004 -0.1771  0.4913  0.9682
   87SOPE    HS 8134   5.797   0.509   1.971 -0.7639 -0.2065  3.4940
   87SOPE   O21 8135   5.955   0.508   2.118 -0.0947 -0.6443 -0.1669
   87SOPE   C21 8136   5.962   0.375   2.107  0.4636  0.1070 -0.1062
   87SOPE   O22 8137   5.919   0.309   2.018 -0.1461 -0.0928  0.2330
   87SOPE   C22 8138   6.032   0.321   2.233  0.2300  0.2353  0.6522
   87SOPE   H2R 8139   6.137   0.353   2.216 -0.3364  1.9107  0.0742
   87SOPE   H2S 8140   6.020   0.211   2.232 -1.5677  0.4037  0.7782
   87SOPE    C3 8141   5.994   0.581   1.891  0.3337 -0.0296 -0.5402
   87SOPE    HX 8142   5.945   0.644   1.813 -0.7834  1.2729  1.1262
   87SOPE    HY 8143   6.029   0.487   1.844  0.3778 -0.2611 -0.0435
   87SOPE   O31 8144   6.099   0.665   1.942 -0.6282  0.8395 -0.3150
   87SOPE   C31 8145   6.211   0.602   1.965 -0.0743  0.8522  0.6094
   87SOPE   O32 8146   6.231   0.487   1.923 -0.2983  0.3323 -0.5915
   87SOPE   C32 8147   6.303   0.682   2.046  0.2494  0.5387  0.6405
   87SOPE   H2X 8148   6.245   0.766   2.089  0.6393  0.4146  1.4305
   87SOPE   H2Y 8149   6.385   0.726   1.987 -0.4200 -0.2428 -0.9284
   87SOPE   C23 8150   5.970   0.381   2.364 -0.0248 -0.3229  0.0369
   87SOPE   H3R 8151   5.927   0.310   2.438 -1.6318  1.2360  0.6828
   87SOPE   H3S 8152   5.884   0.450   2.350 -0.9252 -1.5691 -0.8281
   87SOPE   C24 8153   6.067   0.463   2.450  0.1023 -0.0383 -0.6915
   87SOPE   H4R 8154   6.148   0.396   2.485 -0.8221 -0.8620 -0.0661
   87SOPE   H4S 8155   6.123   0.539   2.392  1.4555  0.7910  1.6228
   87SOPE   C25 8156   6.010   0.524   2.585  0.6213  0.2953  0.3109
   87SOPE   H5R 8157   5.985   0.626   2.551  0.5305 -0.5632 -2.3995
   87SOPE   H5S 8158   5.921   0.472   2.626 -1.3591  4.0804  1.2365
   87SOPE   C26 8159   6.122   0.546   2.691 -0.2342  0.5336  0.6088
   87SOPE   H6R 8160   6.154   0.444   2.723 -0.6488  0.4003  0.6061
   87SOPE   H6S 8161   6.199   0.584   2.621 -0.3968 -0.5253 -0.1590
   87SOPE   C27 8162   6.091   0.660   2.791 -0.1449 -0.1561 -0.7722
   87SOPE   H7R 8163   6.185   0.697   2.836  0.4732 -2.2274 -0.2548
   87SOPE   H7S 8164   6.038   0.741   2.736  1.6595  2.1614  0.7673
   87SOPE   C28 8165   6.026   0.597   2.919  0.6460 -0.4663 -0.1384
   87SOPE   H8R 8166   6.001   0.675   2.994 -0.7722  0.3444 -1.3987
   87SOPE   H8S 8167   5.933   0.543   2.890 -0.5448 -0.1339  2.6982
   87SOPE   C29 8168   6.123   0.498   2.981  0.3861  0.2678  0.3166
   87SOPE   H91 8169   6.211   0.475   2.919 -0.3265  1.2491 -1.1216
   87SOPE  C210 8170   6.125   0.458   3.112  0.1572 -0.0205 -0.1134
   87SOPE  H101 8171   6.208   0.394   3.144 -0.4974 -1.1165 -0.5129
   87SOPE  C211 8172   6.040   0.495   3.230  0.4085  0.1190  0.0500
   87SOPE  H11R 8173   6.011   0.405   3.288  0.4257 -1.1216 -1.7697
   87SOPE  H11S 8174   5.943   0.540   3.199  1.9234  2.6106 -1.3556
   87SOPE  C212 8175   6.099   0.589   3.340 -0.2327 -0.4633 -0.5063
   87SOPE  H12R 8176   6.022   0.620   3.413 -1.7624 -1.6662 -1.5277
   87SOPE  H12S 8177   6.135   0.677   3.283 -0.9308 -0.4834 -0.9933
   87SOPE  C213 8178   6.214   0.530   3.420  0.3354 -0.7864 -0.0212
   87SOPE  H13R 8179   6.256   0.605   3.491 -0.6072  0.0298 -0.3055
   87SOPE  H13S 8180   6.300   0.487   3.364  0.0424  1.2863 -2.2042
   87SOPE  C214 8181   6.170   0.434   3.527  0.3489 -0.4393  0.1223
   87SOPE  H14R 8182   6.131   0.342   3.478 -0.5155 -0.6750  1.2178
   87SOPE  H14S 8183   6.086   0.479   3.584  2.1382  3.2563  0.1172
   87SOPE  C215 8184   6.284   0.385   3.621  0.5607 -0.3665  0.0385
   87SOPE  H15R 8185   6.373   0.359   3.560  0.7231 -0.2225  0.2166
   87SOPE  H15S 8186   6.247   0.292   3.667  0.2013 -0.2428  0.0035
   87SOPE  C216 8187   6.326   0.483   3.738 -0.2642  0.7750 -0.2323
   87SOPE  H16R 8188   6.248   0.506   3.815 -0.1452  1.5713 -0.3362
   87SOPE  H16S 8189   6.349   0.585   3.699 -1.9579  2.2283  2.2405
   87SOPE  C217 8190   6.453   0.431   3.814  0.2751  0.1065 -0.8603
   87SOPE  H17R 8191   6.531   0.410   3.737  1.8012  3.1066 -0.3126
   87SOPE  H17S 8192   6.430   0.345   3.880 -2.5269  1.8835  0.6688
   87SOPE  C218 8193   6.523   0.546   3.905 -0.1524  0.1688  0.6323
   87SOPE  H18R 8194   6.630   0.523   3.926 -0.5566 -2.6874 -0.0203
   87SOPE  H18S 8195   6.465   0.564   3.998 -0.8507  0.0114  0.2329
   87SOPE  H18T 8196   6.522   0.645   3.853 -3.4996  1.2499  2.4691
   87SOPE   C33 8197   6.350   0.588   2.155 -0.6001  0.5878  0.4825
   87SOPE   H3X 8198   6.419   0.515   2.107 -0.8351  1.1002 -0.6742
   87SOPE   H3Y 8199   6.269   0.533   2.209 -1.6072 -0.2194 -1.7101
   87SOPE   C34 8200   6.435   0.667   2.258 -0.1810 -1.1647  0.8993
   87SOPE   H4X 8201   6.382   0.760   2.291  2.8645  1.0434  0.0181
   87SOPE   H4Y 8202   6.529   0.710   2.216 -0.1505 -0.3269  1.7751
   87SOPE   C35 8203   6.473   0.576   2.382  0.3394  0.2078 -0.4189
   87SOPE   H5X 8204   6.555   0.507   2.355  1.0142  0.5591  0.6873
   87SOPE   H5Y 8205   6.382   0.513   2.390  1.0521 -0.6390  1.9012
   87SOPE   C36 8206   6.499   0.662   2.509 -0.4738  1.1080 -0.3764
   87SOPE   H6X 8207   6.412   0.728   2.522 -0.3592  1.7609 -2.5651
   87SOPE   H6Y 8208   6.590   0.726   2.511  0.8697 -0.6872  0.0649
   87SOPE   C37 8209   6.522   0.579   2.636  0.0065 -0.5503 -0.2626
   87SOPE   H7X 8210   6.619   0.526   2.638  0.2555 -0.1458  2.9701
   87SOPE   H7Y 8211   6.452   0.493   2.650 -1.9654  1.1531  0.9146
   87SOPE   C38 8212   6.497   0.652   2.761  0.4079  0.2550 -0.4667
   87SOPE   H8X 8213   6.393   0.691   2.761  0.6788  1.0168 -0.9882
   87SOPE   H8Y 8214   6.559   0.745   2.759 -0.9066  1.3267  2.8558
   87SOPE   C39 8215   6.523   0.573   2.891 -0.9455 -0.6816  0.4061
   87SOPE   H9X 8216   6.631   0.548   2.901 -2.0070 -5.2775  3.3554
   87SOPE   H9Y 8217   6.463   0.480   2.890 -0.9110 -0.7233 -1.2111
   87SOPE  C310 8218   6.497   0.642   3.030  0.2715 -0.5622  0.4682
   87SOPE  H10X 8219   6.538   0.588   3.118 -1.1192 -0.8718  0.9619
   87SOPE  H10Y 8220   6.386   0.646   3.036  0.0986 -1.9388 -1.0400
   87SOPE  C311 8221   6.549   0.780   3.063  0.2216 -0.4437  0.1283
   87SOPE  H11X 8222   6.543   0.851   2.978 -0.8285  2.2680  2.3115
   87SOPE  H11Y 8223   6.659   0.773   3.080  0.3680  0.2048 -0.5057
   87SOPE  C312 8224   6.473   0.842   3.182  0.9071 -0.3077 -0.1980
   87SOPE  H12X 8225   6.483   0.774   3.269 -0.9216  1.3125  1.3689
   87SOPE  H12Y 8226   6.366   0.835   3.154  0.4432 -2.2095  1.7498
   87SOPE  C313 8227   6.521   0.967   3.243 -0.6507  0.0050  0.2381
   87SOPE  H13X 8228   6.504   1.052   3.174 -2.0162 -0.0718  0.4583
   87SOPE  H13Y 8229   6.629   0.949   3.265 -0.9216 -0.7384  0.9917
   87SOPE  C314 8230   6.444   1.005   3.381 -0.4856  0.4085  0.0530
   87SOPE  H14X 8231   6.424   0.917   3.446  0.0879 -0.4762 -0.9363
   87SOPE  H14Y 8232   6.345   1.051   3.360 -0.2726  0.6651 -0.4034
   87SOPE  C315 8233   6.530   1.097   3.467  0.4189 -0.2284  0.2785
   87SOPE  H15X 8234   6.461   1.161   3.526 -0.5306 -2.5819  1.8775
   87SOPE  H15Y 8235   6.586   1.161   3.395 -0.6025  1.8644  1.2592
   87SOPE  C316 8236   6.624   1.033   3.564 -0.2479 -0.7932  0.3090
   87SOPE  H16X 8237   6.677   1.120   3.610 -0.5318 -1.0632  1.1647
   87SOPE  H16Y 8238   6.687   0.962   3.508 -1.0138 -0.1212 -1.4718
   87SOPE  C317 8239   6.565   0.970   3.692 -0.0766  0.9265  0.7536
   87SOPE  H17X 8240   6.530   0.872   3.652 -0.8515  2.0669 -1.5572
   87SOPE  H17Y 8241   6.481   1.035   3.725 -2.3159 -0.1750 -2.2944
   87SOPE  C318 8242   6.672   0.944   3.799  0.0549  0.4990  0.1000
   87SOPE  H18X 8243   6.621   0.911   3.892 -0.6973  0.3221 -0.3663
   87SOPE  H18Y 8244   6.726   1.040   3.814 -0.6603  0.9148  0.0207
   87SOPE  H18Z 8245   6.743   0.863   3.768 -0.6721 -0.4698  0.8980
   88SOPE     N 8246   7.125   1.333   1.439 -0.2036  0.4937 -0.5825
   88SOPE   HN1 8247   7.195   1.271   1.486 -1.8783 -0.2610  1.0404
   88SOPE   HN2 8248   7.150   1.369   1.345 -1.5345  2.4590 -0.2280
   88SOPE   HN3 8249   7.104   1.409   1.507 -0.4248 -0.6763  0.7159
   88SOPE   C12 8250   7.010   1.242   1.417  0.0843  0.0912 -0.2128
   88SOPE  H12A 8251   7.047   1.155   1.359  1.8265 -0.3101  1.3879
   88SOPE  H12B 8252   6.931   1.293   1.360 -0.1452  0.7537  0.6726
   88SOPE   C11 8253   6.959   1.186   1.549 -0.3576 -0.4864 -0.6128
   88SOPE  H11A 8254   7.039   1.126   1.599 -0.0496  0.9603  0.6872
   88SOPE  H11B 8255   6.881   1.114   1.516 -2.7157  1.0709  1.2619
   88SOPE     P 8256   6.973   1.353   1.760  0.3472  0.3944 -0.5156
   88SOPE   O13 8257   6.868   1.386   1.857 -0.3513  0.7475 -0.1999
   88SOPE   O14 8258   7.039   1.472   1.711 -0.1298 -0.2851 -0.0084
   88SOPE   O12 8259   6.899   1.286   1.636 -0.5272  0.7111  0.6724
   88SOPE   O11 8260   7.076   1.235   1.808 -0.5911  0.4205  0.0601
   88SOPE    C1 8261   7.199   1.265   1.867 -0.2347  0.0921  0.1797
   88SOPE    HA 8262   7.254   1.336   1.801 -0.2124 -0.5698 -0.5192
   88SOPE    HB 8263   7.258   1.172   1.873  1.8421  1.2887 -0.5799
   88SOPE    C2 8264   7.203   1.333   2.015  0.4427  0.4919 -0.1723
   88SOPE    HS 8265   7.301   1.300   2.056  0.6335 -0.6846 -1.4712
   88SOPE   O21 8266   7.101   1.279   2.099  0.1188  1.0258  0.2560
   88SOPE   C21 8267   7.079   1.149   2.097  0.8193 -0.1388 -0.3124
   88SOPE   O22 8268   7.147   1.065   2.045 -0.8261  0.7049  0.1502
   88SOPE   C22 8269   6.955   1.117   2.181 -0.0221  0.8055  0.0998
   88SOPE   H2R 8270   6.890   1.046   2.125  1.2985 -0.5560  0.2070
   88SOPE   H2S 8271   6.899   1.212   2.197 -0.0199  0.6590  1.0452
   88SOPE    C3 8272   7.196   1.487   2.027 -0.8955 -0.2431 -0.1312
   88SOPE    HX 8273   7.107   1.520   1.968  0.3865  3.5054 -0.2278
   88SOPE    HY 8274   7.272   1.540   1.966  1.3388 -2.4917  0.5225
   88SOPE   O31 8275   7.180   1.529   2.161 -0.0277  0.1815 -0.4703
   88SOPE   C31 8276   7.284   1.513   2.236 -0.8150  0.4413 -0.1705
   88SOPE   O32 8277   7.396   1.479   2.203 -0.2210  0.2116  0.5446
   88SOPE   C32 8278   7.255   1.556   2.382  0.2862  0.1739  0.1037
   88SOPE   H2X 8279   7.172   1.494   2.422  0.6005  0.5305  1.3621
   88SOPE   H2Y 8280   7.222   1.662   2.387 -1.1715 -0.2768  0.6961
   88SOPE   C23 8281   7.003   1.044   2.311  0.1075 -0.6121 -0.2722
   88SOPE   H3R 8282   7.054   0.948   2.289  1.2260 -0.1411  0.1860
   88SOPE   H3S 8283   6.909   1.030   2.369 -1.2595  1.8406 -1.7306
   88SOPE   C24 8284   7.099   1.127   2.408 -0.7833  0.5219  0.9897
   88SOPE   H4R 8285   7.193   1.159   2.358  0.0439 -0.2780  1.9800
   88SOPE   H4S 8286   7.041   1.217   2.436  0.8132  2.1174 -0.5641
   88SOPE   C25 8287   7.141   1.056   2.535  0.2786  0.2073 -0.1881
   88SOPE   H5R 8288   7.053   1.021   2.593  1.5089 -0.7150  1.1982
   88SOPE   H5S 8289   7.190   0.958   2.517  0.4844  0.2917 -0.0924
   88SOPE   C26 8290   7.232   1.131   2.634  0.0263 -0.3236  0.1758
   88SOPE   H6R 8291   7.328   1.153   2.583 -1.5550  2.3693 -1.9528
   88SOPE   H6S 8292   7.195   1.236   2.640 -0.3319 -0.3313 -1.3742
   88SOPE   C27 8293   7.240   1.053   2.766 -0.5130  0.1870  0.4107
   88SOPE   H7R 8294   7.136   1.054   2.805 -0.2351 -0.5008  1.2115
   88SOPE   H7S 8295   7.254   0.948   2.731 -1.5133  0.2061 -0.0798
   88SOPE   C28 8296   7.335   1.098   2.877 -0.4860 -0.6156  0.1593
   88SOPE   H8R 8297   7.336   1.023   2.959  0.1904 -1.7730 -0.8556
   88SOPE   H8S 8298   7.439   1.106   2.839 -0.4062  1.8366  0.7313
   88SOPE   C29 8299   7.291   1.233   2.926  0.1335  0.6401  0.0675
   88SOPE   H91 8300   7.281   1.315   2.854 -1.0086 -1.5032 -2.3588
   88SOPE  C210 8301   7.259   1.258   3.053 -1.0049 -0.7572  0.4538
   88SOPE  H101 8302   7.232   1.363   3.071  1.3491 -0.4411  2.7181
   88SOPE  C211 8303   7.262   1.173   3.180  0.0645  0.3560  0.4353
   88SOPE  H11R 8304   7.296   1.069   3.162 -2.4222 -0.8277  2.0764
   88SOPE  H11S 8305   7.166   1.166   3.236  2.4399 -0.9221  4.8803
   88SOPE  C212 8306   7.357   1.230   3.286  0.2076  0.6264 -0.1870
   88SOPE  H12R 8307   7.325   1.328   3.326 -0.7207  0.7101 -1.0927
   88SOPE  H12S 8308   7.460   1.249   3.248  0.5740 -0.3408  0.2909
   88SOPE  C213 8309   7.385   1.128   3.410 -0.7343 -0.8414  0.5268
   88SOPE  H13R 8310   7.399   1.025   3.370  1.8491 -0.2382 -0.3548
   88SOPE  H13S 8311   7.287   1.134   3.460 -0.6450  0.9014  0.5554
   88SOPE  C214 8312   7.501   1.169   3.509  0.2339 -0.7420  0.2278
   88SOPE  H14R 8313   7.467   1.265   3.552 -2.7901 -0.9680 -1.3913
   88SOPE  H14S 8314   7.588   1.186   3.441 -0.0152  0.7041  0.2297
   88SOPE  C215 8315   7.528   1.076   3.625 -0.0118  0.2369 -0.5076
   88SOPE  H15R 8316   7.625   1.105   3.672  0.1141 -0.0266 -0.6001
   88SOPE  H15S 8317   7.557   0.974   3.592 -1.5788 -0.3269 -0.2056
   88SOPE  C216 8318   7.419   1.073   3.735  0.1473  0.9159  0.2990
   88SOPE  H16R 8319   7.342   1.017   3.677  1.2072 -0.1017 -0.1532
   88SOPE  H16S 8320   7.398   1.181   3.754 -1.9189  0.7338 -0.6873
   88SOPE  C217 8321   7.455   0.991   3.858  0.2613  0.1333  1.5639
   88SOPE  H17R 8322   7.549   1.030   3.902  0.1033  1.9971  0.3937
   88SOPE  H17S 8323   7.467   0.883   3.835  3.1429  0.4934  1.0930
   88SOPE  C218 8324   7.339   0.992   3.961  0.0231  0.0253  0.0300
   88SOPE  H18R 8325   7.300   1.095   3.974 -0.3930 -0.0275 -0.7743
   88SOPE  H18S 8326   7.376   0.967   4.063 -1.0013  0.4188  0.5138
   88SOPE  H18T 8327   7.254   0.936   3.918  1.2751 -1.6864 -0.3123
   88SOPE   C33 8328   7.378   1.551   2.485  0.2192 -0.0167 -0.9189
   88SOPE   H3X 8329   7.445   1.632   2.450 -1.0947  0.7359 -1.7729
   88SOPE   H3Y 8330   7.435   1.456   2.474  0.2925  0.1300 -1.8426
   88SOPE   C34 8331   7.331   1.559   2.634  0.0380 -0.2766  0.7114
   88SOPE   H4X 8332   7.267   1.471   2.657 -0.8242  0.7203  2.3386
   88SOPE   H4Y 8333   7.262   1.646   2.634 -0.1785 -0.0382 -5.2211
   88SOPE   C35 8334   7.451   1.581   2.720  0.0663  0.1950 -0.6109
   88SOPE   H5X 8335   7.526   1.657   2.691 -2.1123  2.6746 -0.2010
   88SOPE   H5Y 8336   7.501   1.487   2.754 -0.8381 -0.2990 -0.6032
   88SOPE   C36 8337   7.408   1.649   2.855  0.1436  0.0035  0.0494
   88SOPE   H6X 8338   7.307   1.612   2.884 -1.7548  3.3911 -1.5871
   88SOPE   H6Y 8339   7.416   1.760   2.845 -0.2590 -0.0488 -0.9930
   88SOPE   C37 8340   7.505   1.598   2.962  0.6227 -0.3692  0.1078
   88SOPE   H7X 8341   7.606   1.641   2.947  0.2546  0.3028 -0.5721
   88SOPE   H7Y 8342   7.500   1.487   2.959 -0.9170 -0.3065 -1.8438
   88SOPE   C38 8343   7.464   1.664   3.106  0.6655  0.6847  0.0855
   88SOPE   H8X 8344   7.526   1.617   3.185  2.1042  0.3936 -1.1727
   88SOPE   H8Y 8345   7.358   1.636   3.122  0.2185  2.2713  0.0595
   88SOPE   C39 8346   7.506   1.810   3.110  0.6311 -0.1454 -0.3747
   88SOPE   H9X 8347   7.517   1.853   3.008  1.1096  0.4161 -0.0922
   88SOPE   H9Y 8348   7.612   1.797   3.141  0.6017  0.2494 -0.1073
   88SOPE  C310 8349   7.428   1.899   3.195  0.0214 -0.4156 -0.4959
   88SOPE  H10X 8350   7.322   1.903   3.161  0.0095 -0.9813 -0.5439
   88SOPE  H10Y 8351   7.453   2.007   3.189 -1.2959 -0.1400 -1.5421
   88SOPE  C311 8352   7.437   1.860   3.344 -0.0407  0.0086 -0.0664
   88SOPE  H11X 8353   7.412   1.753   3.357  2.6945 -1.0007 -2.2329
   88SOPE  H11Y 8354   7.363   1.917   3.404  2.1893  2.3632  0.6403
   88SOPE  C312 8355   7.577   1.888   3.400 -0.4383  0.3672 -0.1818
   88SOPE  H12X 8356   7.613   1.987   3.365  0.3060 -0.2979 -1.3765
   88SOPE  H12Y 8357   7.658   1.818   3.370 -1.4820 -1.5923  1.3235
   88SOPE  C313 8358   7.579   1.902   3.549  0.4936 -0.7352 -0.4007
   88SOPE  H13X 8359   7.520   1.824   3.602 -0.2652  0.5383  0.6947
   88SOPE  H13Y 8360   7.533   2.000   3.573  2.5065  0.2243 -0.3331
   88SOPE  C314 8361   7.722   1.907   3.596 -0.2719  0.3601 -0.2692
   88SOPE  H14X 8362   7.785   1.971   3.531  1.5853 -1.2902 -0.1749
   88SOPE  H14Y 8363   7.777   1.810   3.585  3.3856  2.1133  1.0756
   88SOPE  C315 8364   7.731   1.944   3.742 -0.0215  0.3981 -0.5183
   88SOPE  H15X 8365   7.665   1.871   3.793  1.5240 -1.1105 -0.5766
   88SOPE  H15Y 8366   7.698   2.049   3.757  1.2306  0.5752  1.3512
   88SOPE  C316 8367   7.868   1.940   3.812 -0.4748  0.5070  0.0195
   88SOPE  H16X 8368   7.944   1.998   3.757 -1.6379  0.9448 -1.1784
   88SOPE  H16Y 8369   7.904   1.836   3.829  1.0098  0.7200 -1.5628
   88SOPE  C317 8370   7.853   2.007   3.943 -0.7066 -0.3179  0.4044
   88SOPE  H17X 8371   7.776   1.947   3.995  1.0562 -1.8317  1.3980
   88SOPE  H17Y 8372   7.820   2.112   3.926  1.1765  0.3347  0.5126
   88SOPE  C318 8373   7.981   2.006   4.033  0.1742  0.2166 -0.1786
   88SOPE  H18X 8374   8.013   1.903   4.059 -1.7106 -0.4127 -0.1464
   88SOPE  H18Y 8375   7.968   2.061   4.129  2.8911 -1.5791  1.3345
   88SOPE  H18Z 8376   8.063   2.059   3.982 -0.3397  0.3566 -0.8742
   89SAPC     N 8377   3.835   3.795   6.070 -0.0033 -0.3805 -0.4744
   89SAPC   C12 8378   3.863   3.758   5.931 -0.1839  0.2610 -0.7308
   89SAPC  H12A 8379   3.795   3.817   5.873 -0.6444  2.9647  2.2691
   89SAPC  H12B 8380   3.832   3.656   5.914 -1.3919  0.0785  1.9783
   89SAPC   C13 8381   3.690   3.768   6.105  0.3672 -0.3419 -0.9256
   89SAPC  H13A 8382   3.623   3.842   6.064 -0.4041 -1.0278 -0.9411
   89SAPC  H13B 8383   3.660   3.675   6.058  1.4485 -0.9748 -0.4113
   89SAPC  H13C 8384   3.675   3.761   6.211 -0.3941  0.4103 -0.9727
   89SAPC   C14 8385   3.918   3.703   6.155 -0.0376 -0.0508 -0.5339
   89SAPC  H14A 8386   3.909   3.724   6.261  3.5474 -1.0440  0.1009
   89SAPC  H14B 8387   3.888   3.604   6.127 -1.5242  0.6421 -1.5208
   89SAPC  H14C 8388   4.023   3.703   6.130  0.0413 -0.0480 -0.2160
   89SAPC   C15 8389   3.871   3.942   6.088 -0.3495  0.1859 -0.2713
   89SAPC  H15A 8390   3.872   3.974   6.191  0.4256 -0.7534  0.0308
   89SAPC  H15B 8391   3.966   3.973   6.048 -0.4311  1.6484  0.5854
   89SAPC  H15C 8392   3.796   4.006   6.043 -1.3259 -0.8307 -0.1409
   89SAPC   C11 8393   4.011   3.782   5.880  0.3470 -0.3832  0.5487
   89SAPC  H11A 8394   4.032   3.891   5.892 -2.9389  0.3678  0.4246
   89SAPC  H11B 8395   4.003   3.754   5.773  0.8271 -0.6090  0.5717
   89SAPC     P 8396   4.181   3.577   5.885  0.8308 -0.4072  0.1994
   89SAPC   O13 8397   4.272   3.523   5.987 -0.0840 -0.0152  0.1031
   89SAPC   O14 8398   4.067   3.488   5.840 -0.6921  0.3521 -0.4644
   89SAPC   O12 8399   4.103   3.701   5.953  0.2430 -0.1222  0.2699
   89SAPC   O11 8400   4.257   3.642   5.759  0.0118 -0.0238 -0.0291
   89SAPC    C1 8401   4.324   3.769   5.766 -0.0620  0.0570  0.2974
   89SAPC    HA 8402   4.261   3.853   5.802  0.2464  0.5598 -0.3254
   89SAPC    HB 8403   4.405   3.765   5.842  0.0915  0.8907  0.1891
   89SAPC    C2 8404   4.384   3.802   5.624 -0.1012 -0.8283 -0.3200
   89SAPC    HS 8405   4.432   3.903   5.623  2.3205 -1.8458  1.8869
   89SAPC   O21 8406   4.276   3.800   5.528  0.5777 -0.5058 -0.1589
   89SAPC   C21 8407   4.188   3.900   5.533 -0.5622  0.8402 -0.0572
   89SAPC   O22 8408   4.190   3.994   5.612 -0.3115 -0.0738  0.0119
   89SAPC   C22 8409   4.083   3.890   5.417  0.4096  0.5007 -0.2995
   89SAPC   H2R 8410   4.139   3.922   5.326  0.1044  0.5820 -0.4577
   89SAPC   H2S 8411   4.052   3.783   5.412 -2.9146  1.2388  1.5113
   89SAPC    C3 8412   4.480   3.692   5.580 -0.4503 -0.2697  0.1288
   89SAPC    HX 8413   4.419   3.605   5.546 -1.1269  0.1690  0.1990
   89SAPC    HY 8414   4.537   3.665   5.671 -0.8348 -0.0714  0.4315
   89SAPC   O31 8415   4.558   3.749   5.469 -0.1263  0.0292  0.2645
   89SAPC   C31 8416   4.682   3.691   5.462  0.1833  0.2528  0.6913
   89SAPC   O32 8417   4.717   3.592   5.523  0.3573  0.7321 -0.0645
   89SAPC   C32 8418   4.767   3.773   5.363 -0.1584 -0.1936 -0.5501
   89SAPC   H2X 8419   4.863   3.723   5.339 -1.2716 -2.6755 -0.1979
   89SAPC   H2Y 8420   4.784   3.868   5.417 -2.0276 -0.2749  0.2713
   89SAPC   C23 8421   3.954   3.978   5.423  0.1714  0.2695 -0.3295
   89SAPC   H3R 8422   3.983   4.084   5.409  0.9039  0.0732 -0.3415
   89SAPC   H3S 8423   3.913   3.968   5.526  2.6647 -2.8509  0.5096
   89SAPC   C24 8424   3.839   3.953   5.323 -0.2224 -0.1350 -0.2332
   89SAPC   H4R 8425   3.880   3.966   5.221  0.8812 -1.6249 -0.0164
   89SAPC   H4S 8426   3.760   4.028   5.346 -0.8990 -1.0882  0.6534
   89SAPC   C25 8427   3.773   3.819   5.340 -0.9850 -0.0290  0.0627
   89SAPC   H5R 8428   3.699   3.825   5.421  1.4585  3.3844  2.2839
   89SAPC   C26 8429   3.780   3.717   5.256 -0.1898  0.0288  0.4736
   89SAPC   H6R 8430   3.712   3.633   5.275 -1.2014  1.0383  1.4679
   89SAPC   C27 8431   3.863   3.706   5.127 -0.1877 -0.3878  0.5099
   89SAPC   H7R 8432   3.904   3.805   5.099 -1.1570  0.8574  3.1785
   89SAPC   H7S 8433   3.803   3.678   5.037  1.4055 -0.4736 -0.5764
   89SAPC   C28 8434   3.974   3.606   5.132 -0.4327  0.1735 -0.1383
   89SAPC   H8R 8435   4.009   3.573   5.231 -1.8910  2.4828  1.2321
   89SAPC   C29 8436   4.026   3.545   5.022  0.1539  0.0453  0.0626
   89SAPC   H9R 8437   4.097   3.462   5.029 -0.7941 -0.9167 -1.3279
   89SAPC  C210 8438   3.994   3.580   4.881 -0.4998  0.0461  0.5924
   89SAPC  H10R 8439   3.931   3.672   4.874 -0.2419  0.2702  1.1672
   89SAPC  H10S 8440   3.924   3.503   4.843  0.1017 -0.1615 -0.1120
   89SAPC  C211 8441   4.116   3.600   4.801  0.1867  0.2925  0.1657
   89SAPC  H11R 8442   4.200   3.645   4.856  1.1966  1.5087 -2.2100
   89SAPC  C212 8443   4.128   3.580   4.670  0.3162 -0.2126  0.1827
   89SAPC  H12R 8444   4.224   3.586   4.617  0.0957  2.3029 -0.0551
   89SAPC  C213 8445   4.025   3.507   4.590  0.1507  0.7116  1.0156
   89SAPC  H13R 8446   3.979   3.424   4.648 -0.2041  0.9694  1.1008
   89SAPC  H13S 8447   4.078   3.450   4.510  2.0610  1.7691  1.4632
   89SAPC  C214 8448   3.920   3.605   4.535 -0.0590 -0.0338 -0.2428
   89SAPC  H14R 8449   3.904   3.700   4.588 -1.4056  0.6815 -1.8519
   89SAPC  C215 8450   3.847   3.586   4.426  0.6132  0.4111 -0.7467
   89SAPC  H15R 8451   3.767   3.657   4.400 -2.3350 -1.6439  2.0156
   89SAPC  C216 8452   3.857   3.457   4.344  0.2003 -0.3037  0.4242
   89SAPC  H16R 8453   3.856   3.364   4.404 -1.9525 -0.5890  0.0450
   89SAPC  H16S 8454   3.953   3.456   4.287 -0.4006  2.4443 -0.7884
   89SAPC  C217 8455   3.744   3.467   4.238 -0.7734 -0.0559 -0.3645
   89SAPC  H17R 8456   3.769   3.549   4.167 -0.7749  1.0476  0.8681
   89SAPC  H17S 8457   3.644   3.476   4.285 -0.7912 -1.0889 -0.1638
   89SAPC  C218 8458   3.736   3.345   4.138 -0.7503 -0.0398 -0.3626
   89SAPC  H18R 8459   3.840   3.327   4.102 -0.4581  0.0421  0.4104
   89SAPC  H18S 8460   3.671   3.371   4.053 -0.0753  0.6208 -0.6880
   89SAPC  C219 8461   3.674   3.215   4.199  0.1890 -0.5492  0.2353
   89SAPC  H19R 8462   3.568   3.235   4.227  0.4348 -1.0916  1.6174
   89SAPC  H19S 8463   3.725   3.191   4.294  0.0130 -0.1884  0.4198
   89SAPC  C220 8464   3.702   3.093   4.107  0.3045 -0.3649  0.3166
   89SAPC  H20R 8465   3.810   3.105   4.085 -0.1274  2.0142 -0.8685
   89SAPC  H20S 8466   3.650   3.099   4.009 -0.1767  1.9656  0.6430
   89SAPC  H20T 8467   3.685   2.997   4.161 -2.0325 -0.2737 -0.1537
   89SAPC   C33 8468   4.687   3.804   5.239 -0.2068  0.3818  0.0782
   89SAPC   H3X 8469   4.579   3.826   5.253  0.0928  1.2799  1.1783
   89SAPC   H3Y 8470   4.687   3.714   5.174  0.2242  0.0613  0.5099
   89SAPC   C34 8471   4.747   3.922   5.170 -0.4863  0.3249 -0.0927
   89SAPC   H4X 8472   4.761   4.015   5.231  1.0240  0.7827 -1.0676
   89SAPC   H4Y 8473   4.677   3.966   5.096 -2.2909 -0.9432  0.7923
   89SAPC   C35 8474   4.863   3.885   5.079 -0.1558 -0.4924  0.4475
   89SAPC   H5X 8475   4.849   3.795   5.016  1.1431 -0.7048  0.4309
   89SAPC   H5Y 8476   4.945   3.847   5.145 -1.2650 -1.4169  1.3376
   89SAPC   C36 8477   4.929   4.003   4.999  0.4646  1.1455  0.7110
   89SAPC   H6X 8478   4.984   4.075   5.063  1.0830  0.3005  1.1669
   89SAPC   H6Y 8479   4.850   4.047   4.934 -0.4031  0.7253  1.4528
   89SAPC   C37 8480   5.039   3.947   4.906  0.5080 -0.5370  0.8745
   89SAPC   H7X 8481   4.985   3.861   4.861 -2.8545  1.3773  0.9016
   89SAPC   H7Y 8482   5.134   3.930   4.960  0.2214 -0.7982  1.3039
   89SAPC   C38 8483   5.072   4.049   4.789  0.8795 -0.6473  0.3020
   89SAPC   H8X 8484   5.171   4.017   4.749  0.9681  1.4786 -1.3483
   89SAPC   H8Y 8485   5.084   4.153   4.827  0.8603 -0.3799 -0.4083
   89SAPC   C39 8486   4.978   4.048   4.667 -0.1323  0.2405  0.1505
   89SAPC   H9X 8487   4.995   4.142   4.610  0.0557 -0.3117 -0.7266
   89SAPC   H9Y 8488   4.874   4.053   4.706 -1.0744  1.3306 -2.3127
   89SAPC  C310 8489   4.995   3.924   4.578 -0.0956  0.1232  0.1508
   89SAPC  H10X 8490   5.075   3.867   4.628 -0.2034  0.8566  1.1900
   89SAPC  H10Y 8491   5.042   3.951   4.481 -0.3537  0.7255  0.1905
   89SAPC  C311 8492   4.862   3.853   4.545  0.3042 -0.3809 -0.4392
   89SAPC  H11X 8493   4.791   3.924   4.499  0.5945  1.0679  1.2491
   89SAPC  H11Y 8494   4.815   3.827   4.642  2.0514  0.8772  0.8248
   89SAPC  C312 8495   4.881   3.721   4.457 -0.1668  0.5237  0.2615
   89SAPC  H12X 8496   4.946   3.656   4.519 -1.1949 -1.4596 -0.6538
   89SAPC  H12Y 8497   4.923   3.754   4.360 -2.2826  0.8057 -0.6221
   89SAPC  C313 8498   4.752   3.633   4.438 -1.4543 -0.3285  0.3939
   89SAPC  H13X 8499   4.716   3.609   4.540 -2.1672  0.3658  0.3155
   89SAPC  H13Y 8500   4.774   3.544   4.375 -1.9644 -0.2000  0.0285
   89SAPC  C314 8501   4.638   3.701   4.365 -0.3926 -0.1009 -0.2615
   89SAPC  H14X 8502   4.675   3.726   4.264 -0.7091  3.8750  0.4324
   89SAPC  H14Y 8503   4.612   3.800   4.409 -0.8406  0.0228 -0.8011
   89SAPC  C315 8504   4.522   3.603   4.375  0.7124  0.7514  0.6604
   89SAPC  H15X 8505   4.502   3.589   4.483 -3.1119  1.2076  0.1388
   89SAPC  H15Y 8506   4.560   3.506   4.337 -1.3900 -0.5205  1.6247
   89SAPC  C316 8507   4.400   3.647   4.290  0.3960  0.2049  0.5560
   89SAPC  H16X 8508   4.436   3.690   4.194 -1.8139 -4.2472 -2.5919
   89SAPC  H16Y 8509   4.345   3.723   4.350  0.4588  0.0599  0.7965
   89SAPC  C317 8510   4.315   3.526   4.255 -0.3798  1.0504 -0.3328
   89SAPC  H17X 8511   4.258   3.506   4.348  3.1576 -3.4043  1.2739
   89SAPC  H17Y 8512   4.378   3.443   4.217  0.7494  1.5158  0.4373
   89SAPC  C318 8513   4.206   3.553   4.148 -0.5444  0.6303 -0.1450
   89SAPC  H18X 8514   4.134   3.627   4.187  0.0547  1.3385 -0.3591
   89SAPC  H18Y 8515   4.164   3.453   4.126 -0.4464  0.7885 -1.0755
   89SAPC  H18Z 8516   4.259   3.593   4.058 -0.3363 -0.5850 -0.5880
   90SAPC     N 8517   0.941   1.123   5.932  0.0747 -0.5655 -0.3795
   90SAPC   C12 8518   1.065   1.199   5.909 -0.7974  0.2867  0.5164
   90SAPC  H12A 8519   1.147   1.148   5.960  0.2368 -0.9131 -2.1696
   90SAPC  H12B 8520   1.060   1.293   5.962  0.2756  0.1412  0.9044
   90SAPC   C13 8521   0.959   0.975   5.903 -0.0905 -0.2942 -0.2652
   90SAPC  H13A 8522   0.979   0.959   5.798  1.1269 -1.0307  0.0715
   90SAPC  H13B 8523   1.042   0.933   5.957  2.5592  2.5681 -1.7944
   90SAPC  H13C 8524   0.861   0.933   5.923 -1.3736  2.2702 -0.6869
   90SAPC   C14 8525   0.908   1.122   6.080  0.1035 -0.2286 -0.4577
   90SAPC  H14A 8526   0.813   1.077   6.103  0.7573 -1.1446  0.5641
   90SAPC  H14B 8527   0.989   1.074   6.134 -0.5352  0.2673  1.0085
   90SAPC  H14C 8528   0.917   1.224   6.116  2.5497 -0.2151 -0.9452
   90SAPC   C15 8529   0.823   1.185   5.852 -0.6623 -0.1162 -0.0555
   90SAPC  H15A 8530   0.826   1.165   5.746  0.6410  1.1063 -0.2907
   90SAPC  H15B 8531   0.724   1.157   5.884 -0.5820 -0.4799 -0.1180
   90SAPC  H15C 8532   0.820   1.293   5.856 -1.5390 -0.0911 -1.0308
   90SAPC   C11 8533   1.106   1.220   5.761  0.4414  0.3594 -0.0605
   90SAPC  H11A 8534   1.124   1.121   5.714  0.1846 -0.3565  1.2910
   90SAPC  H11B 8535   1.204   1.273   5.760  0.8291 -0.3384  0.1824
   90SAPC     P 8536   0.995   1.461   5.712 -0.0352 -0.2544 -0.2332
   90SAPC   O13 8537   0.886   1.480   5.809 -0.0706  0.7575 -0.0950
   90SAPC   O14 8538   1.124   1.526   5.756  0.2302  0.5262  0.0335
   90SAPC   O12 8539   1.016   1.305   5.689 -0.0289 -0.3967  0.3387
   90SAPC   O11 8540   0.952   1.507   5.565  0.4088 -0.1321  0.0173
   90SAPC    C1 8541   0.900   1.424   5.462  0.4981  0.4683  0.1489
   90SAPC    HA 8542   0.816   1.361   5.498  1.2460 -1.2593 -1.0217
   90SAPC    HB 8543   0.831   1.479   5.393 -0.1768 -3.1878 -2.3690
   90SAPC    C2 8544   1.006   1.353   5.376 -0.3497 -0.9370 -0.3097
   90SAPC    HS 8545   1.063   1.285   5.444  0.1029 -0.2822 -0.0134
   90SAPC   O21 8546   1.080   1.465   5.320 -0.3680  0.7341 -0.4176
   90SAPC   C21 8547   1.211   1.453   5.338  0.6538  0.5232 -0.0529
   90SAPC   O22 8548   1.265   1.346   5.364  0.2636  0.3041  0.9588
   90SAPC   C22 8549   1.277   1.583   5.325  0.6063 -0.6200  0.2225
   90SAPC   H2R 8550   1.215   1.657   5.379 -0.8039 -0.3255 -1.6793
   90SAPC   H2S 8551   1.379   1.577   5.369  0.6643  0.3027  0.2334
   90SAPC    C3 8552   0.949   1.267   5.261 -0.3793 -0.3023 -0.3081
   90SAPC    HX 8553   0.882   1.201   5.321  0.4206  1.6156  2.9300
   90SAPC    HY 8554   1.013   1.198   5.202 -1.2713 -1.2484 -0.2071
   90SAPC   O31 8555   0.861   1.345   5.174 -0.2746  0.1495 -0.2335
   90SAPC   C31 8556   0.932   1.389   5.069 -0.0164 -0.7408 -0.2077
   90SAPC   O32 8557   1.050   1.368   5.045  0.5086  0.6481 -0.2000
   90SAPC   C32 8558   0.852   1.486   4.986  0.5192  0.5208  0.1883
   90SAPC   H2X 8559   0.818   1.575   5.043  0.4196  1.2862 -1.0343
   90SAPC   H2Y 8560   0.768   1.424   4.948 -0.5977  1.9889  0.1930
   90SAPC   C23 8561   1.297   1.625   5.175  0.4568 -0.1381  0.2870
   90SAPC   H3R 8562   1.327   1.732   5.171  3.5380 -0.9555 -0.7555
   90SAPC   H3S 8563   1.201   1.608   5.121  0.0459  0.8368  0.7012
   90SAPC   C24 8564   1.401   1.540   5.104 -0.0365 -0.4166 -0.1010
   90SAPC   H4R 8565   1.371   1.434   5.117  0.3195 -0.3220  1.9269
   90SAPC   H4S 8566   1.496   1.557   5.160 -1.8493 -0.1479  3.1407
   90SAPC   C25 8567   1.400   1.586   4.958  0.1844 -0.3018 -0.6131
   90SAPC   H5R 8568   1.303   1.618   4.919 -1.1044 -0.2471  2.3292
   90SAPC   C26 8569   1.502   1.585   4.878 -0.5279 -0.0183 -0.5220
   90SAPC   H6R 8570   1.505   1.622   4.774  0.8420 -1.4041 -1.0239
   90SAPC   C27 8571   1.640   1.540   4.925 -0.0564 -0.5589 -0.2287
   90SAPC   H7R 8572   1.692   1.496   4.837  1.9388  1.6676 -0.2918
   90SAPC   H7S 8573   1.631   1.469   5.009 -0.4200  2.8505  2.8594
   90SAPC   C28 8574   1.716   1.662   4.981 -0.4867  0.7009 -0.5576
   90SAPC   H8R 8575   1.694   1.681   5.087 -2.6345 -1.5196 -0.5279
   90SAPC   C29 8576   1.801   1.741   4.917 -0.4459  0.4038 -0.2747
   90SAPC   H9R 8577   1.838   1.837   4.955  0.2899 -0.4288  1.2088
   90SAPC  C210 8578   1.843   1.731   4.776  0.7368  0.0173 -0.5237
   90SAPC  H10R 8579   1.788   1.805   4.714  0.9099 -0.9015 -1.7961
   90SAPC  H10S 8580   1.819   1.632   4.734  0.5276 -1.2756  2.3696
   90SAPC  C211 8581   1.992   1.747   4.762 -0.2083 -0.3625  0.1611
   90SAPC  H11R 8582   2.052   1.689   4.833  2.0208  0.7191 -0.7267
   90SAPC  C212 8583   2.061   1.823   4.675 -0.2526 -0.2160  0.4227
   90SAPC  H12R 8584   2.171   1.824   4.674 -0.2000 -1.5559  1.3926
   90SAPC  C213 8585   1.997   1.900   4.566 -0.4196  0.1872  0.0082
   90SAPC  H13R 8586   2.032   2.006   4.572 -0.5793  0.2310  0.1872
   90SAPC  H13S 8587   1.891   1.923   4.591 -0.4942  0.5418 -0.6022
   90SAPC  C214 8588   2.026   1.844   4.422 -0.1653 -0.5816 -0.0710
   90SAPC  H14R 8589   1.970   1.754   4.393 -2.4458  1.0326 -0.9328
   90SAPC  C215 8590   2.116   1.896   4.341 -0.2794 -0.2873  0.4209
   90SAPC  H15R 8591   2.135   1.849   4.244 -1.3311  0.7263 -0.2906
   90SAPC  C216 8592   2.201   2.010   4.379  0.0433 -0.6230  0.4510
   90SAPC  H16R 8593   2.212   2.021   4.489 -1.7740  1.7366  0.4697
   90SAPC  H16S 8594   2.149   2.100   4.340  1.1671 -0.4337 -0.6989
   90SAPC  C217 8595   2.344   2.001   4.323 -0.2092  0.1875 -0.3110
   90SAPC  H17R 8596   2.342   2.015   4.212 -3.0401  2.0622 -0.1152
   90SAPC  H17S 8597   2.382   1.900   4.347 -1.4590 -0.7911 -2.1545
   90SAPC  C218 8598   2.440   2.104   4.391  0.4308  0.3136 -0.3332
   90SAPC  H18R 8599   2.442   2.078   4.499 -0.8276 -1.0603 -0.5975
   90SAPC  H18S 8600   2.405   2.208   4.376 -0.9450 -0.2309 -1.0779
   90SAPC  C219 8601   2.588   2.092   4.341 -0.2934 -0.2334 -0.6043
   90SAPC  H19R 8602   2.600   1.982   4.337 -0.0535 -0.3382  1.7699
   90SAPC  H19S 8603   2.668   2.125   4.410 -1.9604  0.3982  1.1293
   90SAPC  C220 8604   2.624   2.151   4.199 -0.5522 -0.4414 -0.8743
   90SAPC  H20R 8605   2.545   2.137   4.123 -0.9829 -1.2724 -0.2995
   90SAPC  H20S 8606   2.719   2.117   4.153 -0.5951  1.5082 -2.5158
   90SAPC  H20T 8607   2.639   2.257   4.229  1.8177 -1.0053  0.1980
   90SAPC   C33 8608   0.937   1.560   4.871  0.8571 -0.0188 -0.7761
   90SAPC   H3X 8609   1.030   1.605   4.912  0.1347  1.2233 -0.4327
   90SAPC   H3Y 8610   0.869   1.645   4.851  1.1949  0.5243  0.2637
   90SAPC   C34 8611   0.966   1.479   4.745 -0.1916  0.2683 -0.2181
   90SAPC   H4X 8612   0.877   1.458   4.682  0.1112  0.4918 -0.7324
   90SAPC   H4Y 8613   0.993   1.379   4.785 -1.9786 -0.6801 -1.2772
   90SAPC   C35 8614   1.080   1.534   4.653  0.3821  0.6522  0.1887
   90SAPC   H5X 8615   1.138   1.446   4.618  0.4882  1.2818 -1.2776
   90SAPC   H5Y 8616   1.149   1.591   4.718  2.5916  1.8947 -2.9979
   90SAPC   C36 8617   1.030   1.612   4.531  0.0013  0.1706  0.1796
   90SAPC   H6X 8618   0.973   1.700   4.568 -2.9275 -0.8689 -1.5806
   90SAPC   H6Y 8619   0.952   1.560   4.471 -2.3600  2.4597  1.0935
   90SAPC   C37 8620   1.137   1.658   4.428 -0.4963 -0.1203 -0.0487
   90SAPC   H7X 8621   1.151   1.586   4.345 -1.1304  0.0897 -0.3430
   90SAPC   H7Y 8622   1.234   1.666   4.482  0.2101  0.6040 -1.3815
   90SAPC   C38 8623   1.106   1.798   4.371  0.1493  0.3621 -0.5619
   90SAPC   H8X 8624   1.110   1.873   4.453 -1.2603  1.3408 -1.3292
   90SAPC   H8Y 8625   1.011   1.805   4.314 -0.8798 -1.1922  0.8909
   90SAPC   C39 8626   1.222   1.827   4.270 -0.3119  0.9403 -0.7699
   90SAPC   H9X 8627   1.219   1.743   4.197 -0.7241 -1.2516  1.5871
   90SAPC   H9Y 8628   1.319   1.813   4.324  1.0724 -3.3147 -3.8070
   90SAPC  C310 8629   1.205   1.959   4.203  1.3682  0.3316 -0.5847
   90SAPC  H10X 8630   1.239   2.040   4.272 -0.8128 -0.4134  1.5277
   90SAPC  H10Y 8631   1.099   1.983   4.177  1.2847 -0.0025 -0.5515
   90SAPC  C311 8632   1.289   1.964   4.078  0.8033 -0.4172  0.2606
   90SAPC  H11X 8633   1.241   1.918   3.989 -0.3424  2.1111 -0.5310
   90SAPC  H11Y 8634   1.388   1.917   4.091  1.3298  0.3125 -0.9686
   90SAPC  C312 8635   1.329   2.109   4.038  0.1292 -0.7606 -0.2431
   90SAPC  H12X 8636   1.241   2.174   4.018  0.4994  0.4630  1.8092
   90SAPC  H12Y 8637   1.380   2.101   3.940 -0.9208  0.3357 -0.9075
   90SAPC  C313 8638   1.418   2.195   4.124 -0.3687 -0.0838 -0.2654
   90SAPC  H13X 8639   1.506   2.140   4.161  0.4005  1.2768  0.0156
   90SAPC  H13Y 8640   1.356   2.229   4.210  0.1239  2.1707 -0.7368
   90SAPC  C314 8641   1.463   2.328   4.053  0.8356  0.4326 -0.3429
   90SAPC  H14X 8642   1.375   2.393   4.035  0.8232  0.9128  1.2916
   90SAPC  H14Y 8643   1.527   2.304   3.965  2.6339 -0.2337  1.0957
   90SAPC  C315 8644   1.557   2.423   4.143 -0.2245  0.3908 -0.1664
   90SAPC  H15X 8645   1.644   2.358   4.167 -0.8021 -1.3032 -2.3918
   90SAPC  H15Y 8646   1.503   2.441   4.238 -1.7505 -1.2030 -0.6806
   90SAPC  C316 8647   1.594   2.552   4.072 -0.2583 -0.3959 -0.7218
   90SAPC  H16X 8648   1.502   2.613   4.055  0.5112  1.0101 -0.0191
   90SAPC  H16Y 8649   1.640   2.513   3.979  1.9974  0.3654  0.0023
   90SAPC  C317 8650   1.704   2.640   4.136 -0.5308 -0.0032 -0.6063
   90SAPC  H17X 8651   1.792   2.579   4.167 -0.5429  0.1120 -0.3433
   90SAPC  H17Y 8652   1.660   2.687   4.226  0.6818  2.0271 -1.0055
   90SAPC  C318 8653   1.754   2.768   4.060  0.3745  0.4991 -0.3205
   90SAPC  H18X 8654   1.802   2.839   4.131  2.1641  0.6603 -1.6215
   90SAPC  H18Y 8655   1.671   2.828   4.020 -0.8694 -1.4848 -0.8587
   90SAPC  H18Z 8656   1.839   2.739   3.994 -0.2519  2.7873 -2.2547
   91SAPC     N 8657   4.955   6.941   6.307  0.3580  0.1016  0.3580
   91SAPC   C12 8658   4.901   6.907   6.165 -0.1360  0.6300  0.4634
   91SAPC  H12A 8659   4.921   6.992   6.100  1.2167  2.3906  2.9839
   91SAPC  H12B 8660   4.794   6.900   6.163 -0.0786 -2.5535  2.3865
   91SAPC   C13 8661   4.874   7.053   6.361 -0.3162  0.2527  0.6429
   91SAPC  H13A 8662   4.882   7.144   6.304 -0.6935 -0.5085 -0.6663
   91SAPC  H13B 8663   4.768   7.033   6.360 -0.4431  0.9127  0.4685
   91SAPC  H13C 8664   4.901   7.071   6.464  2.5563  0.7495 -0.1042
   91SAPC   C14 8665   4.922   6.824   6.399  0.7418  0.5230 -0.0034
   91SAPC  H14A 8666   4.952   6.729   6.357 -2.1022  0.2719 -1.7288
   91SAPC  H14B 8667   4.957   6.834   6.501  0.9464 -1.5970  0.1754
   91SAPC  H14C 8668   4.814   6.817   6.405  0.7643  0.0179 -0.1819
   91SAPC   C15 8669   5.104   6.965   6.311 -0.7834 -0.5612  0.7150
   91SAPC  H15A 8670   5.143   6.941   6.409 -2.5681  1.4921  2.0209
   91SAPC  H15B 8671   5.143   6.891   6.242 -0.2794  0.4186 -0.0779
   91SAPC  H15C 8672   5.124   7.066   6.279 -0.3808 -0.9890 -0.4734
   91SAPC   C11 8673   4.969   6.788   6.091 -0.1806  0.3620  0.2203
   91SAPC  H11A 8674   4.915   6.789   5.994  1.5996 -3.1407 -0.9990
   91SAPC  H11B 8675   4.949   6.694   6.147  0.4963 -0.6829 -1.2174
   91SAPC     P 8676   5.170   6.898   5.956  0.3675  0.0134  0.0270
   91SAPC   O13 8677   5.078   7.012   5.945 -0.3155  0.2050  0.2578
   91SAPC   O14 8678   5.311   6.928   5.982 -0.5116  0.1999 -0.0828
   91SAPC   O12 8679   5.108   6.810   6.075  0.0496  0.4790  0.3243
   91SAPC   O11 8680   5.159   6.810   5.828  1.0178 -0.7022  0.2189
   91SAPC    C1 8681   5.215   6.678   5.828  0.0296  0.4136  0.6865
   91SAPC    HA 8682   5.206   6.619   5.921 -0.0749 -2.0431 -0.8006
   91SAPC    HB 8683   5.165   6.608   5.757 -1.3733  1.0294  1.0396
   91SAPC    C2 8684   5.365   6.686   5.790 -0.0335 -0.3377  0.3010
   91SAPC    HS 8685   5.424   6.743   5.864  1.4986  0.3942 -1.4069
   91SAPC   O21 8686   5.383   6.750   5.654 -0.1924  0.0190  0.4679
   91SAPC   C21 8687   5.505   6.786   5.626  0.0735 -0.1040  0.6701
   91SAPC   O22 8688   5.601   6.782   5.702  0.0633  0.4172  0.8382
   91SAPC   C22 8689   5.512   6.837   5.478 -0.1168  0.4999  0.0372
   91SAPC   H2R 8690   5.519   6.746   5.414  4.1197  1.0630 -0.5886
   91SAPC   H2S 8691   5.421   6.897   5.460 -0.2034 -0.1038 -1.7790
   91SAPC    C3 8692   5.435   6.547   5.793 -0.2078  0.1803 -0.6213
   91SAPC    HX 8693   5.431   6.516   5.900  0.5863  5.0028  1.0316
   91SAPC    HY 8694   5.540   6.570   5.767 -0.4592 -0.7077 -2.6042
   91SAPC   O31 8695   5.362   6.450   5.712 -0.5104 -0.0485 -0.1438
   91SAPC   C31 8696   5.407   6.442   5.593  0.0279  0.3772 -0.2609
   91SAPC   O32 8697   5.501   6.495   5.542 -0.1279 -0.1012 -0.1094
   91SAPC   C32 8698   5.327   6.328   5.528  0.1837 -0.3765  0.4622
   91SAPC   H2X 8699   5.221   6.342   5.556 -0.2083 -1.5101 -0.3693
   91SAPC   H2Y 8700   5.366   6.232   5.569  0.5858 -0.2856  0.3013
   91SAPC   C23 8701   5.623   6.931   5.453  0.0648 -0.1383  0.2667
   91SAPC   H3R 8702   5.715   6.871   5.441 -0.1572 -0.3439 -0.4294
   91SAPC   H3S 8703   5.631   7.015   5.525  0.4900  0.9490 -1.0044
   91SAPC   C24 8704   5.603   6.995   5.310 -0.2121 -0.2450 -0.4070
   91SAPC   H4R 8705   5.689   7.065   5.299 -0.0122 -0.4369 -0.1086
   91SAPC   H4S 8706   5.506   7.049   5.309 -0.3096 -0.3636  0.7775
   91SAPC   C25 8707   5.599   6.890   5.201 -0.4150 -0.6142  0.8855
   91SAPC   H5R 8708   5.656   6.797   5.216  0.0293 -0.2518  1.4979
   91SAPC   C26 8709   5.533   6.910   5.082 -0.3169 -0.2747  0.5606
   91SAPC   H6R 8710   5.549   6.833   5.004  0.1065  1.3441 -1.0255
   91SAPC   C27 8711   5.459   7.035   5.040 -0.4202  0.5137  0.3863
   91SAPC   H7R 8712   5.536   7.114   5.033  1.7471 -1.5996 -1.1981
   91SAPC   H7S 8713   5.388   7.061   5.121 -3.9163 -0.3778 -2.1296
   91SAPC   C28 8714   5.386   7.018   4.909  0.0203 -0.3096 -0.6167
   91SAPC   H8R 8715   5.284   6.978   4.914 -0.1161 -0.1100 -1.5396
   91SAPC   C29 8716   5.446   7.034   4.798 -0.9719  0.0793 -0.0623
   91SAPC   H9R 8717   5.395   7.012   4.703 -1.3231  0.0809  0.1222
   91SAPC  C210 8718   5.583   7.094   4.778  0.6990  0.3304  0.0552
   91SAPC  H10R 8719   5.639   7.132   4.867  1.5275  2.0204 -1.1451
   91SAPC  H10S 8720   5.576   7.182   4.711  0.2505 -0.6066 -1.1487
   91SAPC  C211 8721   5.663   6.994   4.706 -0.6739  0.4611  0.4707
   91SAPC  H11R 8722   5.728   6.931   4.769  1.8783  2.2977 -0.1644
   91SAPC  C212 8723   5.677   6.959   4.579 -0.1507  0.3662  0.1012
   91SAPC  H12R 8724   5.747   6.880   4.546 -1.5383 -0.4167 -1.0839
   91SAPC  C213 8725   5.593   7.031   4.467  0.1766 -0.0833 -0.6478
   91SAPC  H13R 8726   5.487   7.026   4.499  0.5198  0.3415  0.5899
   91SAPC  H13S 8727   5.579   6.968   4.376 -1.2899  2.1190 -2.0665
   91SAPC  C214 8728   5.612   7.176   4.433 -0.1575  0.5701 -0.0741
   91SAPC  H14R 8729   5.560   7.254   4.491  0.8880  1.0629  0.2254
   91SAPC  C215 8730   5.714   7.217   4.358 -1.1222 -0.2668 -0.1054
   91SAPC  H15R 8731   5.720   7.325   4.340 -1.5764 -0.1237  0.5729
   91SAPC  C216 8732   5.804   7.126   4.278 -0.1012  0.3367  0.1112
   91SAPC  H16R 8733   5.801   7.166   4.174  1.1190 -0.5120 -0.2750
   91SAPC  H16S 8734   5.766   7.022   4.284 -0.3260  0.4617  1.1298
   91SAPC  C217 8735   5.953   7.144   4.320 -0.2365  0.5957  0.0517
   91SAPC  H17R 8736   5.972   7.091   4.416 -0.2619 -1.3874 -0.9786
   91SAPC  H17S 8737   5.972   7.252   4.338 -3.3723  0.9333  2.0970
   91SAPC  C218 8738   6.056   7.087   4.219  0.6652 -0.2246  0.3531
   91SAPC  H18R 8739   6.156   7.131   4.241  1.2892  1.0773 -4.0357
   91SAPC  H18S 8740   6.036   7.127   4.117 -1.3465 -0.2038  0.7317
   91SAPC  C219 8741   6.067   6.938   4.223  0.5535  0.0911 -0.1203
   91SAPC  H19R 8742   5.982   6.889   4.170  0.2652 -0.7636  1.0979
   91SAPC  H19S 8743   6.072   6.895   4.325  2.6359  3.5320  1.4025
   91SAPC  C220 8744   6.195   6.886   4.156  1.4537 -0.0656 -0.6563
   91SAPC  H20R 8745   6.204   6.778   4.177 -0.5047  0.1474  1.6242
   91SAPC  H20S 8746   6.289   6.933   4.195  0.9755 -1.0717  1.9390
   91SAPC  H20T 8747   6.192   6.900   4.046 -0.5137  0.6862 -0.5406
   91SAPC   C33 8748   5.334   6.330   5.371 -0.5691  0.1956  0.0667
   91SAPC   H3X 8749   5.283   6.239   5.333  2.4045 -2.0291  1.1143
   91SAPC   H3Y 8750   5.439   6.318   5.337 -1.2458 -1.8569 -1.4788
   91SAPC   C34 8751   5.268   6.452   5.307 -0.5582  0.1416 -1.0766
   91SAPC   H4X 8752   5.340   6.536   5.309  0.0429 -0.3799  0.8179
   91SAPC   H4Y 8753   5.177   6.496   5.355  0.4703  0.8615  0.2621
   91SAPC   C35 8754   5.247   6.423   5.162  0.3698 -0.0720  0.4474
   91SAPC   H5X 8755   5.180   6.337   5.141 -0.6764  1.1458 -1.4414
   91SAPC   H5Y 8756   5.353   6.400   5.137  0.0277 -0.2964 -0.8608
   91SAPC   C36 8757   5.219   6.542   5.066 -0.1920  0.0794  0.9792
   91SAPC   H6X 8758   5.271   6.629   5.111  0.1990  0.8430 -0.8731
   91SAPC   H6Y 8759   5.109   6.557   5.067 -0.3943 -1.2973  0.8347
   91SAPC   C37 8760   5.275   6.509   4.921 -0.9394 -0.0946 -0.2891
   91SAPC   H7X 8761   5.233   6.416   4.879 -1.6465 -1.5514  3.2625
   91SAPC   H7Y 8762   5.383   6.481   4.921 -1.0092 -0.3676 -0.5816
   91SAPC   C38 8763   5.255   6.634   4.836  0.0662 -0.4638  0.0998
   91SAPC   H8X 8764   5.326   6.708   4.880 -1.5156  1.3745 -0.3202
   91SAPC   H8Y 8765   5.154   6.671   4.860 -0.1842  0.1531 -1.7529
   91SAPC   C39 8766   5.286   6.595   4.692  0.0864 -0.4263 -0.1507
   91SAPC   H9X 8767   5.293   6.485   4.693  0.0317 -0.4306 -0.1953
   91SAPC   H9Y 8768   5.387   6.632   4.665 -0.1506 -0.9076 -1.7683
   91SAPC  C310 8769   5.177   6.637   4.591 -0.0581  0.0291 -0.0170
   91SAPC  H10X 8770   5.075   6.615   4.630 -0.2572  1.3381  0.2435
   91SAPC  H10Y 8771   5.185   6.582   4.495  1.7259  1.6202 -0.8591
   91SAPC  C311 8772   5.164   6.782   4.563 -0.4158 -0.9235  0.1747
   91SAPC  H11X 8773   5.244   6.817   4.494 -0.2882  0.2812  0.8960
   91SAPC  H11Y 8774   5.147   6.840   4.657 -0.7521 -1.0480  0.1923
   91SAPC  C312 8775   5.034   6.796   4.485 -0.1509  0.3675  0.5028
   91SAPC  H12X 8776   4.950   6.762   4.549 -0.9831  0.5864 -0.4391
   91SAPC  H12Y 8777   5.038   6.738   4.390  1.9820  1.5084 -0.1719
   91SAPC  C313 8778   4.985   6.940   4.455 -0.4984  0.6702  0.8095
   91SAPC  H13X 8779   5.043   6.988   4.374 -2.8103 -1.7908 -2.6218
   91SAPC  H13Y 8780   5.005   6.992   4.551  0.7941  1.9647 -0.1275
   91SAPC  C314 8781   4.837   6.956   4.420 -0.6370 -0.3157  0.4877
   91SAPC  H14X 8782   4.774   6.912   4.501 -0.9252 -0.1240  0.3708
   91SAPC  H14Y 8783   4.826   6.890   4.332  1.3909 -1.3751  0.9856
   91SAPC  C315 8784   4.808   7.106   4.382 -0.1907  0.3006  0.3076
   91SAPC  H15X 8785   4.869   7.166   4.452  0.0431  1.0607 -0.5195
   91SAPC  H15Y 8786   4.702   7.133   4.402  0.2121  1.7613  0.5470
   91SAPC  C316 8787   4.841   7.145   4.235  0.3594  0.2490 -0.5150
   91SAPC  H16X 8788   4.788   7.077   4.165  0.3590 -0.0370 -0.2387
   91SAPC  H16Y 8789   4.950   7.133   4.220  0.6446 -0.0013  1.5625
   91SAPC  C317 8790   4.803   7.288   4.201 -0.3828  0.2550  0.3024
   91SAPC  H17X 8791   4.692   7.280   4.192 -0.4858  1.3479  0.3967
   91SAPC  H17Y 8792   4.843   7.290   4.098 -1.7282  0.5436 -0.2437
   91SAPC  C318 8793   4.861   7.394   4.292 -0.0791 -0.9805  0.5098
   91SAPC  H18X 8794   4.831   7.491   4.247 -0.4166 -1.6250 -0.6934
   91SAPC  H18Y 8795   4.972   7.389   4.287 -0.1467 -2.2507 -0.2231
   91SAPC  H18Z 8796   4.838   7.381   4.400 -0.2240  0.5437  0.6902
   92SAPC     N 8797   6.202   5.938   6.195 -0.3656 -0.0297 -0.1480
   92SAPC   C12 8798   6.315   5.888   6.099  0.1412 -0.2481  0.6034
   92SAPC  H12A 8799   6.289   5.790   6.061 -1.0606  0.1181  0.4511
   92SAPC  H12B 8800   6.407   5.884   6.156  0.8325 -0.6019 -0.4932
   92SAPC   C13 8801   6.065   5.906   6.135 -0.2325 -0.3328  0.1023
   92SAPC  H13A 8802   6.068   5.903   6.027 -1.0420 -0.1048  0.0586
   92SAPC  H13B 8803   6.049   5.802   6.159 -1.1209 -0.6161 -1.5495
   92SAPC  H13C 8804   5.987   5.964   6.183 -0.0692 -0.3837  0.4345
   92SAPC   C14 8805   6.212   5.852   6.325  0.4022 -0.0722 -0.0451
   92SAPC  H14A 8806   6.141   5.895   6.393 -0.6030  1.6295 -2.0532
   92SAPC  H14B 8807   6.188   5.750   6.303 -1.6663 -0.2442  2.5661
   92SAPC  H14C 8808   6.308   5.861   6.374  0.2281 -0.5625  0.4002
   92SAPC   C15 8809   6.215   6.081   6.226 -0.4331  0.1658 -0.4890
   92SAPC  H15A 8810   6.162   6.109   6.316  0.3943 -3.1238  1.1654
   92SAPC  H15B 8811   6.320   6.093   6.250 -0.8103  3.5279  0.0263
   92SAPC  H15C 8812   6.205   6.144   6.139  1.2000  1.8737  0.4811
   92SAPC   C11 8813   6.328   5.972   5.975  0.0643  0.4561  0.2543
   92SAPC  H11A 8814   6.230   5.983   5.924  1.7336 -2.2314 -4.0659
   92SAPC  H11B 8815   6.387   5.919   5.897 -3.0502 -0.1280 -1.9055
   92SAPC     P 8816   6.533   6.134   6.035 -0.2304  0.1539  0.0594
   92SAPC   O13 8817   6.551   6.273   6.001  0.2187 -0.2858 -0.1017
   92SAPC   O14 8818   6.561   6.097   6.175 -0.4156  0.3800  0.2996
   92SAPC   O12 8819   6.381   6.102   6.003 -0.0349  0.2738 -0.0557
   92SAPC   O11 8820   6.607   6.047   5.930 -0.0240  0.1662  0.0173
   92SAPC    C1 8821   6.746   6.052   5.893 -0.4894 -0.4568  0.8008
   92SAPC    HA 8822   6.816   6.025   5.974  1.6836 -0.8653 -1.0922
   92SAPC    HB 8823   6.775   5.975   5.818 -0.6760  0.4736 -0.2742
   92SAPC    C2 8824   6.798   6.175   5.816  0.6849 -0.2106  0.3593
   92SAPC    HS 8825   6.782   6.261   5.886 -0.6215  1.0326 -1.3820
   92SAPC   O21 8826   6.718   6.191   5.691  0.3203  0.1667 -0.1055
   92SAPC   C21 8827   6.679   6.313   5.661  0.4739 -0.0934 -0.0617
   92SAPC   O22 8828   6.703   6.416   5.721  0.2009  0.3938  0.2167
   92SAPC   C22 8829   6.578   6.307   5.542  0.1647 -0.0013  0.2523
   92SAPC   H2R 8830   6.511   6.218   5.535 -0.8888  0.6949  1.1784
   92SAPC   H2S 8831   6.502   6.385   5.565  0.4771  0.1565  0.7790
   92SAPC    C3 8832   6.953   6.176   5.782  0.5455 -0.0988 -0.2286
   92SAPC    HX 8833   7.011   6.150   5.874  0.2815  0.5216  0.1189
   92SAPC    HY 8834   6.965   6.280   5.745 -1.0259 -0.3701 -1.6025
   92SAPC   O31 8835   6.985   6.076   5.686 -0.3206 -0.2402 -0.7938
   92SAPC   C31 8836   7.124   6.071   5.668 -0.0396  0.2255  0.3722
   92SAPC   O32 8837   7.206   6.148   5.715 -0.5199 -0.3615 -0.1759
   92SAPC   C32 8838   7.160   5.947   5.582  0.8447 -0.1691 -0.4034
   92SAPC   H2X 8839   7.123   5.862   5.642  1.1671 -0.8504 -1.1535
   92SAPC   H2Y 8840   7.268   5.922   5.588  0.8178  0.0545  1.8249
   92SAPC   C23 8841   6.649   6.334   5.407 -0.7131  0.1263  0.5071
   92SAPC   H3R 8842   6.702   6.430   5.424 -0.7265  0.1847  0.2254
   92SAPC   H3S 8843   6.593   6.344   5.312  1.0214 -1.0058 -0.6959
   92SAPC   C24 8844   6.752   6.228   5.382 -0.6343  0.5258 -0.1017
   92SAPC   H4R 8845   6.832   6.234   5.458 -0.8226 -1.6900  0.3321
   92SAPC   H4S 8846   6.816   6.256   5.296 -0.3175 -1.2095 -0.4758
   92SAPC   C25 8847   6.701   6.085   5.380 -0.4590 -0.2808 -0.8399
   92SAPC   H5R 8848   6.700   6.045   5.483 -0.4835 -0.0136 -0.7363
   92SAPC   C26 8849   6.656   6.013   5.280 -0.2618 -0.2456 -0.0269
   92SAPC   H6R 8850   6.638   5.905   5.293  1.3357 -0.5936 -0.5642
   92SAPC   C27 8851   6.632   6.080   5.145  0.1396  0.0762  0.2824
   92SAPC   H7R 8852   6.645   6.190   5.149  1.2083 -0.0420  0.2552
   92SAPC   H7S 8853   6.529   6.052   5.116  0.1052  0.7844 -0.3063
   92SAPC   C28 8854   6.743   6.037   5.056 -0.2126 -0.0896  0.1895
   92SAPC   H8R 8855   6.827   5.985   5.105  1.0757  1.8116  0.1397
   92SAPC   C29 8856   6.760   6.041   4.924 -0.7433 -0.0105 -0.3157
   92SAPC   H9R 8857   6.856   6.002   4.888 -0.2327  1.3000 -0.4142
   92SAPC  C210 8858   6.663   6.095   4.824 -0.4279 -0.2114  0.1738
   92SAPC  H10R 8859   6.726   6.134   4.740 -1.2512 -0.4987 -0.5830
   92SAPC  H10S 8860   6.624   6.189   4.869  0.4991 -0.2130  1.0207
   92SAPC  C211 8861   6.556   6.002   4.772  0.6705  0.0010 -0.5667
   92SAPC  H11R 8862   6.502   5.965   4.860  1.5714 -0.9925 -0.4048
   92SAPC  C212 8863   6.519   5.977   4.646 -0.3445 -0.2952 -0.2050
   92SAPC  H12R 8864   6.431   5.915   4.625 -0.6383 -1.5605  3.9297
   92SAPC  C213 8865   6.583   6.045   4.525 -0.3880  0.2015 -0.1580
   92SAPC  H13R 8866   6.692   6.066   4.533 -0.3887  0.3814 -0.6260
   92SAPC  H13S 8867   6.536   6.144   4.510  0.6673  0.4903 -1.8071
   92SAPC  C214 8868   6.549   5.966   4.402 -0.0392 -0.3664  0.4382
   92SAPC  H14R 8869   6.447   5.927   4.388 -0.4998  0.5153  1.2154
   92SAPC  C215 8870   6.638   5.919   4.319  0.3370 -0.7074  0.1758
   92SAPC  H15R 8871   6.600   5.852   4.240 -1.5206 -0.8759  1.1584
   92SAPC  C216 8872   6.783   5.955   4.312  0.7708  0.2177  0.0574
   92SAPC  H16R 8873   6.824   5.940   4.414 -0.4719  0.7753  0.6490
   92SAPC  H16S 8874   6.804   6.055   4.270 -5.5134  2.0308  0.2323
   92SAPC  C217 8875   6.851   5.850   4.217 -0.2096 -0.4655  0.3113
   92SAPC  H17R 8876   6.954   5.891   4.208 -1.1035  2.0973  0.9742
   92SAPC  H17S 8877   6.804   5.839   4.117  3.0700 -1.6812 -1.2599
   92SAPC  C218 8878   6.861   5.715   4.279 -0.2869  0.0040 -0.4280
   92SAPC  H18R 8879   6.881   5.643   4.196  0.8543 -1.7511  1.2810
   92SAPC  H18S 8880   6.762   5.689   4.323  0.3096  0.5984  1.3123
   92SAPC  C219 8881   6.976   5.698   4.389  0.6311  0.0437  0.5730
   92SAPC  H19R 8882   6.973   5.605   4.451 -1.0754 -0.4006 -0.1264
   92SAPC  H19S 8883   6.959   5.791   4.447 -0.3781 -0.8024  1.6744
   92SAPC  C220 8884   7.107   5.700   4.314 -0.1350 -0.5099  0.2994
   92SAPC  H20R 8885   7.094   5.682   4.205  1.4655 -1.7686  0.2626
   92SAPC  H20S 8886   7.189   5.629   4.342  0.8793  0.2316 -0.7074
   92SAPC  H20T 8887   7.163   5.793   4.336  0.3929 -0.0467 -2.6122
   92SAPC   C33 8888   7.110   5.969   5.436  0.4482 -0.2296 -0.3326
   92SAPC   H3X 8889   7.157   6.055   5.382  1.4408 -0.1706  0.5903
   92SAPC   H3Y 8890   7.001   5.990   5.442  0.8134  1.3463  3.2385
   92SAPC   C34 8891   7.140   5.846   5.348  0.7262 -0.2412 -0.4202
   92SAPC   H4X 8892   7.106   5.759   5.409  1.6379 -0.6716 -0.5183
   92SAPC   H4Y 8893   7.250   5.835   5.345  0.8473  1.0100 -1.4206
   92SAPC   C35 8894   7.082   5.851   5.205 -0.1361 -0.3884  0.1713
   92SAPC   H5X 8895   7.137   5.932   5.153  1.6309 -1.9896 -0.5828
   92SAPC   H5Y 8896   6.976   5.885   5.203  0.5772  2.0260 -0.9612
   92SAPC   C36 8897   7.114   5.724   5.125  0.0557  0.1676 -0.4186
   92SAPC   H6X 8898   7.046   5.645   5.165 -1.2073 -0.0650 -2.8121
   92SAPC   H6Y 8899   7.218   5.700   5.154 -0.3158 -1.2113 -0.1460
   92SAPC   C37 8900   7.104   5.729   4.976  0.8146  0.1064  0.1008
   92SAPC   H7X 8901   7.149   5.637   4.933  0.8843  1.1300 -2.1840
   92SAPC   H7Y 8902   7.150   5.814   4.920  0.2296 -0.6495 -1.6157
   92SAPC   C38 8903   6.959   5.725   4.931 -0.2459 -0.3136 -0.3248
   92SAPC   H8X 8904   6.903   5.810   4.976  1.4548 -0.3828  2.1276
   92SAPC   H8Y 8905   6.915   5.632   4.972 -0.9686  0.4517  0.6925
   92SAPC   C39 8906   6.947   5.735   4.776  0.2738 -0.2876  0.2312
   92SAPC   H9X 8907   7.004   5.650   4.733 -0.2948 -1.2873  1.3820
   92SAPC   H9Y 8908   6.986   5.832   4.739 -1.5689 -0.2148 -1.7263
   92SAPC  C310 8909   6.801   5.729   4.726 -0.1866  0.0453  0.1348
   92SAPC  H10X 8910   6.813   5.782   4.629  1.4936 -0.4760  0.0117
   92SAPC  H10Y 8911   6.736   5.784   4.797  0.0571 -1.3909  1.5340
   92SAPC  C311 8912   6.758   5.591   4.689 -0.2538  0.1760  0.3800
   92SAPC  H11X 8913   6.752   5.527   4.780  0.5427 -0.4140  0.0399
   92SAPC  H11Y 8914   6.828   5.551   4.612  0.8046 -0.0902  1.4481
   92SAPC  C312 8915   6.624   5.608   4.616 -0.3310 -0.2185  0.0107
   92SAPC  H12X 8916   6.640   5.679   4.532 -0.0049  0.7095  0.8357
   92SAPC  H12Y 8917   6.552   5.651   4.688  1.3558  0.7746  1.1865
   92SAPC  C313 8918   6.569   5.479   4.551  0.7379 -0.1900  0.0566
   92SAPC  H13X 8919   6.564   5.400   4.629  1.6517 -1.3300 -1.0066
   92SAPC  H13Y 8920   6.630   5.439   4.467  0.8347 -2.4032  1.1160
   92SAPC  C314 8921   6.425   5.511   4.513  0.2566 -0.0276  0.2530
   92SAPC  H14X 8922   6.426   5.592   4.437 -1.1954  0.2452  0.4854
   92SAPC  H14Y 8923   6.359   5.549   4.594 -2.2901  0.5326 -1.9038
   92SAPC  C315 8924   6.355   5.385   4.452  0.6831 -0.3089 -0.2267
   92SAPC  H15X 8925   6.246   5.406   4.460  0.6960 -0.5774  0.8479
   92SAPC  H15Y 8926   6.391   5.303   4.518  0.2337  0.3281  0.8386
   92SAPC  C316 8927   6.401   5.348   4.312  0.0444  0.0547  0.3857
   92SAPC  H16X 8928   6.500   5.298   4.305  0.4427  1.0538 -2.2984
   92SAPC  H16Y 8929   6.417   5.438   4.249 -0.8989 -1.0637 -1.5349
   92SAPC  C317 8930   6.292   5.264   4.238 -0.2904  0.3231 -0.3604
   92SAPC  H17X 8931   6.191   5.302   4.262  0.0804  1.7607 -1.0264
   92SAPC  H17Y 8932   6.299   5.160   4.278 -3.0584 -0.2818 -1.2578
   92SAPC  C318 8933   6.314   5.269   4.088 -0.3258 -0.4873 -0.0463
   92SAPC  H18X 8934   6.312   5.377   4.062 -0.8315 -0.0333  1.7634
   92SAPC  H18Y 8935   6.222   5.228   4.043 -1.0730 -1.2661  2.0677
   92SAPC  H18Z 8936   6.416   5.225   4.075  1.0015  1.2855  3.0889
   93SAPC     N 8937   6.447   0.011   6.250 -0.2787 -0.4148  0.0565
   93SAPC   C12 8938   6.434   0.131   6.158  0.0923  0.0709 -0.2752
   93SAPC  H12A 8939   6.398   0.217   6.212  1.3583  1.3007 -1.3200
   93SAPC  H12B 8940   6.369   0.109   6.075 -2.5647  3.7703  0.5823
   93SAPC   C13 8941   6.556   0.030   6.348  0.4266  0.1714  0.1789
   93SAPC  H13A 8942   6.546  -0.041   6.429  2.2236  0.8218  1.0136
   93SAPC  H13B 8943   6.646   0.017   6.290 -0.0229  1.7408 -0.9513
   93SAPC  H13C 8944   6.570   0.128   6.390  0.8190 -0.3726  1.3765
   93SAPC   C14 8945   6.324  -0.013   6.341  0.9189 -0.2143  0.7499
   93SAPC  H14A 8946   6.245  -0.034   6.270  0.5970  2.6892  0.0891
   93SAPC  H14B 8947   6.346  -0.096   6.405  2.0617  0.7517  1.6643
   93SAPC  H14C 8948   6.300   0.082   6.387 -0.4414 -0.1243 -0.0831
   93SAPC   C15 8949   6.464  -0.118   6.176  0.1893  0.4823  0.2542
   93SAPC  H15A 8950   6.391  -0.114   6.096  2.1075 -0.1165 -1.6392
   93SAPC  H15B 8951   6.562  -0.122   6.132 -0.4115 -0.1345 -1.0990
   93SAPC  H15C 8952   6.442  -0.202   6.240 -0.0537  0.1722 -0.2229
   93SAPC   C11 8953   6.563   0.181   6.087  0.3334  0.2453  0.4654
   93SAPC  H11A 8954   6.630   0.210   6.170  2.2009 -0.9572 -0.5510
   93SAPC  H11B 8955   6.546   0.279   6.036 -1.5683 -0.7473 -0.9410
   93SAPC     P 8956   6.538   0.066   5.850  0.0533  0.2272 -0.1179
   93SAPC   O13 8957   6.611  -0.016   5.753  0.0275 -0.0969  0.6022
   93SAPC   O14 8958   6.405   0.016   5.888  0.1245 -0.3385  0.6745
   93SAPC   O12 8959   6.617   0.096   5.988 -0.3723  0.7027  0.2396
   93SAPC   O11 8960   6.518   0.212   5.784 -0.3725 -0.6945 -0.1957
   93SAPC    C1 8961   6.623   0.300   5.744  0.1773  0.5233 -0.1390
   93SAPC    HA 8962   6.581   0.402   5.728 -0.3238  0.2256 -0.7353
   93SAPC    HB 8963   6.697   0.304   5.827  0.0026 -0.9113  0.1133
   93SAPC    C2 8964   6.687   0.265   5.618 -0.9630 -0.0517 -0.0982
   93SAPC    HS 8965   6.716   0.158   5.623 -0.1848  0.2112  1.7827
   93SAPC   O21 8966   6.799   0.342   5.587 -0.2227 -0.3524  0.3043
   93SAPC   C21 8967   6.914   0.320   5.650 -0.2739  0.3279 -0.3091
   93SAPC   O22 8968   6.933   0.228   5.723  0.3662  0.1514 -0.2951
   93SAPC   C22 8969   7.015   0.415   5.602  0.1797  0.3928  0.3849
   93SAPC   H2R 8970   6.969   0.510   5.566  0.8576  0.4371 -0.3920
   93SAPC   H2S 8971   7.086   0.429   5.685  1.4448  0.2061 -0.6412
   93SAPC    C3 8972   6.579   0.273   5.503  0.4670  0.1148 -0.1314
   93SAPC    HX 8973   6.531   0.372   5.512  1.6547  0.5417  2.1536
   93SAPC    HY 8974   6.497   0.203   5.530 -1.9741  2.8813  0.1373
   93SAPC   O31 8975   6.647   0.266   5.374  0.0586  0.0864 -0.3318
   93SAPC   C31 8976   6.658   0.146   5.331 -0.2484  0.5238  0.6927
   93SAPC   O32 8977   6.611   0.044   5.382  0.3762  0.0143 -0.0437
   93SAPC   C32 8978   6.729   0.147   5.199 -0.3093 -0.3239 -0.0199
   93SAPC   H2X 8979   6.838   0.134   5.210  0.1174  2.3228 -0.3686
   93SAPC   H2Y 8980   6.711   0.250   5.159  2.7331  0.1042 -0.5168
   93SAPC   C23 8981   7.095   0.359   5.482  0.8263 -0.3255  0.0059
   93SAPC   H3R 8982   7.162   0.438   5.442 -0.1233  0.8620  0.6817
   93SAPC   H3S 8983   7.025   0.330   5.401 -1.4287  0.3971  1.5699
   93SAPC   C24 8984   7.188   0.240   5.510  0.1905  0.5139  0.5202
   93SAPC   H4R 8985   7.132   0.144   5.517  0.6214  0.2941  1.0353
   93SAPC   H4S 8986   7.228   0.260   5.611 -0.5653  2.2136  0.5007
   93SAPC   C25 8987   7.302   0.231   5.410 -0.1488  0.1439  0.1827
   93SAPC   H5R 8988   7.395   0.267   5.456  0.4195 -1.1225  0.0740
   93SAPC   C26 8989   7.312   0.148   5.299  0.4347  1.1048  0.1483
   93SAPC   H6R 8990   7.411   0.149   5.250  0.1227  1.4440 -0.4868
   93SAPC   C27 8991   7.210   0.052   5.245 -0.2092 -0.1923  0.2542
   93SAPC   H7R 8992   7.242   0.024   5.143  2.9174 -0.2006  1.1445
   93SAPC   H7S 8993   7.119   0.115   5.234  1.3865  2.6590  2.0329
   93SAPC   C28 8994   7.192  -0.067   5.330 -0.1771  0.3198 -0.0040
   93SAPC   H8R 8995   7.253  -0.064   5.422  1.8539 -0.4020 -1.2634
   93SAPC   C29 8996   7.110  -0.167   5.310 -0.0837  0.0420 -0.5094
   93SAPC   H9R 8997   7.108  -0.250   5.382 -0.6394 -1.5340 -2.2859
   93SAPC  C210 8998   7.020  -0.181   5.185 -0.1552 -0.4293 -0.7450
   93SAPC  H10R 8999   7.077  -0.213   5.095 -1.8744  0.1194 -2.0827
   93SAPC  H10S 9000   6.995  -0.081   5.144  0.2439 -0.2462 -0.5480
   93SAPC  C211 9001   6.890  -0.257   5.201  0.0090  0.6521 -0.2045
   93SAPC  H11R 9002   6.841  -0.238   5.297 -0.1113  0.5407 -0.2439
   93SAPC  C212 9003   6.854  -0.366   5.127 -0.5299 -0.5355  0.4809
   93SAPC  H12R 9004   6.767  -0.428   5.155  1.3022 -3.7932 -0.4524
   93SAPC  C213 9005   6.927  -0.416   5.004 -0.1688 -0.1348 -0.3090
   93SAPC  H13R 9006   7.036  -0.402   5.018 -0.5613  1.8946  1.1817
   93SAPC  H13S 9007   6.910  -0.345   4.920  1.4974 -1.5208 -1.9017
   93SAPC  C214 9008   6.897  -0.547   4.943  0.3432  0.3424  0.3624
   93SAPC  H14R 9009   6.982  -0.589   4.887  0.0627  2.7482 -2.0658
   93SAPC  C215 9010   6.778  -0.607   4.928  0.2595 -0.4148 -0.0692
   93SAPC  H15R 9011   6.781  -0.705   4.878  2.0775 -1.6245  2.2300
   93SAPC  C216 9012   6.644  -0.560   4.966  0.7466  0.3743  0.3706
   93SAPC  H16R 9013   6.582  -0.549   4.875  0.1305  1.0547  0.8584
   93SAPC  H16S 9014   6.633  -0.458   5.010 -2.8155  0.1569  0.2246
   93SAPC  C217 9015   6.555  -0.648   5.049  0.1204  0.2460 -0.0443
   93SAPC  H17R 9016   6.606  -0.681   5.142 -1.6439  1.7208  1.5517
   93SAPC  H17S 9017   6.529  -0.737   4.987 -0.5219  0.9411 -0.7971
   93SAPC  C218 9018   6.419  -0.600   5.092 -0.2326  0.9578  0.1616
   93SAPC  H18R 9019   6.360  -0.690   5.120  1.3125 -1.1799 -2.8872
   93SAPC  H18S 9020   6.367  -0.548   5.008 -2.2767 -0.7196  0.2894
   93SAPC  C219 9021   6.433  -0.511   5.214  0.6663  0.2564 -0.5528
   93SAPC  H19R 9022   6.484  -0.415   5.192 -0.0530  1.1618  1.5246
   93SAPC  H19S 9023   6.505  -0.561   5.284  1.6594 -1.4129 -2.6372
   93SAPC  C220 9024   6.300  -0.482   5.289  0.3191 -0.6272  0.4022
   93SAPC  H20R 9025   6.266  -0.578   5.334  2.7897 -0.1612  3.6601
   93SAPC  H20S 9026   6.222  -0.434   5.226 -0.6447  0.3399  2.2629
   93SAPC  H20T 9027   6.302  -0.414   5.377 -1.8932  1.4955 -1.0589
   93SAPC   C33 9028   6.692   0.026   5.107  0.2202 -1.1288  0.1132
   93SAPC   H3X 9029   6.585   0.042   5.080  0.5280 -2.5519 -2.1698
   93SAPC   H3Y 9030   6.707  -0.065   5.169  2.3824 -0.2489  0.9925
   93SAPC   C34 9031   6.757   0.014   4.968 -0.1769  0.2741  0.1993
   93SAPC   H4X 9032   6.742  -0.092   4.936  0.0238 -0.0101  1.0336
   93SAPC   H4Y 9033   6.866   0.026   4.981  0.7486 -3.4629 -2.3767
   93SAPC   C35 9034   6.703   0.120   4.877  0.2191  0.4543  0.3135
   93SAPC   H5X 9035   6.742   0.217   4.912  0.5508 -0.0349  1.3350
   93SAPC   H5Y 9036   6.593   0.109   4.879  0.4268 -2.6142  1.8004
   93SAPC   C36 9037   6.730   0.089   4.722 -0.4296  0.6061 -0.2507
   93SAPC   H6X 9038   6.686  -0.011   4.701 -1.4078  1.2787 -1.5819
   93SAPC   H6Y 9039   6.839   0.080   4.702 -0.7467 -1.9862 -1.2824
   93SAPC   C37 9040   6.665   0.187   4.627 -0.5090 -0.4991  0.0031
   93SAPC   H7X 9041   6.700   0.289   4.653 -0.4542 -0.8951  1.6114
   93SAPC   H7Y 9042   6.555   0.195   4.637 -0.1631  2.5361  4.5765
   93SAPC   C38 9043   6.704   0.163   4.481 -0.2483  0.8867 -0.1252
   93SAPC   H8X 9044   6.645   0.075   4.450  0.7686  0.3097 -0.4772
   93SAPC   H8Y 9045   6.814   0.145   4.477 -0.1302  1.6709 -0.9206
   93SAPC   C39 9046   6.683   0.287   4.392  0.3160  1.0277  0.2326
   93SAPC   H9X 9047   6.765   0.353   4.428  0.1804  2.5224 -1.9799
   93SAPC   H9Y 9048   6.584   0.326   4.426  0.1293  1.7804 -1.0890
   93SAPC  C310 9049   6.686   0.279   4.238  0.0400  0.6658  0.1875
   93SAPC  H10X 9050   6.782   0.265   4.184 -0.5079  0.5238 -0.7845
   93SAPC  H10Y 9051   6.626   0.364   4.197  0.2351  0.2598 -0.9801
   93SAPC  C311 9052   6.604   0.155   4.194  0.1532  0.0915 -0.2783
   93SAPC  H11X 9053   6.508   0.152   4.249  0.5543 -2.1220  0.4182
   93SAPC  H11Y 9054   6.659   0.068   4.235 -2.2963 -1.1688  0.5501
   93SAPC  C312 9055   6.580   0.146   4.043 -0.6168 -0.3991 -0.3873
   93SAPC  H12X 9056   6.671   0.145   3.980 -1.8362  1.1970 -2.2859
   93SAPC  H12Y 9057   6.523   0.238   4.020  0.2520 -0.2231 -1.9945
   93SAPC  C313 9058   6.497   0.027   4.001  0.2258 -0.4703  0.6314
   93SAPC  H13X 9059   6.397   0.037   4.047  0.2280  0.5936  0.4262
   93SAPC  H13Y 9060   6.547  -0.069   4.026  1.0447  0.4577  2.7591
   93SAPC  C314 9061   6.486   0.041   3.849  0.2498 -0.1571  0.4074
   93SAPC  H14X 9062   6.587   0.048   3.803  0.4828  0.1655  0.9563
   93SAPC  H14Y 9063   6.439   0.137   3.819  3.3368  1.3324 -0.0492
   93SAPC  C315 9064   6.417  -0.073   3.781  0.0400 -0.4354 -0.2155
   93SAPC  H15X 9065   6.310  -0.090   3.808  0.4644 -1.7811  0.7460
   93SAPC  H15Y 9066   6.472  -0.167   3.805 -0.1110 -0.2818  0.7469
   93SAPC  C316 9067   6.407  -0.046   3.628  0.6052  0.3265  0.6559
   93SAPC  H16X 9068   6.400  -0.145   3.578  0.4779 -0.3778  2.0234
   93SAPC  H16Y 9069   6.491   0.021   3.599  0.4195  0.1976 -0.2005
   93SAPC  C317 9070   6.265   0.006   3.584 -0.4113 -0.4559  0.1477
   93SAPC  H17X 9071   6.238   0.094   3.646  0.8541  1.4148 -1.7955
   93SAPC  H17Y 9072   6.194  -0.075   3.611 -0.6456 -1.1031 -2.2191
   93SAPC  C318 9073   6.244   0.029   3.432 -0.3279 -0.2954 -0.6648
   93SAPC  H18X 9074   6.140   0.030   3.395 -1.0960 -2.5474  1.1790
   93SAPC  H18Y 9075   6.302  -0.038   3.365  0.6552  1.3957 -1.5983
   93SAPC  H18Z 9076   6.284   0.131   3.411 -3.7697  1.2753 -0.2199
   94SAPC     N 9077   7.091   0.166   6.056  0.3687 -0.3204 -0.5116
   94SAPC   C12 9078   7.068   0.084   5.932 -0.1573 -0.2458 -0.2125
   94SAPC  H12A 9079   7.027   0.152   5.858 -0.8382 -0.6054 -0.1774
   94SAPC  H12B 9080   6.998   0.002   5.943 -0.0613 -0.0014  3.1691
   94SAPC   C13 9081   6.958   0.226   6.095 -0.6696 -0.2902 -0.4562
   94SAPC  H13A 9082   6.887   0.151   6.125 -0.8447 -0.3075 -0.9100
   94SAPC  H13B 9083   6.982   0.296   6.174 -0.0139 -1.3218  0.2821
   94SAPC  H13C 9084   6.915   0.288   6.018  2.2497 -0.0711 -2.0250
   94SAPC   C14 9085   7.141   0.080   6.172 -0.1549  0.0339  0.2754
   94SAPC  H14A 9086   7.071   0.010   6.216 -0.6720  0.9988  1.0095
   94SAPC  H14B 9087   7.229   0.028   6.138  0.5059 -0.8345  3.1006
   94SAPC  H14C 9088   7.178   0.143   6.251  0.9126 -2.0157  1.4955
   94SAPC   C15 9089   7.188   0.281   6.034  0.5559 -0.1334 -0.0107
   94SAPC  H15A 9090   7.280   0.241   5.994  2.6447  4.1122 -0.0292
   94SAPC  H15B 9091   7.151   0.348   5.958  0.4694 -0.5997 -0.3796
   94SAPC  H15C 9092   7.217   0.341   6.120  0.4825 -1.3406  0.8736
   94SAPC   C11 9093   7.189   0.023   5.857 -0.9284  0.1329  0.3011
   94SAPC  H11A 9094   7.260   0.103   5.828  0.5769 -0.6628  1.6486
   94SAPC  H11B 9095   7.151  -0.020   5.762 -0.4520 -1.0402  0.6272
   94SAPC     P 9096   7.388  -0.137   5.892 -0.5184 -0.1641  0.0401
   94SAPC   O13 9097   7.497  -0.032   5.864  0.2649 -0.3713  0.3632
   94SAPC   O14 9098   7.426  -0.227   5.999  0.0156  0.2382 -0.2816
   94SAPC   O12 9099   7.257  -0.068   5.932 -0.3299  0.6662  0.1165
   94SAPC   O11 9100   7.364  -0.221   5.758  0.2070  0.1202  0.4061
   94SAPC    C1 9101   7.280  -0.336   5.745 -0.6363 -0.0034  0.0871
   94SAPC    HA 9102   7.229  -0.363   5.840  0.0060 -0.1037  0.4064
   94SAPC    HB 9103   7.205  -0.333   5.662 -0.4928  1.4068 -0.0262
   94SAPC    C2 9104   7.375  -0.452   5.702  0.5495 -0.5811 -0.2186
   94SAPC    HS 9105   7.448  -0.463   5.785 -1.8928  0.5211  2.2017
   94SAPC   O21 9106   7.441  -0.421   5.577  0.8087  0.3055 -0.6255
   94SAPC   C21 9107   7.559  -0.352   5.593 -0.2913  0.7198 -0.0086
   94SAPC   O22 9108   7.640  -0.372   5.684  0.1158  0.1510  0.7362
   94SAPC   C22 9109   7.586  -0.263   5.472  0.2202 -0.2346  0.8359
   94SAPC   H2R 9110   7.658  -0.310   5.402 -0.1510 -1.2918  1.1503
   94SAPC   H2S 9111   7.490  -0.250   5.419 -0.1758 -1.7872  1.1302
   94SAPC    C3 9112   7.314  -0.592   5.694 -0.1975 -0.3276 -0.2351
   94SAPC    HX 9113   7.259  -0.617   5.787 -4.9506 -0.6475 -2.7809
   94SAPC    HY 9114   7.402  -0.658   5.678  1.7236  2.6291 -3.2012
   94SAPC   O31 9115   7.205  -0.601   5.594  0.0152  0.3949 -0.6038
   94SAPC   C31 9116   7.263  -0.645   5.479  0.1413  0.3663 -0.1080
   94SAPC   O32 9117   7.375  -0.694   5.456  0.2921 -0.2479 -0.0662
   94SAPC   C32 9118   7.146  -0.635   5.380 -0.2036 -0.6786 -0.4055
   94SAPC   H2X 9119   7.177  -0.562   5.302  2.8913 -1.2308  0.1523
   94SAPC   H2Y 9120   7.055  -0.602   5.434 -0.0653  0.7803 -1.0187
   94SAPC   C23 9121   7.620  -0.126   5.532  0.2102 -0.8189  0.5653
   94SAPC   H3R 9122   7.706  -0.140   5.601  1.0509  0.9699 -0.0542
   94SAPC   H3S 9123   7.529  -0.088   5.584 -0.7007  0.0003 -1.4944
   94SAPC   C24 9124   7.642  -0.012   5.425 -0.0963 -0.3603  0.6612
   94SAPC   H4R 9125   7.667   0.083   5.477  1.4198 -1.0168  1.2137
   94SAPC   H4S 9126   7.545  -0.009   5.371  1.5540  0.6048 -2.5021
   94SAPC   C25 9127   7.761  -0.042   5.333  0.1866 -0.2881  0.2127
   94SAPC   H5R 9128   7.852  -0.067   5.390 -0.5240 -2.5897  0.4577
   94SAPC   C26 9129   7.770  -0.073   5.199 -0.0014 -1.3463  0.0267
   94SAPC   H6R 9130   7.871  -0.085   5.158  0.5585  3.1852 -0.3496
   94SAPC   C27 9131   7.647  -0.076   5.108 -0.8957  0.6164  0.0419
   94SAPC   H7R 9132   7.604   0.025   5.089 -2.9436 -0.1785  0.1488
   94SAPC   H7S 9133   7.572  -0.148   5.146  0.1791 -0.0460  0.9568
   94SAPC   C28 9134   7.691  -0.131   4.974 -0.8721  0.1173  0.2482
   94SAPC   H8R 9135   7.791  -0.178   4.974 -1.3511 -0.9947  1.8845
   94SAPC   C29 9136   7.609  -0.123   4.864  0.1670 -0.3670 -0.0965
   94SAPC   H9R 9137   7.648  -0.160   4.768 -0.0963  1.8110 -1.1003
   94SAPC  C210 9138   7.473  -0.056   4.866  0.4293  0.1133 -1.3422
   94SAPC  H10R 9139   7.467  -0.000   4.770  0.5926  1.7643 -0.4355
   94SAPC  H10S 9140   7.470   0.032   4.935 -0.5220 -1.7179  1.1225
   94SAPC  C211 9141   7.349  -0.136   4.904  0.4525  0.0627  0.0176
   94SAPC  H11R 9142   7.354  -0.191   4.999 -0.5760 -0.1071 -0.0203
   94SAPC  C212 9143   7.236  -0.141   4.824 -0.2795  0.5777 -0.5423
   94SAPC  H12R 9144   7.141  -0.181   4.862  0.2468  1.8662  2.4558
   94SAPC  C213 9145   7.210  -0.071   4.696  0.2927 -0.6550  0.7765
   94SAPC  H13R 9146   7.290  -0.003   4.659 -1.1297 -0.5541 -2.5296
   94SAPC  H13S 9147   7.113  -0.016   4.698  0.3436 -0.4764 -0.5605
   94SAPC  C214 9148   7.199  -0.182   4.592  0.2575  0.3084 -0.3129
   94SAPC  H14R 9149   7.301  -0.209   4.561 -0.3521  1.0472 -3.2556
   94SAPC  C215 9150   7.091  -0.238   4.543  0.5557 -0.0713 -0.0948
   94SAPC  H15R 9151   7.107  -0.329   4.483 -0.3375 -0.0901 -0.3223
   94SAPC  C216 9152   6.947  -0.215   4.590 -0.2238  0.2942  0.0934
   94SAPC  H16R 9153   6.893  -0.165   4.507  0.3018 -0.1985 -0.5523
   94SAPC  H16S 9154   6.942  -0.152   4.682  0.6478  0.0342  0.3299
   94SAPC  C217 9155   6.889  -0.348   4.636  0.0079 -0.2124 -0.1969
   94SAPC  H17R 9156   6.790  -0.331   4.684 -0.6689  0.0617 -1.6136
   94SAPC  H17S 9157   6.960  -0.391   4.709 -1.8837 -0.9952  1.2719
   94SAPC  C218 9158   6.846  -0.451   4.528  0.2996 -0.0002 -0.2315
   94SAPC  H18R 9159   6.917  -0.443   4.442  0.9975 -1.0451  0.2279
   94SAPC  H18S 9160   6.747  -0.415   4.493 -0.0139  0.2444  0.8714
   94SAPC  C219 9161   6.826  -0.593   4.589 -0.4341 -1.1256  0.3026
   94SAPC  H19R 9162   6.749  -0.568   4.665 -2.5198  2.4078 -2.6883
   94SAPC  H19S 9163   6.923  -0.625   4.634 -0.0983  0.4431  0.7695
   94SAPC  C220 9164   6.789  -0.712   4.497  0.0672  1.1982  0.0991
   94SAPC  H20R 9165   6.798  -0.809   4.550 -0.9384  1.9188  1.6516
   94SAPC  H20S 9166   6.856  -0.701   4.408  0.3772  0.7377  0.2706
   94SAPC  H20T 9167   6.682  -0.707   4.469 -0.1061  0.2555  0.5431
   94SAPC   C33 9168   7.106  -0.765   5.306  0.2720  0.8600  0.3022
   94SAPC   H3X 9169   7.043  -0.824   5.376 -0.1737 -1.4356 -1.9325
   94SAPC   H3Y 9170   7.194  -0.832   5.301 -0.1446  0.3662 -0.5307
   94SAPC   C34 9171   7.038  -0.754   5.173 -1.0389 -0.7159 -0.7747
   94SAPC   H4X 9172   7.088  -0.671   5.118 -0.6216 -0.3238  0.1821
   94SAPC   H4Y 9173   6.932  -0.730   5.194 -0.7197 -1.1271  1.5013
   94SAPC   C35 9174   7.030  -0.872   5.073 -0.4781 -0.0792 -0.4014
   94SAPC   H5X 9175   6.947  -0.841   5.007  1.1845  0.2485 -2.4619
   94SAPC   H5Y 9176   6.999  -0.964   5.126  0.4572 -0.8155 -1.0899
   94SAPC   C36 9177   7.156  -0.884   4.980 -0.4377  0.5015  0.5071
   94SAPC   H6X 9178   7.242  -0.905   5.047 -0.3357  0.6689  0.4308
   94SAPC   H6Y 9179   7.177  -0.784   4.937  1.7620 -0.2094 -0.2155
   94SAPC   C37 9180   7.140  -0.981   4.866 -0.5183  0.5437 -0.2359
   94SAPC   H7X 9181   7.034  -0.988   4.834  0.3134 -1.3827 -2.8879
   94SAPC   H7Y 9182   7.166  -1.085   4.895 -0.0239  1.0480  1.2576
   94SAPC   C38 9183   7.223  -0.941   4.732  0.0456  0.3185  0.3048
   94SAPC   H8X 9184   7.331  -0.952   4.756  0.5942 -0.1329 -2.1244
   94SAPC   H8Y 9185   7.220  -0.832   4.712  0.0770  0.3109  0.2588
   94SAPC   C39 9186   7.190  -1.007   4.598 -0.6852 -0.3340  0.1753
   94SAPC   H9X 9187   7.083  -0.999   4.573 -1.4272 -3.7079  1.7238
   94SAPC   H9Y 9188   7.206  -1.115   4.620  0.5791  0.1249  1.8032
   94SAPC  C310 9189   7.277  -0.948   4.482  0.0228  0.1052 -0.0685
   94SAPC  H10X 9190   7.284  -1.023   4.401  0.0313  0.4748 -0.4130
   94SAPC  H10Y 9191   7.385  -0.944   4.508 -0.4282 -0.1504  2.0940
   94SAPC  C311 9192   7.210  -0.816   4.429 -0.3954 -0.3846  0.1374
   94SAPC  H11X 9193   7.242  -0.737   4.500 -0.7903 -0.0769 -0.0204
   94SAPC  H11Y 9194   7.099  -0.815   4.425 -0.3869 -1.6908 -1.0727
   94SAPC  C312 9195   7.250  -0.782   4.289  0.6236 -0.7522  0.0882
   94SAPC  H12X 9196   7.225  -0.864   4.218  1.8782  0.4452 -1.8324
   94SAPC  H12Y 9197   7.361  -0.780   4.282  0.6763  0.4655  1.0460
   94SAPC  C313 9198   7.182  -0.647   4.249  0.3856  0.4379  0.4502
   94SAPC  H13X 9199   7.222  -0.561   4.308 -1.7005  1.7405  0.0542
   94SAPC  H13Y 9200   7.074  -0.649   4.272  0.4564 -0.5065  0.7620
   94SAPC  C314 9201   7.200  -0.613   4.101  0.3158 -0.4893  0.4773
   94SAPC  H14X 9202   7.187  -0.701   4.036 -0.6131 -0.9553  1.2607
   94SAPC  H14Y 9203   7.303  -0.577   4.080  0.1362 -0.1872  0.0989
   94SAPC  C315 9204   7.105  -0.493   4.057 -0.5694  0.0828 -0.3171
   94SAPC  H15X 9205   7.157  -0.403   4.096  0.3490 -0.9346  0.8922
   94SAPC  H15Y 9206   7.010  -0.501   4.114 -1.5696 -2.0802 -2.0957
   94SAPC  C316 9207   7.089  -0.477   3.908 -0.1341  1.1036 -0.1147
   94SAPC  H16X 9208   6.993  -0.426   3.883 -0.4590  1.1153  1.1052
   94SAPC  H16Y 9209   7.086  -0.580   3.865 -0.0791  0.5077  1.2503
   94SAPC  C317 9210   7.193  -0.393   3.840  0.2665  0.5001  0.6186
   94SAPC  H17X 9211   7.294  -0.441   3.849  0.5284  0.4636 -1.8613
   94SAPC  H17Y 9212   7.187  -0.291   3.882  1.7220  0.8487  0.0437
   94SAPC  C318 9213   7.161  -0.397   3.694 -0.3153 -0.1387 -0.8441
   94SAPC  H18X 9214   7.237  -0.354   3.626 -1.2447 -1.8021 -3.0441
   94SAPC  H18Y 9215   7.063  -0.347   3.681  0.4852  2.6134  2.3448
   94SAPC  H18Z 9216   7.149  -0.500   3.653  0.4174  0.5694 -2.9326
   95SAPC     N 9217   4.893   3.377   1.449 -0.1756 -0.2626 -0.0833
   95SAPC   C12 9218   4.977   3.256   1.430  0.3631 -0.0648 -0.4234
   95SAPC  H12A 9219   5.039   3.263   1.342 -1.2192 -0.3335 -1.6038
   95SAPC  H12B 9220   4.914   3.170   1.414 -0.6308  0.4737  0.4402
   95SAPC   C13 9221   4.832   3.382   1.584 -0.6826 -0.8104 -0.7135
   95SAPC  H13A 9222   4.748   3.317   1.605 -2.2127  0.7833 -1.6420
   95SAPC  H13B 9223   4.903   3.355   1.661 -0.0551  0.6986 -0.7339
   95SAPC  H13C 9224   4.795   3.481   1.606 -1.6713 -1.4864  0.9295
   95SAPC   C14 9225   4.981   3.506   1.436  0.5286  0.8691  0.3875
   95SAPC  H14A 9226   5.068   3.502   1.499  0.4845  0.1131  0.4159
   95SAPC  H14B 9227   5.019   3.515   1.335  0.4350  0.3024  0.2941
   95SAPC  H14C 9228   4.927   3.599   1.448  0.5319  0.7153  1.6548
   95SAPC   C15 9229   4.772   3.396   1.347 -0.5366 -0.2111 -0.2661
   95SAPC  H15A 9230   4.707   3.310   1.345 -0.5949 -0.2208  1.0364
   95SAPC  H15B 9231   4.724   3.484   1.388  0.0051 -0.3149  0.6293
   95SAPC  H15C 9232   4.803   3.421   1.247 -2.0456 -0.7189 -0.8787
   95SAPC   C11 9233   5.066   3.224   1.555  0.2367  0.1620  0.0003
   95SAPC  H11A 9234   5.095   3.320   1.604 -0.8144 -0.1297  1.2841
   95SAPC  H11B 9235   5.155   3.162   1.534  0.4183  0.8895 -1.4300
   95SAPC     P 9236   4.986   2.993   1.645 -0.2109 -0.1088 -0.0119
   95SAPC   O13 9237   4.956   2.950   1.504  0.1568 -0.3014  0.0275
   95SAPC   O14 9238   5.113   2.946   1.694  0.2346 -0.0319  0.2875
   95SAPC   O12 9239   4.984   3.152   1.653 -0.3133  0.7413 -0.2279
   95SAPC   O11 9240   4.864   2.951   1.739 -0.1632 -0.2860 -0.9202
   95SAPC    C1 9241   4.848   3.009   1.870  0.9022 -0.2515  0.1451
   95SAPC    HA 9242   4.863   3.119   1.860 -0.1782 -0.2481 -2.1387
   95SAPC    HB 9243   4.745   2.991   1.906  0.2043  0.8843 -1.1722
   95SAPC    C2 9244   4.952   2.966   1.971  0.5594  0.1577  0.8726
   95SAPC    HS 9245   5.056   2.989   1.937  0.3639  1.6976  1.2685
   95SAPC   O21 9246   4.929   2.831   2.003 -0.2342  0.3765  0.3780
   95SAPC   C21 9247   5.033   2.763   2.059  0.3568  0.7869  0.2458
   95SAPC   O22 9248   5.150   2.797   2.063 -1.2334 -0.0982 -0.5623
   95SAPC   C22 9249   4.973   2.631   2.125  0.4140 -1.0298  0.0429
   95SAPC   H2R 9250   4.913   2.583   2.045 -0.6246 -0.4274  0.4384
   95SAPC   H2S 9251   5.060   2.568   2.150  1.7850  1.7967  3.2538
   95SAPC    C3 9252   4.928   3.040   2.098  0.6482 -0.5481 -0.0659
   95SAPC    HX 9253   4.824   3.027   2.134  0.6783  2.9535  1.6931
   95SAPC    HY 9254   4.940   3.145   2.061 -1.4850  0.3564  1.6427
   95SAPC   O31 9255   5.016   3.006   2.206 -0.6354 -0.4366 -0.3505
   95SAPC   C31 9256   5.097   3.096   2.246 -1.1649  0.3168 -0.4060
   95SAPC   O32 9257   5.117   3.206   2.202  0.5360 -0.2254  0.6283
   95SAPC   C32 9258   5.195   3.034   2.356 -0.4915  0.1375  0.2202
   95SAPC   H2X 9259   5.283   3.102   2.350 -0.8539  0.4882 -2.4613
   95SAPC   H2Y 9260   5.219   2.937   2.309  1.2914  0.1629  0.9631
   95SAPC   C23 9261   4.888   2.674   2.244 -0.7004 -0.7957  0.0463
   95SAPC   H3R 9262   4.811   2.596   2.260  0.5368 -2.1116 -0.2516
   95SAPC   H3S 9263   4.839   2.772   2.223  0.4350 -0.4731 -1.1950
   95SAPC   C24 9264   4.987   2.687   2.362  0.2346 -0.4602 -1.0995
   95SAPC   H4R 9265   5.076   2.749   2.342  0.0323 -0.1144 -0.9434
   95SAPC   H4S 9266   5.028   2.586   2.385  1.3662  0.3515  0.6940
   95SAPC   C25 9267   4.905   2.744   2.477 -0.1223 -0.3624  0.0512
   95SAPC   H5R 9268   4.817   2.798   2.440 -0.0385  0.4728  1.0383
   95SAPC   C26 9269   4.909   2.715   2.605 -0.3218 -0.0932 -0.0274
   95SAPC   H6R 9270   4.851   2.787   2.663  0.0015  0.0443  0.1283
   95SAPC   C27 9271   4.990   2.614   2.683 -0.0232 -0.4969  0.4200
   95SAPC   H7R 9272   5.084   2.652   2.729 -0.8429 -0.0452  1.7955
   95SAPC   H7S 9273   5.013   2.531   2.613 -1.2870 -0.0068 -0.6191
   95SAPC   C28 9274   4.904   2.542   2.787  0.2431 -0.1061  0.5673
   95SAPC   H8R 9275   4.841   2.462   2.745 -0.4365 -0.5405  2.3426
   95SAPC   C29 9276   4.926   2.543   2.924 -0.3535 -0.2932  0.3373
   95SAPC   H9R 9277   4.851   2.486   2.979  0.5746 -1.7399  0.1758
   95SAPC  C210 9278   5.024   2.628   3.002 -0.2766  0.0957  0.0060
   95SAPC  H10R 9279   4.987   2.726   3.037  0.4671  0.5238 -0.3942
   95SAPC  H10S 9280   5.106   2.663   2.935  0.9474  0.3652  1.5691
   95SAPC  C211 9281   5.083   2.553   3.122  0.6063 -0.5494 -0.2532
   95SAPC  H11R 9282   5.164   2.486   3.092  0.6067  1.3254 -5.2399
   95SAPC  C212 9283   5.047   2.569   3.255  0.0862 -0.6985  0.2407
   95SAPC  H12R 9284   5.094   2.511   3.336  0.8485 -0.1838  0.1766
   95SAPC  C213 9285   4.938   2.663   3.304  0.0795  0.0421 -0.3201
   95SAPC  H13R 9286   4.859   2.606   3.357  0.5868 -0.7358 -0.3800
   95SAPC  H13S 9287   4.872   2.698   3.222 -2.5130 -1.4417  0.9974
   95SAPC  C214 9288   4.994   2.765   3.402  1.0041 -0.4221  0.1218
   95SAPC  H14R 9289   5.041   2.847   3.346 -1.0109 -0.1023 -1.2116
   95SAPC  C215 9290   4.999   2.748   3.540  0.3526  0.1230  0.0208
   95SAPC  H15R 9291   5.038   2.827   3.606 -1.4988 -0.7157  2.2378
   95SAPC  C216 9292   4.956   2.630   3.621 -0.0261  0.1558 -0.0764
   95SAPC  H16R 9293   4.913   2.553   3.553  0.1304 -0.8195  0.8962
   95SAPC  H16S 9294   4.869   2.662   3.682  0.3095  2.2887 -0.6232
   95SAPC  C217 9295   5.060   2.573   3.717 -0.3965 -0.1266 -0.5329
   95SAPC  H17R 9296   5.085   2.651   3.792 -0.6873 -0.9161  0.4084
   95SAPC  H17S 9297   5.153   2.535   3.668  0.2312 -0.8572  1.1413
   95SAPC  C218 9298   4.990   2.454   3.792  0.3715 -0.0342  0.1432
   95SAPC  H18R 9299   4.932   2.396   3.718  0.1159  1.1380 -0.5946
   95SAPC  H18S 9300   4.919   2.485   3.871  0.2941  0.4443 -0.1098
   95SAPC  C219 9301   5.087   2.358   3.855  0.9583  0.2474 -0.3356
   95SAPC  H19R 9302   5.142   2.406   3.938  0.4318  0.7759 -0.2880
   95SAPC  H19S 9303   5.166   2.331   3.782 -0.2197 -0.0555 -1.5520
   95SAPC  C220 9304   5.036   2.222   3.904  0.3908 -0.1244  0.7624
   95SAPC  H20R 9305   4.973   2.166   3.831  0.5068  0.8528 -0.1029
   95SAPC  H20S 9306   4.979   2.240   3.998 -1.7726 -1.1291 -0.2823
   95SAPC  H20T 9307   5.122   2.155   3.922  1.8110  1.3115 -0.4446
   95SAPC   C33 9308   5.136   3.023   2.499  0.2212  0.4993 -0.4361
   95SAPC   H3X 9309   5.114   2.915   2.518 -0.5767  0.3863 -1.8444
   95SAPC   H3Y 9310   5.048   3.087   2.523  2.5397  3.3149  1.2606
   95SAPC   C34 9311   5.242   3.063   2.607  0.3931 -0.2638 -0.6162
   95SAPC   H4X 9312   5.275   3.167   2.587 -2.5722  0.5605 -1.8633
   95SAPC   H4Y 9313   5.323   2.988   2.597  1.1251  0.7479 -2.8503
   95SAPC   C35 9314   5.188   3.052   2.746 -0.1809 -0.2054 -0.3563
   95SAPC   H5X 9315   5.151   2.948   2.759  0.2702 -0.2853  0.3664
   95SAPC   H5Y 9316   5.114   3.130   2.773  0.7396  1.0792 -1.4057
   95SAPC   C36 9317   5.303   3.046   2.846  0.6663 -0.3853 -0.0764
   95SAPC   H6X 9318   5.337   3.150   2.861 -0.6929 -0.0278  0.6913
   95SAPC   H6Y 9319   5.394   2.992   2.811  1.5948 -0.0010  1.6103
   95SAPC   C37 9320   5.247   2.995   2.988  0.2238  0.0740 -0.4834
   95SAPC   H7X 9321   5.200   2.895   2.976  1.1964 -0.5083  0.3801
   95SAPC   H7Y 9322   5.167   3.065   3.022  0.7814  0.2753  0.4527
   95SAPC   C38 9323   5.358   2.989   3.097 -0.3116 -0.0767  0.1863
   95SAPC   H8X 9324   5.422   3.080   3.094 -1.3002  0.6690  0.9132
   95SAPC   H8Y 9325   5.426   2.908   3.064  1.0842  1.4971 -0.9430
   95SAPC   C39 9326   5.307   2.959   3.239  0.9295  0.1021  0.3275
   95SAPC   H9X 9327   5.267   2.856   3.250 -0.2339  0.5716  0.7213
   95SAPC   H9Y 9328   5.222   3.029   3.258 -1.0044 -1.3865 -2.2006
   95SAPC  C310 9329   5.410   2.981   3.352  0.4271 -0.2577 -0.5485
   95SAPC  H10X 9330   5.437   3.089   3.354  0.8984 -0.3895  1.0381
   95SAPC  H10Y 9331   5.502   2.926   3.322  0.1459 -0.5676 -0.8560
   95SAPC  C311 9332   5.367   2.923   3.486  0.2722  0.1974 -0.2140
   95SAPC  H11X 9333   5.358   2.813   3.476 -1.6581  0.3448 -0.4451
   95SAPC  H11Y 9334   5.266   2.967   3.503 -0.0865 -1.0989  1.2409
   95SAPC  C312 9335   5.460   2.948   3.600 -0.1664  0.2790  0.0197
   95SAPC  H12X 9336   5.474   3.057   3.613  3.4069 -0.1383  0.7161
   95SAPC  H12Y 9337   5.562   2.911   3.575  0.8691  2.6593  0.4841
   95SAPC  C313 9338   5.384   2.900   3.722 -0.2964 -0.1670 -0.6758
   95SAPC  H13X 9339   5.274   2.891   3.728 -0.4159  1.6893  1.1485
   95SAPC  H13Y 9340   5.419   2.962   3.807 -1.2519 -0.0267 -0.3812
   95SAPC  C314 9341   5.433   2.764   3.765 -0.0533  0.5460  0.2393
   95SAPC  H14X 9342   5.544   2.761   3.766  0.0044 -2.7878 -1.7797
   95SAPC  H14Y 9343   5.407   2.680   3.698 -0.6006 -1.3491  2.6701
   95SAPC  C315 9344   5.400   2.719   3.914  0.0973  0.2169  0.1075
   95SAPC  H15X 9345   5.296   2.682   3.915  0.9629 -2.4129  1.3834
   95SAPC  H15Y 9346   5.401   2.815   3.971  2.2474  0.2087  0.1922
   95SAPC  C316 9347   5.485   2.617   3.979 -1.1921 -0.0251 -0.1237
   95SAPC  H16X 9348   5.581   2.671   3.995 -0.7354 -0.9310  0.2859
   95SAPC  H16Y 9349   5.505   2.531   3.911  3.1595  0.4940  0.2269
   95SAPC  C317 9350   5.445   2.584   4.121 -0.0447 -0.3461  0.1824
   95SAPC  H17X 9351   5.350   2.529   4.102 -0.1970  0.2639 -0.9400
   95SAPC  H17Y 9352   5.418   2.669   4.187 -2.1065 -0.7707 -0.0377
   95SAPC  C318 9353   5.543   2.508   4.202  0.0535  0.4437  0.0134
   95SAPC  H18X 9354   5.541   2.398   4.182 -0.5118 -0.0033  2.1838
   95SAPC  H18Y 9355   5.517   2.515   4.310  2.1375 -0.0041  0.5939
   95SAPC  H18Z 9356   5.648   2.539   4.186  0.2386  0.9516  1.9457
   96SAPC     N 9357   3.968   2.281   1.367  0.3749  0.4453 -0.1590
   96SAPC   C12 9358   3.940   2.397   1.468 -0.1033  0.2457  0.6264
   96SAPC  H12A 9359   3.835   2.419   1.476 -0.1814  0.2059 -0.1755
   96SAPC  H12B 9360   3.990   2.486   1.430  0.7411 -1.0774 -1.5766
   96SAPC   C13 9361   4.119   2.276   1.342 -0.4025 -0.1300 -0.6562
   96SAPC  H13A 9362   4.155   2.194   1.281  3.0486 -0.4059  1.4792
   96SAPC  H13B 9363   4.147   2.369   1.296 -1.5047 -0.2383 -1.5797
   96SAPC  H13C 9364   4.173   2.259   1.435 -1.5633  0.7300  0.2041
   96SAPC   C14 9365   3.922   2.154   1.420  0.1239 -0.2657  1.2118
   96SAPC  H14A 9366   3.973   2.133   1.513  0.2092 -1.9735  0.8005
   96SAPC  H14B 9367   3.817   2.164   1.443 -0.4791  0.3218 -1.4285
   96SAPC  H14C 9368   3.933   2.073   1.349  2.4416  1.2641 -0.3182
   96SAPC   C15 9369   3.906   2.318   1.236 -0.2023  0.1531 -0.8296
   96SAPC  H15A 9370   3.918   2.425   1.226 -0.1556  0.3856  1.3410
   96SAPC  H15B 9371   3.944   2.261   1.152 -0.2796 -0.9920 -0.1005
   96SAPC  H15C 9372   3.800   2.299   1.236 -0.1630 -0.2514  1.0633
   96SAPC   C11 9373   3.983   2.371   1.612  0.1023  0.6464  0.0143
   96SAPC  H11A 9374   3.924   2.294   1.665  0.3650  0.6272  0.2854
   96SAPC  H11B 9375   3.967   2.465   1.669 -0.4390  0.3854  0.2980
   96SAPC     P 9376   4.230   2.463   1.604 -0.1023  0.2215 -0.0760
   96SAPC   O13 9377   4.367   2.413   1.622 -0.1070 -0.0387  0.2375
   96SAPC   O14 9378   4.203   2.555   1.495 -0.4456  0.1394 -0.1081
   96SAPC   O12 9379   4.121   2.342   1.613  0.0723  0.1961 -0.5795
   96SAPC   O11 9380   4.196   2.541   1.734  0.0653  0.2427 -0.1613
   96SAPC    C1 9381   4.192   2.461   1.855 -0.0715 -0.2077  0.0207
   96SAPC    HA 9382   4.121   2.376   1.845 -1.4448  1.0498 -1.6432
   96SAPC    HB 9383   4.293   2.421   1.879 -0.9380 -1.9156  1.0079
   96SAPC    C2 9384   4.145   2.544   1.973  0.6838 -0.2442 -0.4858
   96SAPC    HS 9385   4.115   2.646   1.940 -0.3994  0.1753  1.5848
   96SAPC   O21 9386   4.250   2.549   2.073 -0.0734  0.1151  0.3057
   96SAPC   C21 9387   4.331   2.655   2.079 -0.0335  0.2370  0.1358
   96SAPC   O22 9388   4.329   2.747   1.996 -0.0255  0.5165  0.3557
   96SAPC   C22 9389   4.433   2.635   2.189  0.1602 -0.3970  0.0289
   96SAPC   H2R 9390   4.374   2.642   2.283 -1.3128  1.8638 -0.9677
   96SAPC   H2S 9391   4.483   2.537   2.172  0.7862 -0.2468  0.9355
   96SAPC    C3 9392   4.008   2.504   2.045 -0.5053 -0.2709  0.6277
   96SAPC    HX 9393   3.938   2.493   1.959  0.0689  2.2549 -0.2588
   96SAPC    HY 9394   3.975   2.586   2.112  0.9002  3.1224 -2.4750
   96SAPC   O31 9395   4.020   2.375   2.113 -0.0476 -0.2743  0.1776
   96SAPC   C31 9396   3.928   2.345   2.196  0.0890  0.4950 -0.2856
   96SAPC   O32 9397   3.815   2.389   2.193 -0.0345  0.3228  0.9641
   96SAPC   C32 9398   3.971   2.238   2.299 -0.2300  1.0830 -1.5941
   96SAPC   H2X 9399   4.027   2.161   2.240  0.5246 -0.3859  0.9085
   96SAPC   H2Y 9400   3.889   2.185   2.351  2.3959 -0.4333  1.3619
   96SAPC   C23 9401   4.535   2.750   2.174  0.6132 -0.2779  0.0662
   96SAPC   H3R 9402   4.555   2.747   2.065 -0.5618  2.5250 -0.3013
   96SAPC   H3S 9403   4.627   2.729   2.232  1.8225  1.7789 -1.0102
   96SAPC   C24 9404   4.473   2.883   2.221 -0.8185  0.1610  0.1636
   96SAPC   H4R 9405   4.385   2.904   2.157 -0.8904  2.0066  0.8015
   96SAPC   H4S 9406   4.550   2.959   2.195 -2.0302  0.8018 -1.7991
   96SAPC   C25 9407   4.435   2.888   2.367 -0.8008  0.2542 -0.1114
   96SAPC   H5R 9408   4.350   2.821   2.386 -0.8195 -0.0206 -1.1163
   96SAPC   C26 9409   4.500   2.949   2.469 -0.3136 -0.5430  0.4238
   96SAPC   H6R 9410   4.464   2.923   2.570  2.6295 -0.1061  1.6638
   96SAPC   C27 9411   4.630   3.026   2.465 -0.1013 -0.3204  0.2559
   96SAPC   H7R 9412   4.644   3.058   2.359  1.4736  0.0928  0.5559
   96SAPC   H7S 9413   4.720   2.965   2.491 -0.1662 -0.7930 -0.5861
   96SAPC   C28 9414   4.628   3.152   2.554 -0.1836 -0.0455  0.0477
   96SAPC   H8R 9415   4.600   3.247   2.507 -0.2350  0.0892  0.3489
   96SAPC   C29 9416   4.635   3.158   2.688  0.4884  0.4775  0.5554
   96SAPC   H9R 9417   4.608   3.257   2.728  0.1890  0.4164  0.5021
   96SAPC  C210 9418   4.664   3.042   2.779 -0.0533  0.4864  0.4973
   96SAPC  H10R 9419   4.775   3.037   2.780  0.0261 -1.7327 -2.7341
   96SAPC  H10S 9420   4.654   2.940   2.735  1.4781  0.9290 -0.9618
   96SAPC  C211 9421   4.608   3.056   2.912 -0.5306  0.2575 -0.2655
   96SAPC  H11R 9422   4.501   3.080   2.920 -0.9730 -1.1292 -1.5192
   96SAPC  C212 9423   4.674   3.048   3.026  0.3913 -0.0275 -0.6768
   96SAPC  H12R 9424   4.616   3.063   3.118 -1.6800  1.8834 -2.1782
   96SAPC  C213 9425   4.814   3.001   3.050 -0.2393 -0.6211  0.2441
   96SAPC  H13R 9426   4.870   2.978   2.957 -2.4059  0.8167 -1.5245
   96SAPC  H13S 9427   4.817   2.913   3.117  1.1017 -1.1342 -0.4541
   96SAPC  C214 9428   4.892   3.120   3.118  0.4111 -0.6424  0.3733
   96SAPC  H14R 9429   4.976   3.160   3.061 -0.1081  1.1221  0.7886
   96SAPC  C215 9430   4.876   3.165   3.247 -0.2361 -0.2437  0.4355
   96SAPC  H15R 9431   4.937   3.252   3.277 -0.6254  0.4438 -0.6984
   96SAPC  C216 9432   4.796   3.094   3.356 -0.4778  0.0180 -0.1863
   96SAPC  H16R 9433   4.867   3.049   3.429  1.4393  1.8151 -0.8663
   96SAPC  H16S 9434   4.735   3.011   3.313  0.1034 -1.7696  2.1772
   96SAPC  C217 9435   4.693   3.168   3.443  0.0386 -0.3265  0.2895
   96SAPC  H17R 9436   4.618   3.210   3.373  3.0919  3.0756 -1.3233
   96SAPC  H17S 9437   4.743   3.257   3.485 -0.5969  0.2740 -0.2117
   96SAPC  C218 9438   4.636   3.079   3.557  0.1484 -0.3874  0.3365
   96SAPC  H18R 9439   4.711   3.051   3.635  0.1614 -0.6801  0.2194
   96SAPC  H18S 9440   4.586   2.988   3.517 -0.3901 -0.0215  0.1661
   96SAPC  C219 9441   4.531   3.169   3.630  0.1518  0.0446  0.2202
   96SAPC  H19R 9442   4.455   3.172   3.550  1.7373  1.8154 -1.3034
   96SAPC  H19S 9443   4.577   3.266   3.656  0.2069  0.0918 -0.0589
   96SAPC  C220 9444   4.474   3.108   3.751  0.5352  0.7293  0.5758
   96SAPC  H20R 9445   4.412   3.176   3.814 -4.2450 -1.4127 -1.3641
   96SAPC  H20S 9446   4.549   3.056   3.815  1.5962  1.7947  0.2315
   96SAPC  H20T 9447   4.406   3.025   3.724  0.7015  0.2918  1.4701
   96SAPC   C33 9448   4.061   2.297   2.413  0.1429  0.5311 -0.9776
   96SAPC   H3X 9449   4.094   2.223   2.489  0.6358  2.1755  0.4874
   96SAPC   H3Y 9450   3.996   2.362   2.476  1.9687  1.0943  0.4420
   96SAPC   C34 9451   4.187   2.365   2.375  0.2666 -0.3277 -0.6885
   96SAPC   H4X 9452   4.159   2.453   2.313 -0.2694  1.1749  1.5684
   96SAPC   H4Y 9453   4.254   2.300   2.315  0.0558 -2.0028  0.8189
   96SAPC   C35 9454   4.273   2.414   2.497 -0.2597  0.3382 -0.1538
   96SAPC   H5X 9455   4.375   2.444   2.465 -0.3882 -0.0853 -0.9790
   96SAPC   H5Y 9456   4.302   2.330   2.564  2.4144  0.6012 -0.8721
   96SAPC   C36 9457   4.222   2.529   2.577 -0.3056  0.2309  0.2316
   96SAPC   H6X 9458   4.115   2.518   2.606 -0.1187 -0.6687  0.6297
   96SAPC   H6Y 9459   4.220   2.620   2.514 -1.2754  0.9409  1.2579
   96SAPC   C37 9460   4.295   2.540   2.706 -0.0281  0.4121  0.4064
   96SAPC   H7X 9461   4.324   2.440   2.743 -2.4327  0.1618  1.8212
   96SAPC   H7Y 9462   4.235   2.603   2.775  0.5057  0.8584  0.4775
   96SAPC   C38 9463   4.427   2.624   2.688 -0.2166  0.2564 -0.4944
   96SAPC   H8X 9464   4.392   2.724   2.656 -1.9686 -0.4425 -0.8775
   96SAPC   H8Y 9465   4.493   2.570   2.616  0.2947  0.5299 -0.2328
   96SAPC   C39 9466   4.502   2.640   2.816  0.3120 -0.9850 -0.3559
   96SAPC   H9X 9467   4.592   2.700   2.792 -1.0415  1.0767 -0.5223
   96SAPC   H9Y 9468   4.526   2.539   2.855 -1.9046 -1.5623 -0.3311
   96SAPC  C310 9469   4.426   2.717   2.923 -0.0400  0.4863  0.8148
   96SAPC  H10X 9470   4.328   2.664   2.933 -0.3988  0.4897 -1.8914
   96SAPC  H10Y 9471   4.409   2.819   2.884  3.1411  0.6511 -0.3960
   96SAPC  C311 9472   4.493   2.716   3.059 -0.0288  0.9359  0.2349
   96SAPC  H11X 9473   4.416   2.764   3.122  0.0170 -0.1953  1.1837
   96SAPC  H11Y 9474   4.584   2.780   3.059 -0.7722  2.0193  0.6888
   96SAPC  C312 9475   4.534   2.575   3.120  0.1180  0.1293  0.5159
   96SAPC  H12X 9476   4.639   2.542   3.102  0.0196 -0.6206  1.2318
   96SAPC  H12Y 9477   4.467   2.497   3.078 -0.2564  0.3188  0.7551
   96SAPC  C313 9478   4.520   2.576   3.275 -0.0316  0.3968 -0.2856
   96SAPC  H13X 9479   4.411   2.571   3.297 -0.1020  4.7014  1.2744
   96SAPC  H13Y 9480   4.557   2.676   3.306  0.1475  0.5829 -1.0818
   96SAPC  C314 9481   4.604   2.472   3.345  1.2194 -0.2767 -0.5342
   96SAPC  H14X 9482   4.707   2.468   3.305  0.7386  1.8333 -2.1686
   96SAPC  H14Y 9483   4.551   2.380   3.310  0.1704 -0.9358  2.4138
   96SAPC  C315 9484   4.596   2.485   3.496  0.2222 -0.4496 -0.5828
   96SAPC  H15X 9485   4.618   2.593   3.510 -1.1727 -0.0495 -1.3197
   96SAPC  H15Y 9486   4.680   2.427   3.541 -0.3875  0.1667  1.4630
   96SAPC  C316 9487   4.469   2.433   3.557  0.8433  0.0323  0.4191
   96SAPC  H16X 9488   4.484   2.337   3.611  0.7549  1.0027  2.2756
   96SAPC  H16Y 9489   4.386   2.433   3.483  1.1245 -2.0257  0.0491
   96SAPC  C317 9490   4.422   2.525   3.673 -0.0979  0.1241  0.1048
   96SAPC  H17X 9491   4.507   2.542   3.743  1.6224 -0.2333 -1.7769
   96SAPC  H17Y 9492   4.343   2.468   3.726 -3.3813  1.9334 -2.4288
   96SAPC  C318 9493   4.357   2.661   3.636 -0.5844 -0.1491  0.3631
   96SAPC  H18X 9494   4.283   2.654   3.553  0.9419  0.5168 -1.1222
   96SAPC  H18Y 9495   4.439   2.726   3.600  0.2940 -1.0342  0.7266
   96SAPC  H18Z 9496   4.309   2.725   3.712 -1.4394 -0.2324 -0.0907
   97SAPC     N 9497   2.421   1.941   2.277 -0.2314  0.6589 -0.2864
   97SAPC   C12 9498   2.493   1.806   2.262 -0.1169 -0.3668 -0.1784
   97SAPC  H12A 9499   2.422   1.729   2.293 -0.7654  0.0670 -0.5701
   97SAPC  H12B 9500   2.580   1.811   2.325 -1.0100  0.8686  1.0305
   97SAPC   C13 9501   2.363   1.948   2.413 -0.2488 -0.3087  0.1604
   97SAPC  H13A 9502   2.441   1.948   2.488  0.6929  1.8505 -0.7422
   97SAPC  H13B 9503   2.322   2.045   2.435 -0.2351 -0.1762 -0.3842
   97SAPC  H13C 9504   2.282   1.880   2.435  0.0282 -0.3174  1.2287
   97SAPC   C14 9505   2.516   2.059   2.249  0.0708  0.3721 -0.7477
   97SAPC  H14A 9506   2.464   2.154   2.244  0.3952  0.4909 -2.1103
   97SAPC  H14B 9507   2.602   2.073   2.313  0.4594 -0.9214 -0.9644
   97SAPC  H14C 9508   2.564   2.055   2.153 -1.8524  1.2810 -1.7997
   97SAPC   C15 9509   2.313   1.964   2.179  0.4858  0.1388  0.7059
   97SAPC  H15A 9510   2.214   1.942   2.215 -1.4056  2.2179 -2.6671
   97SAPC  H15B 9511   2.315   2.068   2.148 -3.0185  0.3647  0.8852
   97SAPC  H15C 9512   2.323   1.896   2.096  0.5631  1.0584 -0.0537
   97SAPC   C11 9513   2.545   1.762   2.128  0.1715  0.1314  0.6626
   97SAPC  H11A 9514   2.608   1.674   2.153 -0.1053 -0.0985  0.5503
   97SAPC  H11B 9515   2.616   1.840   2.090 -1.6902  1.6514  0.1543
   97SAPC     P 9516   2.376   1.590   2.034  0.4005  0.0615 -0.0995
   97SAPC   O13 9517   2.240   1.587   1.988 -0.4400  0.0902  0.0943
   97SAPC   O14 9518   2.469   1.504   1.961  0.4952  0.3709  0.6544
   97SAPC   O12 9519   2.435   1.738   2.035  0.5537  0.6587 -0.3044
   97SAPC   O11 9520   2.374   1.557   2.190 -0.2848  0.3320 -0.5333
   97SAPC    C1 9521   2.338   1.427   2.231  0.1016 -0.1122 -0.1163
   97SAPC    HA 9522   2.371   1.350   2.158  0.6546  1.4494 -1.5558
   97SAPC    HB 9523   2.390   1.410   2.328 -1.4589  2.1996  1.2310
   97SAPC    C2 9524   2.187   1.420   2.268  0.1320 -0.2748  0.6561
   97SAPC    HS 9525   2.135   1.422   2.170  0.3612 -1.6585  0.4864
   97SAPC   O21 9526   2.160   1.527   2.360 -0.0774 -0.2840 -0.8616
   97SAPC   C21 9527   2.035   1.553   2.362  0.3886 -0.6382 -1.2643
   97SAPC   O22 9528   1.947   1.506   2.291 -0.2180  0.2284  0.0921
   97SAPC   C22 9529   2.018   1.655   2.475  0.0382  0.3477  0.4031
   97SAPC   H2R 9530   2.010   1.596   2.569 -0.0297  3.3393  2.4354
   97SAPC   H2S 9531   2.113   1.711   2.487  0.2425 -0.3719  2.5356
   97SAPC    C3 9532   2.148   1.276   2.334  0.5346 -0.2736 -0.0412
   97SAPC    HX 9533   2.176   1.200   2.258  1.5028  0.1427 -0.1138
   97SAPC    HY 9534   2.040   1.278   2.360  0.9634  1.5365  1.9265
   97SAPC   O31 9535   2.228   1.264   2.458 -0.1135 -0.1985 -0.1283
   97SAPC   C31 9536   2.317   1.165   2.465  0.7473 -0.6279  0.0096
   97SAPC   O32 9537   2.335   1.078   2.380  0.1301 -0.5885 -0.1549
   97SAPC   C32 9538   2.404   1.188   2.587 -1.0349 -0.5953 -0.4402
   97SAPC   H2X 9539   2.358   1.158   2.683  1.9290  0.0770  1.3256
   97SAPC   H2Y 9540   2.432   1.296   2.591  0.7791 -1.0090 -1.1532
   97SAPC   C23 9541   1.888   1.733   2.451 -0.8058  0.5518 -0.4097
   97SAPC   H3R 9542   1.802   1.672   2.417  0.5141 -0.5231 -1.9683
   97SAPC   H3S 9543   1.914   1.795   2.363 -0.0234  0.0557 -0.5411
   97SAPC   C24 9544   1.875   1.828   2.574 -0.4453 -0.5621 -0.2939
   97SAPC   H4R 9545   1.885   1.766   2.666 -0.1144 -0.1147 -0.0219
   97SAPC   H4S 9546   1.769   1.862   2.580 -0.3968 -0.7268  3.3595
   97SAPC   C25 9547   1.970   1.947   2.575  0.2712  0.0995  0.2877
   97SAPC   H5R 9548   1.918   2.033   2.529  0.9691  0.0610 -0.6017
   97SAPC   C26 9549   2.086   1.972   2.644 -0.4815  0.6253 -0.3503
   97SAPC   H6R 9550   2.136   2.068   2.629  1.1365 -0.3421 -1.5543
   97SAPC   C27 9551   2.160   1.876   2.732  0.5813  0.1830  0.3552
   97SAPC   H7R 9552   2.146   1.769   2.707  3.1279 -0.4669  1.4051
   97SAPC   H7S 9553   2.123   1.884   2.836  1.9778  0.3951  0.8472
   97SAPC   C28 9554   2.307   1.909   2.731  0.2699 -0.0657 -1.2068
   97SAPC   H8R 9555   2.362   1.842   2.663  2.5995 -1.3298  1.7210
   97SAPC   C29 9556   2.383   1.999   2.795 -0.0006  0.8341  0.1710
   97SAPC   H9R 9557   2.491   2.005   2.775  0.0289  0.0421  0.0692
   97SAPC  C210 9558   2.324   2.115   2.869  0.1231 -0.9953  0.0870
   97SAPC  H10R 9559   2.318   2.096   2.979 -3.0044  1.6439  0.5286
   97SAPC  H10S 9560   2.218   2.135   2.846  0.0175  0.1519  1.3752
   97SAPC  C211 9561   2.399   2.243   2.841  0.5346 -0.3541 -0.2799
   97SAPC  H11R 9562   2.380   2.283   2.741  2.1841 -3.2433 -1.8824
   97SAPC  C212 9563   2.469   2.320   2.931  0.7859 -0.6257 -0.0712
   97SAPC  H12R 9564   2.507   2.418   2.902 -0.2619  0.4201  1.8435
   97SAPC  C213 9565   2.495   2.301   3.082 -0.0542 -0.7421  0.0894
   97SAPC  H13R 9566   2.599   2.273   3.107 -1.1120 -2.1641  3.4308
   97SAPC  H13S 9567   2.428   2.216   3.110 -1.8761  0.6120  0.0137
   97SAPC  C214 9568   2.450   2.417   3.163  0.4884  0.2609 -1.0230
   97SAPC  H14R 9569   2.364   2.472   3.123 -1.2836 -2.0572 -0.5985
   97SAPC  C215 9570   2.506   2.448   3.281  0.1801 -0.2047  0.0108
   97SAPC  H15R 9571   2.463   2.536   3.331 -0.9935 -1.3183  1.0605
   97SAPC  C216 9572   2.609   2.383   3.371 -0.7460 -0.1027  1.3476
   97SAPC  H16R 9573   2.704   2.441   3.374 -0.5907 -0.1575 -1.0614
   97SAPC  H16S 9574   2.645   2.288   3.327 -1.7143 -0.4704  1.3363
   97SAPC  C217 9575   2.562   2.374   3.513 -0.1109 -0.0502 -0.1594
   97SAPC  H17R 9576   2.472   2.310   3.517  0.4286 -0.8304 -0.3795
   97SAPC  H17S 9577   2.525   2.473   3.549 -1.8891 -0.8640  0.3426
   97SAPC  C218 9578   2.657   2.313   3.617 -0.0080  0.0237 -0.2232
   97SAPC  H18R 9579   2.760   2.341   3.587  0.1020 -1.9370 -1.8814
   97SAPC  H18S 9580   2.644   2.203   3.607  0.1981  0.0559 -0.8645
   97SAPC  C219 9581   2.630   2.363   3.762  0.1342  0.3095  0.0247
   97SAPC  H19R 9582   2.639   2.473   3.760 -0.3912  0.3561 -1.3997
   97SAPC  H19S 9583   2.718   2.326   3.819 -0.9397 -0.3472  1.3214
   97SAPC  C220 9584   2.502   2.321   3.834 -0.3867 -0.1051 -0.1048
   97SAPC  H20R 9585   2.483   2.215   3.806 -1.3836  0.2426 -0.8070
   97SAPC  H20S 9586   2.426   2.390   3.793  0.8532  0.1903 -2.0583
   97SAPC  H20T 9587   2.513   2.334   3.943 -1.6174  0.0351  0.0143
   97SAPC   C33 9588   2.539   1.113   2.577 -0.5294 -0.3797 -0.5908
   97SAPC   H3X 9589   2.607   1.151   2.657  1.6968  0.9633 -2.9747
   97SAPC   H3Y 9590   2.586   1.146   2.482 -1.9051  1.2395 -0.7494
   97SAPC   C34 9591   2.536   0.962   2.571  0.6582 -0.4969  0.4400
   97SAPC   H4X 9592   2.637   0.916   2.577  0.6376 -1.1000 -2.3188
   97SAPC   H4Y 9593   2.482   0.930   2.479  1.0020 -0.7669  0.3280
   97SAPC   C35 9594   2.455   0.900   2.685 -0.9329  0.1138  0.0049
   97SAPC   H5X 9595   2.456   0.792   2.659  2.3119  0.4008 -1.5677
   97SAPC   H5Y 9596   2.355   0.947   2.673  0.4321  4.3261  2.9590
   97SAPC   C36 9597   2.512   0.927   2.827 -0.9519 -0.4379 -0.3488
   97SAPC   H6X 9598   2.516   1.036   2.845 -0.0847 -0.6777  1.0168
   97SAPC   H6Y 9599   2.617   0.891   2.827 -0.5773  0.6330  0.2051
   97SAPC   C37 9600   2.437   0.860   2.948  0.4912 -0.0577  0.0117
   97SAPC   H7X 9601   2.496   0.892   3.036  2.8938  5.1759 -2.9909
   97SAPC   H7Y 9602   2.445   0.751   2.931  0.4707 -0.0425 -0.0958
   97SAPC   C38 9603   2.289   0.903   2.963 -0.7425 -0.5906 -0.1545
   97SAPC   H8X 9604   2.246   0.834   3.039  0.3621 -1.3769 -0.2177
   97SAPC   H8Y 9605   2.234   0.883   2.868  0.9053 -1.2507 -1.0055
   97SAPC   C39 9606   2.270   1.048   3.008 -0.0036  0.0041  0.6443
   97SAPC   H9X 9607   2.171   1.083   2.971  1.1679  3.4090  0.3617
   97SAPC   H9Y 9608   2.344   1.104   2.948  0.9898 -2.4837 -0.5544
   97SAPC  C310 9609   2.282   1.064   3.156  0.4988 -0.3849 -0.3688
   97SAPC  H10X 9610   2.382   1.027   3.189  0.7589  1.0643  0.5162
   97SAPC  H10Y 9611   2.208   1.010   3.218  2.9407 -0.4651  2.7316
   97SAPC  C311 9612   2.289   1.211   3.203  0.2435  0.0492  0.1302
   97SAPC  H11X 9613   2.246   1.224   3.304 -4.3048 -0.6749 -1.4752
   97SAPC  H11Y 9614   2.221   1.271   3.138  0.9444 -0.7138 -1.3709
   97SAPC  C312 9615   2.432   1.258   3.206 -0.0646  0.4976 -0.1613
   97SAPC  H12X 9616   2.466   1.245   3.101 -1.6735  3.3157 -1.1165
   97SAPC  H12Y 9617   2.496   1.187   3.264  0.9899  2.7801  1.6425
   97SAPC  C313 9618   2.449   1.402   3.249  0.2911  0.2255  0.2735
   97SAPC  H13X 9619   2.445   1.389   3.359  0.5285 -2.3806  0.0461
   97SAPC  H13Y 9620   2.372   1.478   3.224  0.1979 -0.6812 -2.5253
   97SAPC  C314 9621   2.590   1.456   3.203  0.9982 -0.0888  0.1583
   97SAPC  H14X 9622   2.615   1.423   3.100  0.0825  0.5180 -0.2770
   97SAPC  H14Y 9623   2.669   1.427   3.275  1.0755  0.1937  0.1889
   97SAPC  C315 9624   2.584   1.610   3.183 -0.3879 -0.2206  0.4896
   97SAPC  H15X 9625   2.498   1.638   3.119  1.3897 -1.6943 -2.8112
   97SAPC  H15Y 9626   2.678   1.638   3.131  0.5314 -1.0492  1.6477
   97SAPC  C316 9627   2.582   1.696   3.315  0.0222  0.8678 -0.2606
   97SAPC  H16X 9628   2.658   1.659   3.387 -0.5437 -0.5829 -0.3879
   97SAPC  H16Y 9629   2.481   1.689   3.360  0.8034  0.8220  1.5909
   97SAPC  C317 9630   2.614   1.843   3.296  0.3709 -0.9435  0.1540
   97SAPC  H17X 9631   2.718   1.851   3.258 -0.0460  1.3857 -0.6426
   97SAPC  H17Y 9632   2.610   1.865   3.405  0.9294  0.9249 -0.1765
   97SAPC  C318 9633   2.512   1.919   3.205  0.1396  1.0468  0.0565
   97SAPC  H18X 9634   2.529   1.912   3.096  0.3397 -3.2859  0.1943
   97SAPC  H18Y 9635   2.523   2.028   3.225 -1.3364  1.3010 -0.4114
   97SAPC  H18Z 9636   2.409   1.885   3.229  0.7461 -2.1743 -1.4845
   98SAPC     N 9637   0.541   2.627   1.703 -0.6653  0.1423 -0.4311
   98SAPC   C12 9638   0.518   2.485   1.756 -0.5726  0.3258  0.0743
   98SAPC  H12A 9639   0.594   2.421   1.715 -0.4496  0.4347  0.1318
   98SAPC  H12B 9640   0.422   2.459   1.715 -0.4928  3.1561 -2.1535
   98SAPC   C13 9641   0.670   2.688   1.746  0.6678 -0.4407  0.2235
   98SAPC  H13A 9642   0.758   2.627   1.746  0.5811 -0.6507 -2.3566
   98SAPC  H13B 9643   0.687   2.775   1.684 -0.3405 -0.6354 -0.3456
   98SAPC  H13C 9644   0.665   2.734   1.844 -1.2289  0.5845 -0.3036
   98SAPC   C14 9645   0.538   2.616   1.552 -0.3917  0.6049  0.4571
   98SAPC  H14A 9646   0.623   2.556   1.523 -1.1803 -0.9968  1.3029
   98SAPC  H14B 9647   0.443   2.571   1.526  0.5654 -2.9242  2.2994
   98SAPC  H14C 9648   0.539   2.710   1.500 -1.8131  0.7482  0.6468
   98SAPC   C15 9649   0.432   2.710   1.744  1.1282  0.0572  0.0800
   98SAPC  H15A 9650   0.342   2.651   1.740  2.7127 -2.5417  0.8542
   98SAPC  H15B 9651   0.437   2.753   1.843 -0.3575  1.5339 -0.4259
   98SAPC  H15C 9652   0.435   2.798   1.681 -0.7060 -0.0691 -0.2410
   98SAPC   C11 9653   0.521   2.475   1.909 -0.1620  0.6766  0.3113
   98SAPC  H11A 9654   0.629   2.481   1.933 -0.2578 -0.5104  1.1099
   98SAPC  H11B 9655   0.497   2.374   1.946 -0.5849  0.5920 -0.1835
   98SAPC     P 9656   0.300   2.563   2.040 -0.1577 -0.4964 -0.1980
   98SAPC   O13 9657   0.219   2.648   1.951  0.1907  0.5687  0.7294
   98SAPC   O14 9658   0.261   2.417   2.043 -0.1517 -0.2163  0.0438
   98SAPC   O12 9659   0.446   2.574   1.977  0.4805 -0.0585 -0.3682
   98SAPC   O11 9660   0.312   2.626   2.185 -0.3703  0.2332  0.3237
   98SAPC    C1 9661   0.418   2.562   2.261 -0.7195 -0.1757 -0.4355
   98SAPC    HA 9662   0.503   2.516   2.206  0.7800  0.4821  1.2564
   98SAPC    HB 9663   0.459   2.639   2.329 -0.0526 -0.6005 -0.3512
   98SAPC    C2 9664   0.355   2.459   2.360  0.3368  0.3132 -0.2000
   98SAPC    HS 9665   0.290   2.386   2.307 -0.8432  0.3161  1.1801
   98SAPC   O21 9666   0.274   2.523   2.460 -0.0162 -0.6058 -0.3167
   98SAPC   C21 9667   0.150   2.552   2.428 -0.8207 -0.3647 -0.3978
   98SAPC   O22 9668   0.094   2.523   2.324 -0.4586 -0.1139  0.0887
   98SAPC   C22 9669   0.092   2.618   2.550  0.7605  0.0559  0.9286
   98SAPC   H2R 9670   0.002   2.672   2.516 -0.4346 -2.4053 -0.0321
   98SAPC   H2S 9671   0.055   2.539   2.620 -0.7384  0.9879  1.2232
   98SAPC    C3 9672   0.448   2.365   2.439 -0.1755  0.1400  0.2621
   98SAPC    HX 9673   0.451   2.282   2.366 -2.5237  1.3033 -1.2999
   98SAPC    HY 9674   0.388   2.335   2.528 -0.1594  1.2103  0.6502
   98SAPC   O31 9675   0.575   2.431   2.474  0.0892  0.4912 -0.0436
   98SAPC   C31 9676   0.665   2.336   2.500  0.0681  0.4629 -0.0788
   98SAPC   O32 9677   0.646   2.219   2.508 -0.2744 -0.2618 -0.0257
   98SAPC   C32 9678   0.804   2.401   2.524  0.3636  0.1471 -0.4679
   98SAPC   H2X 9679   0.828   2.466   2.438  1.7654  0.9757  0.5068
   98SAPC   H2Y 9680   0.880   2.319   2.523  0.8716  0.6184 -1.6000
   98SAPC   C23 9681   0.180   2.707   2.644 -0.0108 -0.9810  0.0688
   98SAPC   H3R 9682   0.209   2.801   2.593  2.0941 -0.0999  2.6213
   98SAPC   H3S 9683   0.274   2.652   2.667  1.1834  0.7868 -0.3703
   98SAPC   C24 9684   0.121   2.753   2.780 -0.0908 -0.6919 -0.7159
   98SAPC   H4R 9685   0.109   2.661   2.841 -0.0145  0.7396  1.5638
   98SAPC   H4S 9686   0.015   2.783   2.766 -0.3654  0.2560  2.6048
   98SAPC   C25 9687   0.186   2.865   2.851 -0.6335 -0.1178  0.0052
   98SAPC   H5R 9688   0.208   2.950   2.785  2.3457 -1.6734 -1.1702
   98SAPC   C26 9689   0.232   2.867   2.977 -0.0945  0.3025  0.4033
   98SAPC   H6R 9690   0.266   2.964   3.017 -3.2052  0.9876  1.6221
   98SAPC   C27 9691   0.204   2.754   3.070 -0.1376 -0.0374  0.4107
   98SAPC   H7R 9692   0.101   2.718   3.047 -1.0829  0.3137  3.6498
   98SAPC   H7S 9693   0.192   2.802   3.169 -1.5272  1.3038 -0.3602
   98SAPC   C28 9694   0.299   2.644   3.084 -0.4700  0.1950  0.6371
   98SAPC   H8R 9695   0.406   2.660   3.067 -0.2381 -2.4830 -1.0349
   98SAPC   C29 9696   0.261   2.519   3.108  0.2914 -0.2777  0.3983
   98SAPC   H9R 9697   0.343   2.449   3.132 -0.2294 -0.0734  3.1223
   98SAPC  C210 9698   0.118   2.476   3.126  0.1623 -0.8365 -0.4938
   98SAPC  H10R 9699   0.057   2.486   3.033  0.0218  2.3353 -0.1442
   98SAPC  H10S 9700   0.061   2.541   3.194  3.1522  1.7554 -0.2230
   98SAPC  C211 9701   0.104   2.333   3.169 -0.5558  0.0262 -1.0790
   98SAPC  H11R 9702   0.072   2.272   3.083  2.3477 -1.5774 -1.1554
   98SAPC  C212 9703   0.126   2.268   3.286 -0.3710 -0.0442  0.8796
   98SAPC  H12R 9704   0.119   2.159   3.298  1.9368 -0.2209  0.9877
   98SAPC  C213 9705   0.182   2.333   3.408  0.1046 -0.1047 -0.2723
   98SAPC  H13R 9706   0.100   2.342   3.482 -0.5044 -0.1922 -0.9272
   98SAPC  H13S 9707   0.217   2.437   3.394 -1.7367  0.4924 -0.6758
   98SAPC  C214 9708   0.276   2.255   3.491  0.1571 -0.5833  0.0354
   98SAPC  H14R 9709   0.222   2.180   3.551 -1.3078 -1.0906 -1.8604
   98SAPC  C215 9710   0.410   2.264   3.492 -0.3380 -0.0735  0.7070
   98SAPC  H15R 9711   0.463   2.200   3.564 -2.1060 -2.2491  0.2217
   98SAPC  C216 9712   0.496   2.355   3.406 -0.4393  0.5412 -0.1927
   98SAPC  H16R 9713   0.479   2.461   3.433 -0.2551 -0.0581  2.5046
   98SAPC  H16S 9714   0.464   2.356   3.299 -0.6495  1.7086 -0.1310
   98SAPC  C217 9715   0.643   2.322   3.437 -0.2549 -0.0654 -0.1815
   98SAPC  H17R 9716   0.695   2.378   3.357 -0.4225  1.0611  0.4800
   98SAPC  H17S 9717   0.678   2.217   3.431 -1.2757 -0.4490  0.3501
   98SAPC  C218 9718   0.690   2.378   3.570 -0.3110  0.2238  0.5426
   98SAPC  H18R 9719   0.645   2.317   3.651 -0.0830  0.3567  0.7726
   98SAPC  H18S 9720   0.657   2.484   3.572 -0.8325  0.0886 -0.5275
   98SAPC  C219 9721   0.841   2.381   3.585 -0.1285  0.4755  0.2289
   98SAPC  H19R 9722   0.870   2.464   3.517 -1.0598  0.7516  0.1661
   98SAPC  H19S 9723   0.886   2.286   3.548 -1.9103 -0.4689  0.3891
   98SAPC  C220 9724   0.903   2.416   3.719  0.2875  0.3769  0.1187
   98SAPC  H20R 9725   0.882   2.334   3.791  1.2522 -0.9874 -1.0839
   98SAPC  H20S 9726   0.852   2.507   3.756 -0.5152  0.2044 -0.5329
   98SAPC  H20T 9727   1.013   2.426   3.712  0.3459 -0.0659  0.3685
   98SAPC   C33 9728   0.822   2.466   2.663 -0.1291 -0.3565 -0.2287
   98SAPC   H3X 9729   0.768   2.403   2.737  2.9611 -1.5535  1.2311
   98SAPC   H3Y 9730   0.772   2.564   2.652 -0.9325 -1.0612 -3.8944
   98SAPC   C34 9731   0.974   2.478   2.693  0.4279  0.0118 -0.6689
   98SAPC   H4X 9732   1.027   2.514   2.603  1.1721  0.5008 -0.0448
   98SAPC   H4Y 9733   1.012   2.379   2.723  3.1433  0.6880 -1.6025
   98SAPC   C35 9734   1.004   2.575   2.806  0.0130 -0.0262 -0.8287
   98SAPC   H5X 9735   0.929   2.555   2.886 -0.1000 -1.4538 -1.2626
   98SAPC   H5Y 9736   0.988   2.679   2.770  1.3830 -0.8843 -4.2456
   98SAPC   C36 9737   1.148   2.557   2.858 -0.4920 -0.4312  0.3017
   98SAPC   H6X 9738   1.218   2.619   2.798  0.9499 -1.8371  0.4724
   98SAPC   H6Y 9739   1.188   2.458   2.828  0.9841  0.4180 -0.6608
   98SAPC   C37 9740   1.154   2.573   3.012 -1.0618 -0.1018 -0.1542
   98SAPC   H7X 9741   1.252   2.530   3.042 -0.2743  1.4088 -0.4484
   98SAPC   H7Y 9742   1.066   2.515   3.048 -1.5596  0.9010  0.2654
   98SAPC   C38 9743   1.151   2.724   3.055  0.1398  0.2580  0.2739
   98SAPC   H8X 9744   1.067   2.788   3.021 -0.4844 -0.4360  0.4670
   98SAPC   H8Y 9745   1.243   2.773   3.018 -1.1889  2.5717 -0.1122
   98SAPC   C39 9746   1.147   2.747   3.207  0.1084 -0.0200  0.5455
   98SAPC   H9X 9747   1.039   2.763   3.224 -0.0464 -0.1732 -0.2422
   98SAPC   H9Y 9748   1.188   2.846   3.235 -1.7363  1.0622 -0.3978
   98SAPC  C310 9749   1.217   2.644   3.298  0.9548 -0.0525 -0.5024
   98SAPC  H10X 9750   1.326   2.649   3.277  1.7949 -2.1107  2.5908
   98SAPC  H10Y 9751   1.174   2.544   3.275  1.1879  0.1303 -1.8307
   98SAPC  C311 9752   1.207   2.676   3.448 -0.4604 -0.1982 -0.5316
   98SAPC  H11X 9753   1.274   2.762   3.472 -0.2393 -0.4762 -0.1416
   98SAPC  H11Y 9754   1.226   2.581   3.501 -3.0273 -1.1111 -1.1015
   98SAPC  C312 9755   1.070   2.721   3.501 -0.2939 -0.6251 -0.4137
   98SAPC  H12X 9756   0.995   2.640   3.489 -2.4149  0.4669  3.6530
   98SAPC  H12Y 9757   1.032   2.812   3.449 -0.8973 -1.2130 -1.0232
   98SAPC  C313 9758   1.075   2.745   3.656 -0.0074  0.0649  0.5453
   98SAPC  H13X 9759   1.144   2.831   3.675  0.3500 -0.2052  0.4809
   98SAPC  H13Y 9760   1.110   2.652   3.705  2.7260  0.9162  0.3757
   98SAPC  C314 9761   0.943   2.802   3.705 -0.3806 -0.5992  0.3727
   98SAPC  H14X 9762   0.865   2.731   3.669 -0.8443 -0.6473  1.4316
   98SAPC  H14Y 9763   0.927   2.896   3.647  2.5374 -0.1477  0.1393
   98SAPC  C315 9764   0.932   2.824   3.854 -0.0429 -0.0814 -0.0725
   98SAPC  H15X 9765   1.008   2.897   3.889  1.7764 -0.4918 -2.8492
   98SAPC  H15Y 9766   0.951   2.724   3.899 -1.0070 -0.4257 -0.4068
   98SAPC  C316 9767   0.792   2.864   3.899 -0.3597 -0.6012 -0.8826
   98SAPC  H16X 9768   0.768   2.970   3.877 -3.0671 -0.4792  1.8387
   98SAPC  H16Y 9769   0.802   2.863   4.010  1.8628 -0.1473 -1.0285
   98SAPC  C317 9770   0.684   2.775   3.849  0.1305 -0.4596  0.3509
   98SAPC  H17X 9771   0.699   2.772   3.739  2.9084  1.0461  0.6018
   98SAPC  H17Y 9772   0.590   2.833   3.857 -0.0416 -0.5003 -1.1250
   98SAPC  C318 9773   0.662   2.643   3.914 -0.0833 -0.3801 -1.0089
   98SAPC  H18X 9774   0.573   2.593   3.872 -0.2861  2.1679 -3.9739
   98SAPC  H18Y 9775   0.649   2.668   4.021  2.0935  0.3772 -0.8578
   98SAPC  H18Z 9776   0.742   2.566   3.903 -2.5962 -2.9807 -2.3537
   99SAPC     N 9777   1.183   6.811   1.667  0.5746  0.8874  0.2015
   99SAPC   C12 9778   1.315   6.887   1.666  0.4794 -0.1658  0.3901
   99SAPC  H12A 9779   1.305   6.972   1.600 -0.2621  0.4208  1.2379
   99SAPC  H12B 9780   1.390   6.835   1.607 -1.3240 -1.2081 -1.0955
   99SAPC   C13 9781   1.077   6.892   1.730  0.2722  0.3766  0.8722
   99SAPC  H13A 9782   1.111   6.925   1.827 -0.6514  0.3407  1.2200
   99SAPC  H13B 9783   1.066   6.991   1.687  3.7504  0.1917 -0.7654
   99SAPC  H13C 9784   0.983   6.843   1.750  0.1838 -0.1709 -0.7626
   99SAPC   C14 9785   1.143   6.777   1.530  0.1308  0.4516  0.5477
   99SAPC  H14A 9786   1.047   6.727   1.536  0.0344  0.6297  0.5025
   99SAPC  H14B 9787   1.133   6.854   1.456  1.2695 -2.0096 -2.3851
   99SAPC  H14C 9788   1.210   6.703   1.489 -1.7511 -0.1617 -1.6618
   99SAPC   C15 9789   1.207   6.684   1.739  0.0826  0.4062 -0.3975
   99SAPC  H15A 9790   1.113   6.634   1.751  0.0522  0.4494 -0.4526
   99SAPC  H15B 9791   1.276   6.616   1.691  0.1124  0.2570 -0.1456
   99SAPC  H15C 9792   1.244   6.711   1.837  0.3914 -0.9534 -0.1193
   99SAPC   C11 9793   1.374   6.946   1.803 -0.3264 -0.0925  0.4614
   99SAPC  H11A 9794   1.304   7.020   1.846 -0.9561 -0.8492  0.7594
   99SAPC  H11B 9795   1.467   7.000   1.774 -0.2460  0.1529  1.1403
   99SAPC     P 9796   1.527   6.753   1.897 -0.3608  0.4745  0.0422
   99SAPC   O13 9797   1.491   6.621   1.848 -0.4174 -0.1778  0.0908
   99SAPC   O14 9798   1.628   6.829   1.819 -0.5360  0.0682 -0.1515
   99SAPC   O12 9799   1.398   6.841   1.901  0.0873  0.5767  0.4229
   99SAPC   O11 9800   1.567   6.745   2.047 -0.3328 -0.1065 -0.4066
   99SAPC    C1 9801   1.559   6.857   2.131  0.5555  0.1410 -0.0757
   99SAPC    HA 9802   1.587   6.954   2.083 -1.7093  0.9228  0.0319
   99SAPC    HB 9803   1.452   6.867   2.161  0.8274  0.8665  0.6632
   99SAPC    C2 9804   1.656   6.836   2.246 -0.6032 -0.2650 -0.4517
   99SAPC    HS 9805   1.648   6.922   2.316 -0.5252 -1.4045  1.0180
   99SAPC   O21 9806   1.792   6.826   2.201 -0.6551 -0.2062 -0.6853
   99SAPC   C21 9807   1.845   6.941   2.156 -0.2022 -0.5435  0.5250
   99SAPC   O22 9808   1.790   7.050   2.159 -0.0981 -0.0217 -0.2872
   99SAPC   C22 9809   1.988   6.912   2.107  0.1233  0.8486  0.0050
   99SAPC   H2R 9810   1.994   6.802   2.091 -1.0700  0.4253  2.1051
   99SAPC   H2S 9811   2.003   6.962   2.009 -2.1819  0.8741 -0.3908
   99SAPC    C3 9812   1.619   6.720   2.344  0.3776 -0.3466 -0.2802
   99SAPC    HX 9813   1.654   6.637   2.279 -0.4307  0.6230 -2.0521
   99SAPC    HY 9814   1.509   6.734   2.349  0.3969  0.7321 -1.9394
   99SAPC   O31 9815   1.679   6.723   2.479 -0.2021  0.4648 -0.1966
   99SAPC   C31 9816   1.761   6.618   2.519 -0.2803  0.0321  0.7818
   99SAPC   O32 9817   1.825   6.545   2.441  0.5535  0.1977  1.3124
   99SAPC   C32 9818   1.776   6.612   2.667  0.2130 -0.4337  0.0209
   99SAPC   H2X 9819   1.698   6.543   2.704  2.9649 -2.3631  2.8147
   99SAPC   H2Y 9820   1.766   6.713   2.714 -0.6559 -0.1605 -0.7393
   99SAPC   C23 9821   2.085   6.941   2.223 -0.0550 -0.1127  0.5936
   99SAPC   H3R 9822   2.063   7.044   2.258 -1.2692 -0.3887  0.6962
   99SAPC   H3S 9823   2.191   6.936   2.191  0.1514  0.1192  1.2319
   99SAPC   C24 9824   2.063   6.840   2.345  0.2428  0.3241  0.5071
   99SAPC   H4R 9825   2.075   6.734   2.314  1.7139  0.3352  0.9386
   99SAPC   H4S 9826   1.964   6.837   2.395  1.8827  0.2997  3.9882
   99SAPC   C25 9827   2.171   6.870   2.449 -0.0758  0.2598  0.1941
   99SAPC   H5R 9828   2.175   6.973   2.487 -2.0259  0.7898 -0.9038
   99SAPC   C26 9829   2.261   6.781   2.511  0.3352 -0.1975 -0.3963
   99SAPC   H6R 9830   2.326   6.822   2.590 -0.8290  0.1215  0.4210
   99SAPC   C27 9831   2.259   6.629   2.480 -0.4015 -0.2870  0.5671
   99SAPC   H7R 9832   2.164   6.580   2.509 -1.4306  1.4821  0.3419
   99SAPC   H7S 9833   2.334   6.585   2.550  1.9206  2.4990  0.0358
   99SAPC   C28 9834   2.314   6.602   2.341 -0.1322  1.1636  0.0560
   99SAPC   H8R 9835   2.372   6.682   2.294 -0.0505  0.9925 -0.1350
   99SAPC   C29 9836   2.286   6.487   2.270  0.9643  0.3387 -0.1505
   99SAPC   H9R 9837   2.326   6.464   2.170  0.3840  1.0102 -0.5437
   99SAPC  C210 9838   2.213   6.364   2.319 -0.1149  0.1288  0.0098
   99SAPC  H10R 9839   2.150   6.323   2.236  1.8068 -1.4143 -0.7549
   99SAPC  H10S 9840   2.141   6.402   2.395  1.6291  1.9843  0.8220
   99SAPC  C211 9841   2.310   6.251   2.365  0.0247 -0.1202  1.2430
   99SAPC  H11R 9842   2.363   6.187   2.293 -1.1336 -2.0384  2.0142
   99SAPC  C212 9843   2.341   6.223   2.491  0.4816 -0.0111 -0.5784
   99SAPC  H12R 9844   2.401   6.132   2.505  0.2136 -0.1981 -0.6329
   99SAPC  C213 9845   2.297   6.287   2.618 -0.2331  0.3220 -0.1148
   99SAPC  H13R 9846   2.221   6.227   2.673  2.1295 -0.1191  2.9521
   99SAPC  H13S 9847   2.243   6.384   2.610  0.5276  0.6971 -0.8008
   99SAPC  C214 9848   2.406   6.300   2.725  0.5536  0.0093  0.1678
   99SAPC  H14R 9849   2.464   6.392   2.708 -1.4319  0.8227 -3.1275
   99SAPC  C215 9850   2.434   6.212   2.819  0.3364 -0.2095 -0.7200
   99SAPC  H15R 9851   2.524   6.222   2.881  1.6432 -3.0561 -1.9715
   99SAPC  C216 9852   2.364   6.079   2.846  0.5760 -1.0487 -0.0739
   99SAPC  H16R 9853   2.443   6.017   2.893  2.4618  1.5823  0.4617
   99SAPC  H16S 9854   2.324   6.033   2.753 -2.5920 -0.5833  0.9341
   99SAPC  C217 9855   2.227   6.088   2.917  0.0337  0.7946 -0.3128
   99SAPC  H17R 9856   2.189   5.984   2.927  1.6069  0.4488  3.9807
   99SAPC  H17S 9857   2.149   6.146   2.864 -0.1687  0.6386 -0.1862
   99SAPC  C218 9858   2.236   6.142   3.063 -0.4336  0.0582  0.0293
   99SAPC  H18R 9859   2.245   6.253   3.063 -0.0695  0.0442 -0.9110
   99SAPC  H18S 9860   2.316   6.096   3.125 -0.9442 -2.6637 -1.1932
   99SAPC  C219 9861   2.119   6.100   3.144  0.9829 -0.1730  0.2232
   99SAPC  H19R 9862   2.116   5.990   3.155 -0.5883 -0.3415 -1.4307
   99SAPC  H19S 9863   2.031   6.132   3.083  1.3483  0.1163 -0.1514
   99SAPC  C220 9864   2.120   6.184   3.275 -0.3415 -0.4924  0.2375
   99SAPC  H20R 9865   2.223   6.184   3.316 -0.5006  2.1288  0.8000
   99SAPC  H20S 9866   2.049   6.150   3.353 -0.2747  1.8647  1.4191
   99SAPC  H20T 9867   2.082   6.285   3.247 -1.2889 -0.7823  0.4606
   99SAPC   C33 9868   1.906   6.540   2.715 -1.4430 -0.2643 -0.1474
   99SAPC   H3X 9869   1.990   6.585   2.658 -2.2170 -0.8332 -1.8069
   99SAPC   H3Y 9870   1.900   6.431   2.695 -1.2865 -0.0813 -1.2291
   99SAPC   C34 9871   1.926   6.580   2.868 -0.1494  0.4152  0.8588
   99SAPC   H4X 9872   1.917   6.690   2.883 -3.8153  0.1883  1.1539
   99SAPC   H4Y 9873   2.032   6.553   2.889  0.3214  0.7614 -0.9147
   99SAPC   C35 9874   1.821   6.518   2.959  0.2407 -0.0768  0.3519
   99SAPC   H5X 9875   1.834   6.407   2.956  0.3119 -0.0500 -1.0151
   99SAPC   H5Y 9876   1.719   6.547   2.923 -0.3182  0.0439  1.9510
   99SAPC   C36 9877   1.832   6.578   3.103 -0.1712  0.4316 -0.0740
   99SAPC   H6X 9878   1.794   6.682   3.095 -1.2262  0.0870  0.3520
   99SAPC   H6Y 9879   1.941   6.579   3.125 -0.4031 -1.3013  1.3938
   99SAPC   C37 9880   1.754   6.507   3.218 -0.6589  0.1188  0.4353
   99SAPC   H7X 9881   1.651   6.495   3.177  0.1830  0.2900 -1.8845
   99SAPC   H7Y 9882   1.747   6.580   3.302 -1.0635  0.6759 -0.0677
   99SAPC   C38 9883   1.823   6.377   3.261 -0.5124 -0.1442  0.0635
   99SAPC   H8X 9884   1.926   6.409   3.286 -0.2496 -1.2789  0.5126
   99SAPC   H8Y 9885   1.829   6.314   3.169 -0.3315 -0.4695  0.2954
   99SAPC   C39 9886   1.745   6.305   3.367  0.1310 -0.0854 -0.2037
   99SAPC   H9X 9887   1.791   6.205   3.382  0.7486  0.3721  1.1694
   99SAPC   H9Y 9888   1.640   6.291   3.333 -0.6237 -0.5582  2.1048
   99SAPC  C310 9889   1.741   6.382   3.497  0.2899 -0.4744 -0.1570
   99SAPC  H10X 9890   1.693   6.481   3.483  1.1039 -0.0457  0.0394
   99SAPC  H10Y 9891   1.849   6.396   3.516  0.2450 -1.0939  0.5784
   99SAPC  C311 9892   1.669   6.306   3.603 -0.2923  0.2841  0.2248
   99SAPC  H11X 9893   1.699   6.365   3.692  1.6736 -0.1492 -0.1003
   99SAPC  H11Y 9894   1.696   6.198   3.606  0.9468  0.5630 -0.5959
   99SAPC  C312 9895   1.513   6.308   3.588  0.4251  0.3428 -0.2951
   99SAPC  H12X 9896   1.465   6.208   3.589  2.2613 -0.6211  2.1172
   99SAPC  H12Y 9897   1.489   6.344   3.486 -0.0837 -2.0050 -1.0521
   99SAPC  C313 9898   1.435   6.400   3.690 -0.5144 -0.6725  0.5061
   99SAPC  H13X 9899   1.468   6.370   3.792  0.9254  1.2644  0.6810
   99SAPC  H13Y 9900   1.327   6.373   3.685 -0.4987 -0.5828 -0.5814
   99SAPC  C314 9901   1.468   6.546   3.684  0.1246  0.1858  0.4618
   99SAPC  H14X 9902   1.423   6.601   3.598  0.8258  0.3994  0.2227
   99SAPC  H14Y 9903   1.577   6.562   3.674  0.2678 -1.1929 -0.4174
   99SAPC  C315 9904   1.427   6.625   3.811 -0.6093  0.5024  0.0646
   99SAPC  H15X 9905   1.500   6.610   3.893 -2.9402  1.1701  2.4257
   99SAPC  H15Y 9906   1.324   6.600   3.845 -0.4831  1.3233  1.1152
   99SAPC  C316 9907   1.425   6.782   3.787 -0.8448 -0.2620 -0.2663
   99SAPC  H16X 9908   1.329   6.818   3.747 -0.6543  0.0993 -0.4007
   99SAPC  H16Y 9909   1.489   6.795   3.697  0.9295 -1.1406  0.7945
   99SAPC  C317 9910   1.485   6.868   3.901 -0.5080  0.2499 -0.1952
   99SAPC  H17X 9911   1.579   6.821   3.936 -0.6106  1.2724  1.5595
   99SAPC  H17Y 9912   1.414   6.862   3.986 -2.6763  1.0537 -1.8510
   99SAPC  C318 9913   1.511   7.018   3.870 -0.1667  0.0626  0.5723
   99SAPC  H18X 9914   1.413   7.071   3.878 -0.0408  0.3386  0.2576
   99SAPC  H18Y 9915   1.539   7.034   3.764 -1.3806 -0.3909  0.1584
   99SAPC  H18Z 9916   1.590   7.063   3.934  0.7206 -0.2438 -0.2895
  100SAPC     N 9917   0.429   6.800   1.607  0.5102 -0.0732 -0.5467
  100SAPC   C12 9918   0.536   6.816   1.714  0.1483  0.5672  0.5007
  100SAPC  H12A 9919   0.612   6.882   1.676  1.5036  0.8118  3.3512
  100SAPC  H12B 9920   0.577   6.718   1.728 -1.0615 -0.0005  0.2471
  100SAPC   C13 9921   0.303   6.721   1.654  0.4145 -0.7388 -0.0097
  100SAPC  H13A 9922   0.330   6.623   1.691  0.0091 -0.1524  1.9257
  100SAPC  H13B 9923   0.259   6.765   1.742  0.0162 -0.5776 -0.2884
  100SAPC  H13C 9924   0.230   6.708   1.575  1.1855  0.9800 -1.0678
  100SAPC   C14 9925   0.379   6.938   1.556 -0.4831 -0.0316 -0.0179
  100SAPC  H14A 9926   0.321   6.922   1.465  0.8586 -1.4209 -0.6723
  100SAPC  H14B 9927   0.328   6.994   1.634 -0.2371 -0.6289  0.5743
  100SAPC  H14C 9928   0.464   6.996   1.524  0.4130 -0.5627  1.3199
  100SAPC   C15 9929   0.485   6.725   1.486  0.1235  0.1159  0.4595
  100SAPC  H15A 9930   0.587   6.747   1.461 -0.1316  0.5400 -0.2177
  100SAPC  H15B 9931   0.472   6.618   1.493  2.0604 -0.1522  0.3631
  100SAPC  H15C 9932   0.429   6.753   1.398 -1.7193 -1.6531  0.9707
  100SAPC   C11 9933   0.501   6.862   1.858 -0.3142 -0.5774 -0.2435
  100SAPC  H11A 9934   0.587   6.841   1.926 -0.3761 -0.6637 -0.1918
  100SAPC  H11B 9935   0.429   6.789   1.901  1.4013 -2.7042 -0.8284
  100SAPC     P 9936   0.529   7.115   1.897 -0.1009 -0.0337 -0.3030
  100SAPC   O13 9937   0.672   7.075   1.902  0.0284 -0.0341  0.0777
  100SAPC   O14 9938   0.494   7.221   1.800 -0.5877 -0.0723 -0.0387
  100SAPC   O12 9939   0.441   6.992   1.867 -0.0341 -0.8447 -0.3002
  100SAPC   O11 9940   0.488   7.179   2.037 -0.2918  0.4176  0.2084
  100SAPC    C1 9941   0.357   7.160   2.091  0.1100 -0.3541 -0.5984
  100SAPC    HA 9942   0.303   7.076   2.042  0.1949 -1.4292  1.0917
  100SAPC    HB 9943   0.365   7.132   2.198 -0.0143  1.9067  0.0617
  100SAPC    C2 9944   0.264   7.287   2.080  0.2363 -0.3678 -0.5225
  100SAPC    HS 9945   0.242   7.301   1.972 -2.0445 -1.8185 -0.3116
  100SAPC   O21 9946   0.338   7.398   2.138  0.0776  0.6685  0.1903
  100SAPC   C21 9947   0.291   7.515   2.086  0.7662  0.3981 -0.7540
  100SAPC   O22 9948   0.197   7.533   2.006 -0.7369 -0.2174 -0.0059
  100SAPC   C22 9949   0.374   7.622   2.149 -1.0720  0.0482 -0.7427
  100SAPC   H2R 9950   0.441   7.592   2.232 -1.2140  0.4545 -0.4795
  100SAPC   H2S 9951   0.454   7.650   2.078 -1.7684  1.3135 -1.0674
  100SAPC    C3 9952   0.134   7.263   2.162  0.9953 -0.4802  0.4718
  100SAPC    HX 9953   0.082   7.172   2.124 -3.2341  1.5692  0.7451
  100SAPC    HY 9954   0.059   7.341   2.139  3.1860  0.9624 -2.3418
  100SAPC   O31 9955   0.167   7.267   2.303 -0.4288 -0.7754  0.2476
  100SAPC   C31 9956   0.136   7.369   2.378  0.6219  0.4554  0.2911
  100SAPC   O32 9957   0.087   7.475   2.338  0.0456 -0.5209  0.1993
  100SAPC   C32 9958   0.171   7.330   2.520 -0.1694  0.3255  0.2216
  100SAPC   H2X 9959   0.281   7.323   2.525 -0.3019 -2.1384  0.5970
  100SAPC   H2Y 9960   0.133   7.230   2.548  2.0915 -0.2474  1.4861
  100SAPC   C23 9961   0.283   7.738   2.192  0.1283  0.3843 -0.1691
  100SAPC   H3R 9962   0.221   7.703   2.277  0.8561  0.0754  0.2422
  100SAPC   H3S 9963   0.219   7.762   2.104 -0.5350  1.0707  0.4889
  100SAPC   C24 9964   0.351   7.874   2.222 -0.0228  0.8137 -0.2984
  100SAPC   H4R 9965   0.273   7.945   2.255 -1.0875  0.3541 -1.6914
  100SAPC   H4S 9966   0.389   7.909   2.124 -1.3023  2.5481 -0.2282
  100SAPC   C25 9967   0.468   7.878   2.319 -0.6314 -0.3392  0.7172
  100SAPC   H5R 9968   0.541   7.953   2.287 -0.2587 -0.4725  1.2299
  100SAPC   C26 9969   0.489   7.822   2.439 -0.3912  0.4603 -0.2293
  100SAPC   H6R 9970   0.579   7.843   2.498 -0.6641 -0.6366  0.6292
  100SAPC   C27 9971   0.395   7.723   2.509 -0.2408 -0.0543 -0.8326
  100SAPC   H7R 9972   0.397   7.629   2.450  2.5912  0.1697 -1.2363
  100SAPC   H7S 9973   0.290   7.758   2.502 -1.0234 -2.1735 -0.3983
  100SAPC   C28 9974   0.440   7.686   2.648 -0.2007  0.3309  0.2548
  100SAPC   H8R 9975   0.461   7.579   2.664  1.1285  0.7034  1.1791
  100SAPC   C29 9976   0.463   7.762   2.753  0.2010 -0.1389 -0.1799
  100SAPC   H9R 9977   0.478   7.721   2.854 -1.5214  1.7047  0.8896
  100SAPC  C210 9978   0.457   7.910   2.759 -1.1802 -0.9864  0.5702
  100SAPC  H10R 9979   0.394   7.933   2.848  0.2100  0.2050  1.2872
  100SAPC  H10S 9980   0.411   7.957   2.670  1.7472  0.6852 -0.1766
  100SAPC  C211 9981   0.587   7.976   2.784 -0.8032 -0.1613 -0.0768
  100SAPC  H11R 9982   0.643   7.991   2.691  1.1214 -0.5251  0.9623
  100SAPC  C212 9983   0.654   8.003   2.898 -1.1490 -0.3377 -0.2887
  100SAPC  H12R 9984   0.747   8.061   2.884 -1.9337  0.7301 -1.2207
  100SAPC  C213 9985   0.612   7.975   3.047 -0.0709 -0.4431 -0.1595
  100SAPC  H13R 9986   0.661   7.880   3.079  0.8776 -0.3894 -1.3556
  100SAPC  H13S 9987   0.503   7.954   3.045 -0.2053  0.2905 -0.6192
  100SAPC  C214 9988   0.641   8.092   3.143 -0.5739  0.3484 -0.5374
  100SAPC  H14R 9989   0.627   8.191   3.098  0.3201  1.6942  1.9645
  100SAPC  C215 9990   0.678   8.084   3.272  0.3196 -0.0039  0.4585
  100SAPC  H15R 9991   0.662   8.178   3.326  0.6581 -0.4910  1.4326
  100SAPC  C216 9992   0.707   7.968   3.360 -0.0444  0.2644  0.5701
  100SAPC  H16R 9993   0.691   7.874   3.303 -2.2927 -0.3536  2.0860
  100SAPC  H16S 9994   0.642   7.965   3.450  0.1532 -0.9202  0.6952
  100SAPC  C217 9995   0.854   7.962   3.403  0.1027 -0.2134  0.1020
  100SAPC  H17R 9996   0.871   8.056   3.461 -1.7181 -1.8756  3.6661
  100SAPC  H17S 9997   0.920   7.973   3.314 -1.3193  1.6069 -0.8062
  100SAPC  C218 9998   0.903   7.855   3.498  0.9585 -0.1062  1.0445
  100SAPC  H18R 9999   0.854   7.758   3.475 -0.7232  0.6347  1.2835
  100SAPC  H18S10000   0.874   7.884   3.602  3.0027 -0.0812  1.6495
  100SAPC  C21910001   1.057   7.840   3.492  0.0000 -0.2111 -0.4388
  100SAPC  H19R10002   1.101   7.935   3.529 -1.2638  0.3111 -0.2553
  100SAPC  H19S10003   1.100   7.844   3.390 -0.5922  1.7558 -0.6531
  100SAPC  C22010004   1.114   7.723   3.584 -0.1191 -0.4740 -0.7761
  100SAPC  H20R10005   1.068   7.632   3.539  1.5152 -0.5065 -2.5144
  100SAPC  H20S10006   1.082   7.734   3.690 -0.3575 -0.0411 -0.8923
  100SAPC  H20T10007   1.224   7.712   3.574 -0.1617 -0.6152 -1.0994
  100SAPC   C3310008   0.143   7.439   2.620 -0.1228  0.1597 -0.5438
  100SAPC   H3X10009   0.036   7.470   2.618 -0.8521 -1.9412  1.5820
  100SAPC   H3Y10010   0.207   7.523   2.584 -0.2863  0.1084 -0.9520
  100SAPC   C3410011   0.177   7.414   2.772 -0.0725 -0.6306  0.1264
  100SAPC   H4X10012   0.095   7.350   2.811 -0.0201 -1.4558 -1.0614
  100SAPC   H4Y10013   0.161   7.510   2.825  1.0871 -0.5789  0.3898
  100SAPC   C3510014   0.307   7.342   2.810  0.0218  0.0372  0.2706
  100SAPC   H5X10015   0.400   7.391   2.774  0.3464  0.5964  1.7884
  100SAPC   H5Y10016   0.301   7.250   2.749  1.0537  0.7061 -0.8790
  100SAPC   C3610017   0.323   7.312   2.959  0.6163  0.2532  0.3589
  100SAPC   H6X10018   0.368   7.211   2.962  0.4494  0.1777  0.3489
  100SAPC   H6Y10019   0.224   7.315   3.010  0.6983  3.2997  0.5302
  100SAPC   C3710020   0.405   7.411   3.036  0.8054 -0.7462 -0.4335
  100SAPC   H7X10021   0.378   7.511   2.997  1.1338  0.3536  1.9587
  100SAPC   H7Y10022   0.513   7.399   3.015  0.7591 -0.0180 -1.1566
  100SAPC   C3810023   0.383   7.419   3.190 -0.8950  0.2270 -0.0202
  100SAPC   H8X10024   0.422   7.325   3.234  0.0419 -1.1493 -3.4370
  100SAPC   H8Y10025   0.274   7.435   3.206 -1.2867 -0.3398 -1.8304
  100SAPC   C3910026   0.469   7.529   3.254 -0.2781 -0.5387  0.0911
  100SAPC   H9X10027   0.434   7.631   3.227  0.5167 -0.6617 -1.5123
  100SAPC   H9Y10028   0.569   7.520   3.206 -0.5576  2.5483 -1.3739
  100SAPC  C31010029   0.470   7.517   3.405  0.5466 -0.2851  0.0796
  100SAPC  H10X10030   0.491   7.411   3.429  2.2328  0.3973  1.8471
  100SAPC  H10Y10031   0.368   7.548   3.439  0.5483  1.5977 -1.4516
  100SAPC  C31110032   0.571   7.616   3.476  0.5446  0.2303  0.1360
  100SAPC  H11X10033   0.555   7.725   3.465  1.3075  0.2816 -0.5112
  100SAPC  H11Y10034   0.677   7.606   3.445 -0.0173 -1.2292 -1.4582
  100SAPC  C31210035   0.565   7.577   3.626  0.0167 -0.4686  0.6766
  100SAPC  H12X10036   0.613   7.478   3.636  1.6363  0.3364  1.3510
  100SAPC  H12Y10037   0.465   7.561   3.671 -0.0179  1.4660  1.3918
  100SAPC  C31310038   0.650   7.686   3.697  0.2862 -0.2846  0.9005
  100SAPC  H13X10039   0.619   7.790   3.674 -2.3323 -0.9564  1.0652
  100SAPC  H13Y10040   0.755   7.671   3.665 -0.0659  1.6818 -1.4444
  100SAPC  C31410041   0.648   7.674   3.848  0.3263 -0.5173 -0.5614
  100SAPC  H14X10042   0.716   7.754   3.884  1.0554 -0.5168 -1.8842
  100SAPC  H14Y10043   0.673   7.570   3.878  0.1080 -0.7866 -1.2860
  100SAPC  C31510044   0.507   7.698   3.920 -0.3623 -0.3899 -0.1482
  100SAPC  H15X10045   0.436   7.627   3.872  0.2130 -0.0488 -1.5487
  100SAPC  H15Y10046   0.491   7.805   3.898 -0.4788 -0.2123  0.7560
  100SAPC  C31610047   0.515   7.676   4.075 -0.0239  0.0881  0.6806
  100SAPC  H16X10048   0.621   7.693   4.103 -0.0383 -1.5160  1.8779
  100SAPC  H16Y10049   0.482   7.570   4.087 -1.8825  0.3761 -1.2002
  100SAPC  C31710050   0.432   7.766   4.171 -0.1724 -0.1372 -0.3661
  100SAPC  H17X10051   0.329   7.746   4.136 -0.8141 -0.8970  1.8115
  100SAPC  H17Y10052   0.454   7.874   4.155  0.7856 -0.3168 -0.3341
  100SAPC  C31810053   0.430   7.734   4.320 -0.3873  0.4585 -0.2094
  100SAPC  H18X10054   0.369   7.809   4.374 -2.2737 -0.4664 -0.9247
  100SAPC  H18Y10055   0.536   7.735   4.350 -0.8740  2.6976  1.7170
  100SAPC  H18Z10056   0.386   7.632   4.326  1.8849 -0.6815 -1.5737
  101OSM      N10057   3.809   2.996   6.346 -0.1405 -0.2788  0.0199
  101OSM    C1510058   3.701   3.090   6.294 -0.2013 -0.1416  0.1942
  101OSM   H15A10059   3.689   3.191   6.331 -0.1653  0.9299 -2.4897
  101OSM   H15B10060   3.604   3.044   6.308 -1.5913  2.7490  0.8317
  101OSM   H15C10061   3.719   3.095   6.188 -1.5545 -0.7249 -0.0854
  101OSM    C1410062   3.942   3.057   6.323 -0.2589  0.2208  0.1497
  101OSM   H14A10063   3.944   3.094   6.222 -2.9861  1.5307  0.4823
  101OSM   H14B10064   4.023   2.985   6.321  1.2584  1.7677 -3.6351
  101OSM   H14C10065   3.965   3.138   6.391 -0.9962 -1.0735  2.0118
  101OSM    C1310066   3.795   2.966   6.497 -0.0175 -0.1307  0.3015
  101OSM   H13A10067   3.706   2.907   6.516  0.2843  0.1085  2.8494
  101OSM   H13B10068   3.783   3.060   6.548 -1.1036 -0.1381  0.0807
  101OSM   H13C10069   3.884   2.924   6.543  0.6051  1.7520  0.8806
  101OSM    C1210070   3.792   2.875   6.258  0.7139  0.3875 -0.2999
  101OSM   H12A10071   3.811   2.905   6.156  0.3446  0.5131 -0.3337
  101OSM   H12B10072   3.693   2.836   6.272  1.3973 -1.9683 -1.4518
  101OSM    C1110073   3.871   2.745   6.284 -0.1672  0.3436  0.0988
  101OSM   H11A10074   3.826   2.660   6.228 -0.6381  0.5715  0.1306
  101OSM   H11B10075   3.857   2.720   6.391  3.0044  0.6065  0.6664
  101OSM      P10076   4.057   2.780   6.104  0.3100 -0.1194  0.1184
  101OSM    O1310077   4.141   2.903   6.104 -0.5006 -0.4053  0.1548
  101OSM    O1410078   4.128   2.662   6.056  0.2840  0.6116  0.1632
  101OSM    O1110079   3.925   2.796   6.025  0.1294  0.2834 -0.1844
  101OSM    O1210080   4.008   2.758   6.253  0.3220 -0.0855  0.2283
  101OSM    C1S10081   3.914   2.843   5.885 -0.3716 -0.4148 -0.7138
  101OSM    H1S10082   4.016   2.848   5.840 -0.2249 -1.8620 -0.6194
  101OSM    H1T10083   3.878   2.947   5.883  1.2145  0.1698 -0.2906
  101OSM     NF10084   3.859   2.781   5.650  0.0129  0.2495 -0.4801
  101OSM    HNF10085   3.780   2.813   5.598 -2.2647 -1.6010  1.5588
  101OSM    C2S10086   3.835   2.749   5.793  0.1206 -0.3933  0.2172
  101OSM    H2S10087   3.881   2.652   5.821  2.1659  1.1385  2.6483
  101OSM    C3S10088   3.688   2.751   5.834 -0.0445 -0.2361  1.2942
  101OSM    H3S10089   3.655   2.853   5.802  1.2857  0.2418  1.3645
  101OSM     O310090   3.659   2.761   5.971 -0.5378 -0.2773 -0.0795
  101OSM    HO310091   3.745   2.779   6.010 -0.1348  0.0285 -1.0789
  101OSM    C4S10092   3.625   2.634   5.765  0.8755  0.6140 -0.8224
  101OSM    H4S10093   3.645   2.541   5.821 -2.0724  1.1729  1.4258
  101OSM    C5S10094   3.543   2.637   5.655 -0.4484 -0.1786 -0.2254
  101OSM    H5S10095   3.515   2.732   5.608  1.0265  0.5124  0.2539
  101OSM    C6S10096   3.491   2.513   5.590  0.6440 -0.4148 -0.3508
  101OSM    H6S10097   3.380   2.523   5.584  0.6407  0.2059  0.5848
  101OSM    H6T10098   3.495   2.420   5.651 -1.0850  0.9067  1.9295
  101OSM    C7S10099   3.531   2.491   5.449 -0.5106  0.1731 -0.8502
  101OSM    H7S10100   3.641   2.480   5.440 -0.4135 -0.1707  0.4994
  101OSM    H7T10101   3.496   2.578   5.391 -0.0341 -0.3999 -2.0254
  101OSM    C8S10102   3.456   2.366   5.384  0.1119 -0.3024 -0.0170
  101OSM    H8S10103   3.347   2.375   5.405 -0.0042 -0.3609 -0.5891
  101OSM    H8T10104   3.489   2.271   5.431 -2.0007 -0.2381  1.7285
  101OSM    C9S10105   3.485   2.360   5.237  0.2200 -0.2749 -0.3382
  101OSM    H9S10106   3.590   2.340   5.207  0.1581 -0.0890 -0.6906
  101OSM    H9T10107   3.446   2.456   5.196  0.7384  0.8044  1.5671
  101OSM   C10S10108   3.399   2.256   5.165  0.6827 -1.2363  0.3896
  101OSM   H10S10109   3.290   2.275   5.171  0.1917 -2.3053 -2.8336
  101OSM   H10T10110   3.431   2.159   5.209 -0.1775 -2.0372 -0.6797
  101OSM   C11S10111   3.431   2.247   5.020 -0.3464  0.3530  0.2940
  101OSM   H11S10112   3.529   2.197   5.003 -0.5705  0.1712 -0.5047
  101OSM   H11T10113   3.437   2.348   4.975 -1.1867  0.9178  1.4113
  101OSM   C12S10114   3.321   2.171   4.944 -0.0955 -0.8401 -0.1853
  101OSM   H12S10115   3.229   2.232   4.958 -0.7137 -1.5574 -1.0126
  101OSM   H12T10116   3.289   2.077   4.994 -0.1986  0.6805  2.8501
  101OSM   C13S10117   3.347   2.151   4.794  0.4038 -0.4562 -0.0874
  101OSM   H13S10118   3.261   2.092   4.756 -1.5825  2.5097 -0.5367
  101OSM   H13T10119   3.450   2.113   4.778  1.3142  0.5177  2.9511
  101OSM   C14S10120   3.353   2.275   4.712  0.5838 -0.9039  0.8299
  101OSM   H14S10121   3.443   2.334   4.739  0.2820  0.1981 -0.4507
  101OSM   H14T10122   3.261   2.333   4.732 -0.9236 -1.5946 -3.1894
  101OSM   C15S10123   3.343   2.252   4.558  0.3488 -0.3334 -0.5350
  101OSM   H15S10124   3.247   2.209   4.523  0.6428 -0.1018 -1.6854
  101OSM   H15T10125   3.423   2.177   4.541 -0.3497 -1.0885 -0.5128
  101OSM   C16S10126   3.375   2.380   4.473 -0.1115  0.4960  0.9859
  101OSM   H16S10127   3.461   2.432   4.520 -0.1670 -0.3914  2.1087
  101OSM   H16T10128   3.282   2.440   4.467  0.3896  1.2204  0.2312
  101OSM   C17S10129   3.414   2.349   4.324  0.0774  0.3751 -0.0464
  101OSM   H17S10130   3.412   2.440   4.260  1.1961 -0.4379 -1.2948
  101OSM   H17T10131   3.345   2.278   4.274  0.0743 -0.0104  0.5048
  101OSM   C18S10132   3.552   2.282   4.307  0.0283  0.0912  0.2528
  101OSM   H18S10133   3.630   2.338   4.363  2.3709 -0.0815 -2.5984
  101OSM   H18T10134   3.590   2.287   4.203 -1.8092 -0.3370 -0.4694
  101OSM   H18U10135   3.550   2.179   4.347 -0.5531 -0.1779 -0.4467
  101OSM    C1F10136   3.974   2.761   5.590 -0.1212 -0.9201 -0.1876
  101OSM     OF10137   4.072   2.729   5.650 -0.6151  0.0592  0.3034
  101OSM    C2F10138   3.982   2.782   5.441  0.4947 -0.3098  0.1194
  101OSM    H2F10139   4.079   2.756   5.395 -0.5534 -0.5761 -2.0393
  101OSM    H2G10140   3.960   2.890   5.427  0.5178 -0.4934 -1.5111
  101OSM    C3F10141   3.869   2.707   5.378  0.0666  0.1359 -0.1910
  101OSM    H3F10142   3.769   2.726   5.423 -1.2489 -0.5603 -2.6346
  101OSM    H3G10143   3.890   2.598   5.382 -0.6516  0.0126  0.4573
  101OSM    C4F10144   3.861   2.729   5.225  0.0706  0.1275 -0.6143
  101OSM    H4F10145   3.952   2.694   5.171  0.2431 -0.6389  0.1453
  101OSM    H4G10146   3.844   2.834   5.194  1.8919  0.5972 -0.1335
  101OSM    C5F10147   3.758   2.642   5.166  0.0093  0.2962  0.1093
  101OSM    H5F10148   3.663   2.644   5.224 -0.3999  0.0872 -0.5312
  101OSM    H5G10149   3.789   2.537   5.185  2.7611  0.9835 -0.1261
  101OSM    C6F10150   3.735   2.665   5.015 -0.4166 -0.1889  0.7829
  101OSM    H6F10151   3.832   2.643   4.965  0.9587  0.2068  3.0819
  101OSM    H6G10152   3.693   2.766   4.996  0.1053 -0.5431 -2.9342
  101OSM    C7F10153   3.656   2.546   4.949  0.1771  0.3135 -0.4088
  101OSM    H7F10154   3.546   2.552   4.962 -0.0843  0.9491 -2.5086
  101OSM    H7G10155   3.686   2.449   4.994  0.1071 -0.1802 -1.4194
  101OSM    C8F10156   3.684   2.516   4.799  0.1967  0.2316 -0.6749
  101OSM    H8F10157   3.666   2.412   4.765  0.1901 -0.1384  0.4117
  101OSM    H8G10158   3.793   2.521   4.779  0.7694 -1.0287  1.7101
  101OSM    C9F10159   3.596   2.621   4.725 -0.1589 -0.3525  0.3610
  101OSM    H9F10160   3.488   2.601   4.719 -0.7200  2.2674  0.4945
  101OSM   C10F10161   3.638   2.733   4.662  0.4836 -0.4877 -0.5620
  101OSM   H10F10162   3.563   2.772   4.591 -1.6212 -0.1078  1.7451
  101OSM   C11F10163   3.778   2.791   4.649 -0.4162 -0.3228  1.0624
  101OSM   H11F10164   3.844   2.802   4.738  3.7327  1.7332 -1.9301
  101OSM   H11G10165   3.762   2.894   4.611 -2.4168 -0.2210  2.0296
  101OSM   C12F10166   3.868   2.710   4.557 -0.8328 -0.6534 -0.3195
  101OSM   H12F10167   3.891   2.612   4.604  2.6528  0.5177  0.7698
  101OSM   H12G10168   3.968   2.758   4.542 -0.4533 -1.9723 -2.4946
  101OSM   C13F10169   3.802   2.679   4.419 -0.1231 -0.3064  0.0973
  101OSM   H13F10170   3.744   2.769   4.390 -1.5718 -0.3490  2.5641
  101OSM   H13G10171   3.718   2.606   4.421 -1.5966  1.3210 -0.2734
  101OSM   C14F10172   3.898   2.627   4.309  0.0638 -0.0716 -0.2368
  101OSM   H14F10173   3.972   2.703   4.278  1.8863 -2.1397 -1.2237
  101OSM   H14G10174   3.834   2.614   4.219  0.4314 -0.9231 -0.3861
  101OSM   C15F10175   3.978   2.502   4.343  0.0017 -0.2987 -0.3304
  101OSM   H15F10176   3.912   2.418   4.375  1.4713 -1.0054  0.9751
  101OSM   H15G10177   4.042   2.519   4.433 -1.2002 -0.1729  0.5235
  101OSM   C16F10178   4.057   2.443   4.225  0.8986  0.5430 -0.0203
  101OSM   H16F10179   3.997   2.404   4.140  1.2798  0.0783 -0.0775
  101OSM   H16G10180   4.111   2.351   4.254  0.9332 -0.0514 -1.8829
  101OSM   C17F10181   4.169   2.534   4.172 -0.1489 -0.7926 -0.6596
  101OSM   H17F10182   4.230   2.572   4.257 -0.6984  0.4791 -0.8054
  101OSM   H17G10183   4.120   2.628   4.141 -2.2807 -0.5479  2.9128
  101OSM   C18F10184   4.259   2.464   4.072  0.2944 -0.6393 -0.3427
  101OSM   H18F10185   4.331   2.394   4.118  0.9919 -0.2662 -0.8469
  101OSM   H18G10186   4.323   2.539   4.021 -0.0748  0.1502  0.3239
  101OSM   H18H10187   4.194   2.425   3.991 -1.3802 -2.3444  1.7024
  102OSM      N10188   4.822   2.699   6.536  0.1463 -0.4845  0.1754
  102OSM    C1510189   4.818   2.564   6.594  0.1864  0.1835  0.7773
  102OSM   H15A10190   4.899   2.503   6.557 -1.5460 -0.9338 -1.4087
  102OSM   H15B10191   4.726   2.517   6.565  0.5637  0.9377 -1.9216
  102OSM   H15C10192   4.825   2.571   6.702 -0.2149  0.7717  0.7703
  102OSM    C1410193   4.721   2.792   6.592 -0.0066  0.1703  0.9850
  102OSM   H14A10194   4.728   2.880   6.530  1.7696 -0.2637  0.5173
  102OSM   H14B10195   4.736   2.816   6.696  3.3783  0.4449  0.5390
  102OSM   H14C10196   4.618   2.763   6.578 -0.5854  2.1270  0.9727
  102OSM    C1310197   4.959   2.756   6.564 -0.6963  0.8852 -0.3131
  102OSM   H13A10198   4.964   2.858   6.530 -1.8919  1.0338 -0.0729
  102OSM   H13B10199   5.040   2.697   6.522  0.8041  0.0032  3.3878
  102OSM   H13C10200   4.988   2.758   6.668  1.6630 -1.7272 -0.8031
  102OSM    C1210201   4.805   2.695   6.388  0.4785  0.0808  0.2358
  102OSM   H12A10202   4.716   2.639   6.367  1.1040 -1.7880  2.2234
  102OSM   H12B10203   4.879   2.632   6.341 -1.6781 -1.0591 -1.8542
  102OSM    C1110204   4.794   2.830   6.310 -0.1679  0.4066 -0.2588
  102OSM   H11A10205   4.802   2.791   6.207  0.3564 -0.4022  0.0726
  102OSM   H11B10206   4.891   2.880   6.331 -0.3756  0.0544  1.7469
  102OSM      P10207   4.543   2.910   6.284  0.1810  0.6366  0.1801
  102OSM    O1310208   4.509   2.771   6.242  0.4957 -1.1834  0.0676
  102OSM    O1410209   4.451   2.987   6.367 -0.0219  0.2309 -0.6339
  102OSM    O1110210   4.571   2.998   6.151  0.6639 -0.6269 -0.7813
  102OSM    O1210211   4.683   2.913   6.345 -0.8967  0.0591  0.0704
  102OSM    C1S10212   4.641   2.943   6.043 -0.0657 -0.0818 -0.2678
  102OSM    H1S10213   4.631   2.833   6.035 -2.4761 -0.1574  2.4014
  102OSM    H1T10214   4.749   2.972   6.048 -0.6148  2.0403  0.6229
  102OSM     NF10215   4.660   2.952   5.811 -0.4439  0.4714 -0.5767
  102OSM    HNF10216   4.732   3.001   5.762 -0.1400  2.9801  2.1241
  102OSM    C2S10217   4.582   3.014   5.914  0.0122 -0.8963 -0.1325
  102OSM    H2S10218   4.475   2.987   5.911  0.2676 -1.9194 -0.8017
  102OSM    C3S10219   4.593   3.169   5.911  0.3978 -0.1687  0.6474
  102OSM    H3S10220   4.699   3.202   5.913  0.3637 -0.0867  1.5765
  102OSM     O310221   4.549   3.238   6.029  0.7236 -0.7530  0.0251
  102OSM    HO310222   4.532   3.164   6.087 -1.0457 -0.1658  0.3052
  102OSM    C4S10223   4.530   3.222   5.782 -0.2376  0.4381 -0.6059
  102OSM    H4S10224   4.598   3.235   5.697  0.0070 -0.6922 -0.5980
  102OSM    C5S10225   4.405   3.252   5.756 -0.0164 -0.5131  0.2977
  102OSM    H5S10226   4.332   3.238   5.837 -1.5420 -0.4812 -1.0187
  102OSM    C6S10227   4.344   3.304   5.629  0.3346 -0.5295  0.3950
  102OSM    H6S10228   4.311   3.409   5.640  2.1987  0.0282  0.9251
  102OSM    H6T10229   4.248   3.256   5.600 -0.0671  0.8105 -0.5828
  102OSM    C7S10230   4.430   3.303   5.503  0.3198  0.3106 -0.1695
  102OSM    H7S10231   4.460   3.200   5.475 -0.4556 -0.1775  0.7490
  102OSM    H7T10232   4.526   3.353   5.526  0.0016  0.3863  1.0288
  102OSM    C8S10233   4.357   3.361   5.379 -0.3743 -0.0677  0.6618
  102OSM    H8S10234   4.331   3.469   5.389  0.9453  0.2676  0.7427
  102OSM    H8T10235   4.272   3.297   5.348 -1.7549  1.5760  0.9215
  102OSM    C9S10236   4.470   3.363   5.268 -0.1280  0.3514  0.1844
  102OSM    H9S10237   4.518   3.263   5.270 -1.2023 -0.2825  4.2255
  102OSM    H9T10238   4.551   3.429   5.305 -0.5405 -0.0927  1.9983
  102OSM   C10S10239   4.420   3.390   5.133 -0.4608 -0.2150  1.3594
  102OSM   H10S10240   4.378   3.492   5.122 -0.8367 -0.5012 -0.0467
  102OSM   H10T10241   4.344   3.312   5.113  0.2575 -0.7195  0.5247
  102OSM   C11S10242   4.535   3.380   5.027 -0.1850 -0.8052 -0.9607
  102OSM   H11S10243   4.618   3.314   5.060  1.8839  2.4823  0.9648
  102OSM   H11T10244   4.587   3.477   5.012 -1.5880  0.0356 -0.5386
  102OSM   C12S10245   4.480   3.343   4.892 -0.5071  0.7222 -0.3770
  102OSM   H12S10246   4.410   3.418   4.850 -0.2917  0.5043 -1.1411
  102OSM   H12T10247   4.434   3.242   4.903  0.1994  0.5390  1.1832
  102OSM   C13S10248   4.581   3.321   4.788  0.5392 -0.0799  0.1822
  102OSM   H13S10249   4.664   3.257   4.825  1.1501  0.0163 -0.9663
  102OSM   H13T10250   4.622   3.416   4.747 -1.3038  0.5349 -0.3303
  102OSM   C14S10251   4.515   3.233   4.676  0.3392  0.4360 -0.5122
  102OSM   H14S10252   4.422   3.290   4.656 -0.2144 -0.0268  0.6431
  102OSM   H14T10253   4.497   3.129   4.709  0.4696  0.7880  0.7493
  102OSM   C15S10254   4.613   3.227   4.552  0.2538 -0.1868 -0.5202
  102OSM   H15S10255   4.702   3.168   4.583  2.9048  3.2705 -0.9098
  102OSM   H15T10256   4.664   3.323   4.529 -0.5633  0.4983  0.4208
  102OSM   C16S10257   4.545   3.170   4.425 -0.0105  0.0337  0.1274
  102OSM   H16S10258   4.476   3.247   4.386  1.3167 -0.0018 -2.4959
  102OSM   H16T10259   4.492   3.077   4.453  4.3291 -1.8209  3.3671
  102OSM   C17S10260   4.652   3.140   4.325 -0.5859  0.6480 -0.2807
  102OSM   H17S10261   4.712   3.055   4.361 -0.5499  1.5838  2.0324
  102OSM   H17T10262   4.725   3.224   4.316  0.2202 -0.1560 -1.4880
  102OSM   C18S10263   4.608   3.106   4.187  0.2023 -0.2572  0.9260
  102OSM   H18S10264   4.568   3.002   4.192  0.7538 -0.6010 -1.0379
  102OSM   H18T10265   4.682   3.111   4.104  0.5568  0.3853  1.2713
  102OSM   H18U10266   4.532   3.177   4.151 -0.2837 -1.6001 -0.8529
  102OSM    C1F10267   4.638   2.828   5.770  0.8913  0.0939 -0.0374
  102OSM     OF10268   4.558   2.754   5.829  0.8496  0.2683  0.4821
  102OSM    C2F10269   4.732   2.767   5.662  0.5197 -0.5154  0.1577
  102OSM    H2F10270   4.816   2.719   5.718  0.3901  0.8387  1.5718
  102OSM    H2G10271   4.762   2.842   5.586  1.3647 -0.5751  0.4159
  102OSM    C3F10272   4.661   2.641   5.593 -0.1560  0.4378 -0.3019
  102OSM    H3F10273   4.634   2.566   5.670 -1.8120  2.4394  1.1984
  102OSM    H3G10274   4.752   2.600   5.544  0.2939  0.3251  0.5991
  102OSM    C4F10275   4.544   2.675   5.497 -0.3910  0.4726  0.3882
  102OSM    H4F10276   4.476   2.743   5.552 -1.5406  0.5802 -1.1078
  102OSM    H4G10277   4.481   2.585   5.479  0.3259  0.1697 -0.7551
  102OSM    C5F10278   4.593   2.725   5.364 -0.6340  0.3273 -0.4880
  102OSM    H5F10279   4.643   2.632   5.329 -0.1718  0.2783  0.2845
  102OSM    H5G10280   4.655   2.817   5.376 -2.0948  1.1072  1.7237
  102OSM    C6F10281   4.479   2.762   5.266  0.4444  0.3333 -0.3456
  102OSM    H6F10282   4.402   2.815   5.325 -0.1238 -0.4177 -0.3982
  102OSM    H6G10283   4.430   2.670   5.226  2.4191 -0.7157 -0.5076
  102OSM    C7F10284   4.507   2.853   5.139 -0.3472 -0.6349  0.0964
  102OSM    H7F10285   4.584   2.797   5.082  1.0948  1.6871 -0.3597
  102OSM    H7G10286   4.561   2.948   5.162  0.0945 -0.2631 -2.2160
  102OSM    C8F10287   4.386   2.891   5.051  0.6401 -0.6004  0.0263
  102OSM    H8F10288   4.334   2.793   5.040 -0.1656  0.0313 -2.1016
  102OSM    H8G10289   4.425   2.919   4.951 -2.2908  1.0014 -0.7526
  102OSM    C9F10290   4.296   3.003   5.099  0.2554  0.4148  0.0842
  102OSM    H9F10291   4.350   3.063   5.173 -0.7124  0.1945  0.9923
  102OSM   C10F10292   4.166   3.032   5.075  0.6869 -0.2914  0.1362
  102OSM   H10F10293   4.125   3.125   5.117  0.8454  0.2528 -0.8803
  102OSM   C11F10294   4.080   2.963   4.975  0.5857 -0.1783 -0.0896
  102OSM   H11F10295   3.983   3.018   4.978 -0.3796 -1.8337  0.1418
  102OSM   H11G10296   4.065   2.857   5.004  2.3568  0.1089  2.1473
  102OSM   C12F10297   4.128   2.972   4.830  0.4855 -0.6211 -0.3293
  102OSM   H12F10298   4.069   2.898   4.773 -2.0217 -1.4304  3.0050
  102OSM   H12G10299   4.235   2.943   4.826 -0.0096 -2.3304 -2.4454
  102OSM   C13F10300   4.106   3.111   4.756  1.0093  0.0219 -0.9483
  102OSM   H13F10301   4.165   3.194   4.801 -2.1421  1.3983  0.9617
  102OSM   H13G10302   4.003   3.151   4.758  1.2358  0.5733  0.7013
  102OSM   C14F10303   4.143   3.107   4.607  0.0087 -0.4477  0.5326
  102OSM   H14F10304   4.249   3.077   4.597  0.3458  1.1189 -1.0814
  102OSM   H14G10305   4.149   3.211   4.570  1.4984  0.0442  2.0520
  102OSM   C15F10306   4.054   3.017   4.519 -0.3072  0.1522  0.3746
  102OSM   H15F10307   3.953   3.005   4.562  0.4530  0.1091  2.2296
  102OSM   H15G10308   4.098   2.916   4.501  1.1427  0.9357 -0.6577
  102OSM   C16F10309   4.038   3.083   4.372 -0.1502  0.2904 -0.3420
  102OSM   H16F10310   3.992   3.183   4.384  1.9591  1.2836 -0.0672
  102OSM   H16G10311   3.979   3.010   4.311 -2.3655  0.3497  1.5767
  102OSM   C17F10312   4.163   3.104   4.291 -0.2954  0.3131  0.0441
  102OSM   H17F10313   4.226   3.182   4.339 -0.1798 -0.2758  0.8677
  102OSM   H17G10314   4.129   3.136   4.191 -1.5558  2.0861  0.9824
  102OSM   C18F10315   4.250   2.975   4.275 -0.4179  0.4336  0.7821
  102OSM   H18F10316   4.184   2.897   4.231 -2.6133  2.5886 -0.0158
  102OSM   H18G10317   4.289   2.947   4.375 -0.1313 -1.0359  0.2734
  102OSM   H18H10318   4.331   2.999   4.203  0.3116  1.3323  1.8668
  103OSM      N10319   4.462   4.221   5.850 -0.6375 -0.1344  0.1286
  103OSM    C1510320   4.570   4.121   5.847  0.0931  0.2487  0.4306
  103OSM   H15A10321   4.555   4.055   5.932  0.2176 -0.3868 -0.0331
  103OSM   H15B10322   4.670   4.154   5.872  0.5780  0.0421 -1.1282
  103OSM   H15C10323   4.574   4.058   5.760 -0.2321  1.0307 -0.1603
  103OSM    C1410324   4.472   4.294   5.981  0.4729 -0.2979  1.0080
  103OSM   H14A10325   4.518   4.391   5.978 -0.4870  0.1663 -1.5714
  103OSM   H14B10326   4.517   4.232   6.057  1.7181 -0.1467  0.4117
  103OSM   H14C10327   4.369   4.306   6.011  0.3664 -0.6265  0.7780
  103OSM    C1310328   4.483   4.326   5.744  0.2703 -0.0200  0.6028
  103OSM   H13A10329   4.414   4.409   5.753  3.4785  3.2719 -1.6835
  103OSM   H13B10330   4.454   4.280   5.651 -3.5493  4.1831 -0.6561
  103OSM   H13C10331   4.584   4.363   5.733 -0.1136  2.2820  3.5777
  103OSM    C1210332   4.329   4.162   5.817  0.4938 -0.6319  0.1994
  103OSM   H12A10333   4.292   4.108   5.903  1.7103  1.4192  2.1165
  103OSM   H12B10334   4.330   4.095   5.732  0.5025 -2.2634  1.4295
  103OSM    C1110335   4.210   4.262   5.791  0.2066 -0.3595  0.1766
  103OSM   H11A10336   4.114   4.219   5.754 -0.8518  2.3281 -0.3939
  103OSM   H11B10337   4.244   4.323   5.705  0.7761  0.4008  0.9274
  103OSM      P10338   4.070   4.318   6.008  0.1374  0.0462  0.0946
  103OSM    O1310339   4.057   4.172   6.009  0.4054 -0.2628  0.0466
  103OSM    O1410340   4.102   4.394   6.131  0.1269  0.4769  0.4480
  103OSM    O1110341   3.937   4.382   5.950  0.0548 -0.6302  0.0452
  103OSM    O1210342   4.174   4.350   5.895 -0.0181 -0.0887  0.0167
  103OSM    C1S10343   3.928   4.516   5.898 -0.3295 -0.4226  0.4143
  103OSM    H1S10344   3.988   4.588   5.958  0.6550 -1.8532  1.1922
  103OSM    H1T10345   3.826   4.556   5.920  0.4112  0.3319  2.8242
  103OSM     NF10346   3.927   4.665   5.703 -0.1581 -0.0285 -0.0339
  103OSM    HNF10347   3.842   4.683   5.654  0.3662 -1.1179 -1.4152
  103OSM    C2S10348   3.952   4.526   5.742 -0.1965 -0.4390 -0.4004
  103OSM    H2S10349   4.059   4.502   5.726  0.0675 -0.7348  1.5020
  103OSM    C3S10350   3.859   4.424   5.666 -0.2871  0.4103 -0.5252
  103OSM    H3S10351   3.754   4.462   5.672 -0.2608  0.3737  0.4839
  103OSM     O310352   3.850   4.293   5.712  0.8597  0.1957 -0.9386
  103OSM    HO310353   3.917   4.292   5.780  0.1705 -0.1708 -0.2508
  103OSM    C4S10354   3.888   4.424   5.521  0.3755 -0.4560 -0.6580
  103OSM    H4S10355   3.992   4.390   5.506  0.6931  1.0941 -2.3720
  103OSM    C5S10356   3.807   4.459   5.412  0.2080  0.0958  0.3466
  103OSM    H5S10357   3.706   4.503   5.423 -0.4539 -0.8806 -1.3993
  103OSM    C6S10358   3.851   4.454   5.269  0.6072  0.0508 -0.1374
  103OSM    H6S10359   3.857   4.550   5.213 -2.5161  0.2883 -0.2232
  103OSM    H6T10360   3.765   4.402   5.222 -2.5082  2.3282  2.6139
  103OSM    C7S10361   3.988   4.389   5.238 -0.3454 -0.4465  0.5034
  103OSM    H7S10362   4.006   4.289   5.283  1.4680  0.1068  1.1449
  103OSM    H7T10363   4.056   4.461   5.289 -0.0542 -1.3420  1.4190
  103OSM    C8S10364   4.000   4.381   5.088  0.3728 -0.0212 -0.3201
  103OSM    H8S10365   3.997   4.483   5.044  0.3609  0.3364  0.4882
  103OSM    H8T10366   3.923   4.314   5.045 -1.7683  0.9404  1.7993
  103OSM    C9S10367   4.143   4.328   5.044 -0.3330  0.6314  0.1475
  103OSM    H9S10368   4.166   4.224   5.073 -0.0233  0.8865  0.8568
  103OSM    H9T10369   4.226   4.388   5.087  0.5677  2.6431 -3.9176
  103OSM   C10S10370   4.167   4.336   4.892  0.2266  0.0246 -0.5829
  103OSM   H10S10371   4.078   4.302   4.835  1.3549 -1.3971 -1.5792
  103OSM   H10T10372   4.244   4.260   4.865 -0.1349 -0.3652 -0.5367
  103OSM   C11S10373   4.202   4.473   4.838 -0.2342  0.4111  0.2629
  103OSM   H11S10374   4.292   4.514   4.890 -0.7677  0.5287  1.1195
  103OSM   H11T10375   4.113   4.539   4.849  0.0212  0.9900 -1.0538
  103OSM   C12S10376   4.233   4.461   4.688  0.5369  0.1670 -0.0674
  103OSM   H12S10377   4.157   4.399   4.636 -1.3944  0.8829  1.7369
  103OSM   H12T10378   4.329   4.405   4.680 -1.5511 -3.5470 -1.8530
  103OSM   C13S10379   4.258   4.589   4.612 -0.7605  0.2751  0.1603
  103OSM   H13S10380   4.306   4.665   4.678 -0.6077 -0.1408  0.5329
  103OSM   H13T10381   4.171   4.641   4.568 -0.3724  0.5419 -0.3004
  103OSM   C14S10382   4.344   4.566   4.490  0.1713 -0.4021 -0.2348
  103OSM   H14S10383   4.289   4.494   4.426 -1.2606  0.4483  0.0016
  103OSM   H14T10384   4.434   4.507   4.518  0.3663 -0.6302 -1.3070
  103OSM   C15S10385   4.379   4.691   4.403 -0.2156 -0.3270  0.9742
  103OSM   H15S10386   4.436   4.768   4.460 -0.1327  0.4169 -0.0843
  103OSM   H15T10387   4.288   4.743   4.365  0.4723 -1.4516 -2.5791
  103OSM   C16S10388   4.456   4.634   4.278  0.2375  0.3605 -0.6573
  103OSM   H16S10389   4.395   4.549   4.240  0.6334  0.3424 -1.2748
  103OSM   H16T10390   4.551   4.589   4.315 -0.5169 -1.5704 -0.9358
  103OSM   C17S10391   4.468   4.739   4.168 -0.6797 -0.0803  0.1347
  103OSM   H17S10392   4.364   4.759   4.137 -0.6044 -2.2046 -1.7755
  103OSM   H17T10393   4.516   4.696   4.077 -1.4318 -2.3687  0.7440
  103OSM   C18S10394   4.570   4.852   4.207  0.6654  0.1098 -0.1134
  103OSM   H18S10395   4.592   4.927   4.129 -0.8352  1.5556  0.7940
  103OSM   H18T10396   4.668   4.801   4.227  1.0468  0.3365 -1.3383
  103OSM   H18U10397   4.525   4.903   4.295 -1.7422 -2.0606  0.0121
  103OSM    C1F10398   4.009   4.772   5.725 -0.6318  0.9645 -0.2185
  103OSM     OF10399   4.095   4.758   5.816  0.3552  0.0612 -0.1962
  103OSM    C2F10400   3.985   4.896   5.641  0.0340  0.0473 -0.3098
  103OSM    H2F10401   4.003   4.990   5.698 -1.3286 -0.5503  1.1946
  103OSM    H2G10402   3.879   4.899   5.609 -0.0039  2.5688 -0.2029
  103OSM    C3F10403   4.071   4.896   5.508 -0.0521 -0.4322 -0.4859
  103OSM    H3F10404   4.181   4.900   5.526 -0.4652 -0.6236  2.3896
  103OSM    H3G10405   4.044   4.989   5.454  2.0322  0.8515  0.5660
  103OSM    C4F10406   4.037   4.778   5.399 -0.2462 -0.3886  0.8882
  103OSM    H4F10407   3.928   4.769   5.380  0.1759  0.0913 -2.2059
  103OSM    H4G10408   4.068   4.678   5.436  0.0528 -0.6521 -0.0587
  103OSM    C5F10409   4.107   4.790   5.261 -0.0656  0.9618 -0.4583
  103OSM    H5F10410   4.105   4.694   5.205  1.2956 -0.5056  1.8355
  103OSM    H5G10411   4.213   4.813   5.286 -0.5945  0.3456  2.7623
  103OSM    C6F10412   4.052   4.907   5.175 -0.1899  0.1447 -0.7124
  103OSM    H6F10413   4.019   4.993   5.237  0.2250  0.0230 -0.3188
  103OSM    H6G10414   3.969   4.869   5.111 -0.0906  0.8567 -1.2837
  103OSM    C7F10415   4.162   4.944   5.076  0.3418 -0.2745  0.7857
  103OSM    H7F10416   4.256   4.949   5.135  0.2829 -0.7174  0.9243
  103OSM    H7G10417   4.138   5.040   5.025  0.9758 -0.3263  0.3690
  103OSM    C8F10418   4.182   4.839   4.963  0.7877  0.4323  0.1132
  103OSM    H8F10419   4.083   4.830   4.912  0.7709  3.3284 -0.5288
  103OSM    H8G10420   4.212   4.742   5.009 -0.6290 -0.4395 -0.7257
  103OSM    C9F10421   4.288   4.876   4.869  0.4304 -0.9854 -0.5158
  103OSM    H9F10422   4.389   4.868   4.913 -0.7389  1.1349  3.0139
  103OSM   C10F10423   4.263   4.935   4.756 -0.6967 -0.1944  0.3178
  103OSM   H10F10424   4.355   4.962   4.701  0.8803 -1.2831  2.2795
  103OSM   C11F10425   4.128   4.948   4.692 -0.1817  0.0430  0.0293
  103OSM   H11F10426   4.065   5.026   4.741  1.5549  1.5662 -0.0678
  103OSM   H11G10427   4.063   4.858   4.693 -1.5976  1.0309  0.1840
  103OSM   C12F10428   4.141   4.985   4.541  0.3284 -0.4126  0.1898
  103OSM   H12F10429   4.052   4.955   4.483  0.3560  0.6004 -0.4051
  103OSM   H12G10430   4.223   4.930   4.490  1.1896  1.1204 -0.1531
  103OSM   C13F10431   4.168   5.131   4.509 -0.0536  0.0412 -0.0880
  103OSM   H13F10432   4.262   5.154   4.564 -0.7222  1.0175  0.6828
  103OSM   H13G10433   4.097   5.198   4.563 -0.2176  2.1760 -2.7565
  103OSM   C14F10434   4.152   5.164   4.368  0.5679 -0.4210 -0.1800
  103OSM   H14F10435   4.155   5.275   4.357 -0.5433 -0.3021  0.6193
  103OSM   H14G10436   4.052   5.139   4.329  1.0197 -1.2704 -0.8244
  103OSM   C15F10437   4.257   5.093   4.276 -0.6014 -0.5471  0.4004
  103OSM   H15F10438   4.232   4.985   4.273  2.0987 -1.2213 -0.0234
  103OSM   H15G10439   4.364   5.112   4.300 -0.8791  1.2103  0.4055
  103OSM   C16F10440   4.239   5.119   4.121  0.4029  0.3922  0.1140
  103OSM   H16F10441   4.133   5.097   4.097 -0.3724  0.7616  2.8858
  103OSM   H16G10442   4.296   5.043   4.062 -2.3128 -0.0760 -2.1513
  103OSM   C17F10443   4.255   5.267   4.068 -0.1072  0.3984 -0.2235
  103OSM   H17F10444   4.181   5.321   4.130 -0.4006 -1.4835  1.1476
  103OSM   H17G10445   4.227   5.264   3.961 -0.2209  1.8490 -0.2549
  103OSM   C18F10446   4.383   5.339   4.074 -0.5388 -0.4198  0.8524
  103OSM   H18F10447   4.466   5.279   4.031 -1.8644 -1.2063 -0.6847
  103OSM   H18G10448   4.403   5.377   4.176  1.8700 -1.7299  0.9428
  103OSM   H18H10449   4.375   5.428   4.008 -1.9949 -1.9066 -1.0908
  104OSM      N10450   4.804   3.246   6.319  0.0080 -0.4430  0.0508
  104OSM    C1510451   4.664   3.301   6.324 -0.2905  0.3166  0.4455
  104OSM   H15A10452   4.588   3.224   6.332 -1.2263  1.0057 -1.3356
  104OSM   H15B10453   4.641   3.351   6.231  0.5494 -1.2529 -0.6431
  104OSM   H15C10454   4.660   3.359   6.415  0.4025 -0.9384  1.3017
  104OSM    C1410455   4.906   3.354   6.336 -0.6468 -0.3882  0.4044
  104OSM   H14A10456   4.931   3.366   6.440  0.6365 -0.9775  0.1852
  104OSM   H14B10457   4.870   3.445   6.290  1.2546  0.8147  1.2022
  104OSM   H14C10458   4.994   3.331   6.278  0.6999  0.3811  2.0754
  104OSM    C1310459   4.813   3.155   6.435  0.3028 -0.0273 -0.7776
  104OSM   H13A10460   4.907   3.104   6.423  0.6192  0.2180  0.5905
  104OSM   H13B10461   4.732   3.084   6.430 -0.7815  0.9468  1.5573
  104OSM   H13C10462   4.803   3.205   6.530  1.2520  1.0146 -1.1906
  104OSM    C1210463   4.823   3.174   6.187  0.5169  0.4780 -0.7255
  104OSM   H12A10464   4.816   3.252   6.113 -2.4557  1.0986  0.0770
  104OSM   H12B10465   4.746   3.099   6.174 -0.7615  1.5202  0.4830
  104OSM    C1110466   4.961   3.111   6.156  0.4209 -0.7486 -0.2030
  104OSM   H11A10467   4.941   3.063   6.057  0.4866  1.9217 -1.6088
  104OSM   H11B10468   4.997   3.037   6.230  1.0535 -0.2048  0.0426
  104OSM      P10469   5.200   3.167   6.083  0.2261 -0.7361  0.1501
  104OSM    O1310470   5.286   3.290   6.075  0.3679 -0.2770  0.2526
  104OSM    O1410471   5.257   3.056   6.162  0.7363  0.1017  0.5619
  104OSM    O1110472   5.163   3.112   5.938  0.5025  0.1470  0.1848
  104OSM    O1210473   5.060   3.212   6.145  0.7797 -0.1561  0.7377
  104OSM    C1S10474   5.165   3.215   5.841  0.1981 -0.5502  0.4317
  104OSM    H1S10475   5.268   3.256   5.832 -0.1147  0.6390  1.8360
  104OSM    H1T10476   5.095   3.296   5.869  0.2818 -0.3908  0.1747
  104OSM     NF10477   5.143   3.286   5.602  0.3483 -0.0602 -0.3661
  104OSM    HNF10478   5.072   3.348   5.570  2.0406  0.7186 -2.9175
  104OSM    C2S10479   5.112   3.173   5.698 -0.3232 -0.3266  0.3783
  104OSM    H2S10480   5.166   3.080   5.668 -0.8175 -1.0476  1.6619
  104OSM    C3S10481   4.962   3.138   5.698 -0.1050 -0.0586 -0.8933
  104OSM    H3S10482   4.895   3.219   5.733 -2.7070 -1.5357 -2.1486
  104OSM     O310483   4.936   3.039   5.795 -0.5958 -0.4631  0.3900
  104OSM    HO310484   5.012   3.041   5.854  0.6442 -2.0549 -1.0661
  104OSM    C4S10485   4.913   3.090   5.565 -0.0026 -0.1812  0.4117
  104OSM    H4S10486   4.957   2.993   5.536 -2.4601 -1.0003 -0.8586
  104OSM    C5S10487   4.832   3.159   5.483 -0.2616  0.5887  0.1964
  104OSM    H5S10488   4.797   3.261   5.506  1.8903  1.0315  1.7926
  104OSM    C6S10489   4.800   3.110   5.350  0.4992  0.7040 -0.4099
  104OSM    H6S10490   4.715   3.164   5.303  1.3822  1.4656 -1.1862
  104OSM    H6T10491   4.763   3.006   5.366 -0.4972  1.0388 -0.4851
  104OSM    C7S10492   4.921   3.102   5.257  0.6303  0.2159 -0.2201
  104OSM    H7S10493   5.006   3.043   5.298  1.5010  1.0489 -0.7966
  104OSM    H7T10494   4.965   3.201   5.232 -0.2543  0.4640 -0.8630
  104OSM    C8S10495   4.884   3.024   5.127  0.3305  0.3687 -0.2791
  104OSM    H8S10496   4.789   3.066   5.086 -1.7415 -0.2939  3.3351
  104OSM    H8T10497   4.856   2.919   5.148  0.1280  0.2244 -1.2403
  104OSM    C9S10498   5.009   3.027   5.027  0.4216 -0.0669 -0.6488
  104OSM    H9S10499   5.094   2.993   5.090  0.1874  0.3464 -0.1029
  104OSM    H9T10500   5.025   3.126   4.979 -0.8238  1.0612  1.1144
  104OSM   C10S10501   4.987   2.917   4.915  0.0093  0.0889  0.3838
  104OSM   H10S10502   4.906   2.961   4.852  0.2498 -2.0823 -1.5469
  104OSM   H10T10503   4.955   2.830   4.977 -1.5684  1.0060  0.9268
  104OSM   C11S10504   5.106   2.882   4.823 -0.7958  0.6205 -0.4519
  104OSM   H11S10505   5.167   2.809   4.879  0.3843  2.6990  1.1067
  104OSM   H11T10506   5.167   2.971   4.797  0.2042 -0.8021 -3.4480
  104OSM   C12S10507   5.059   2.843   4.679 -0.0714  0.4154 -0.2916
  104OSM   H12S10508   5.006   2.923   4.625  1.7212  1.3804 -0.7143
  104OSM   H12T10509   4.971   2.778   4.697  0.9302 -0.4539  1.8748
  104OSM   C13S10510   5.173   2.763   4.601 -0.6993  0.0220  0.1389
  104OSM   H13S10511   5.143   2.741   4.496  0.4712 -2.5037  0.2549
  104OSM   H13T10512   5.199   2.666   4.650  0.2876 -0.8657 -2.0268
  104OSM   C14S10513   5.305   2.838   4.581  0.6395  0.5605 -0.2909
  104OSM   H14S10514   5.349   2.854   4.682 -1.0689 -0.9501  0.7639
  104OSM   H14T10515   5.291   2.937   4.531 -0.1177 -0.7149 -2.7836
  104OSM   C15S10516   5.419   2.759   4.501  0.2258  0.1873 -0.2858
  104OSM   H15S10517   5.381   2.740   4.398 -2.2979 -1.1975  0.8285
  104OSM   H15T10518   5.427   2.657   4.546 -0.9487  0.3469  0.3066
  104OSM   C16S10519   5.551   2.831   4.507  0.4435 -0.3003  0.5192
  104OSM   H16S10520   5.615   2.758   4.454 -2.2401 -0.4228 -2.9160
  104OSM   H16T10521   5.593   2.841   4.610  3.5786  2.1686 -0.8448
  104OSM   C17S10522   5.554   2.965   4.426 -0.4465 -0.0156 -0.3421
  104OSM   H17S10523   5.650   3.007   4.462 -0.3087  1.3340 -2.1199
  104OSM   H17T10524   5.475   3.038   4.455  0.1400  1.1692 -1.5871
  104OSM   C18S10525   5.545   2.957   4.273  0.3565  0.3186 -0.2525
  104OSM   H18S10526   5.600   2.865   4.244  0.4974  0.4967 -0.5462
  104OSM   H18T10527   5.586   3.049   4.226 -0.3861  1.5714  1.3995
  104OSM   H18U10528   5.436   2.949   4.254  0.1930  0.0857  0.6998
  104OSM    C1F10529   5.265   3.299   5.564  0.7623  0.4541  0.8517
  104OSM     OF10530   5.348   3.212   5.584  0.2004 -0.3921 -0.5564
  104OSM    C2F10531   5.291   3.425   5.494  0.4684  0.1165  0.5803
  104OSM    H2F10532   5.339   3.495   5.565 -1.0558  1.5650  0.2479
  104OSM    H2G10533   5.197   3.469   5.454  0.2284 -1.6194 -0.8946
  104OSM    C3F10534   5.381   3.390   5.382 -0.0818  0.5173  0.4375
  104OSM    H3F10535   5.347   3.301   5.326  0.3779 -0.0368  1.0185
  104OSM    H3G10536   5.476   3.349   5.423 -0.7220 -1.4355  0.0937
  104OSM    C4F10537   5.410   3.500   5.278  0.5114  0.0527  0.4023
  104OSM    H4F10538   5.465   3.447   5.196 -1.6185 -1.7409  0.0266
  104OSM    H4G10539   5.476   3.576   5.325  2.1175 -1.7302  1.1969
  104OSM    C5F10540   5.286   3.557   5.208  0.0397 -1.0398 -0.4974
  104OSM    H5F10541   5.326   3.630   5.134  0.1703  1.3450  1.7775
  104OSM    H5G10542   5.225   3.624   5.272  0.0822 -0.6964 -0.8112
  104OSM    C6F10543   5.205   3.443   5.145  0.4059 -0.5728  0.3052
  104OSM    H6F10544   5.153   3.371   5.211 -2.0155  0.8698  0.1192
  104OSM    H6G10545   5.263   3.377   5.077  2.0182  1.3224 -0.2728
  104OSM    C7F10546   5.099   3.494   5.050  0.1408 -0.9126  0.0124
  104OSM    H7F10547   5.153   3.556   4.975 -0.8910 -1.5413 -1.2912
  104OSM    H7G10548   5.042   3.575   5.100  2.6291  2.1025 -1.6481
  104OSM    C8F10549   5.017   3.390   4.971 -0.3493  0.6122  0.3228
  104OSM    H8F10550   4.950   3.342   5.046 -2.0106  2.7071  0.2660
  104OSM    H8G10551   5.090   3.323   4.921 -1.2971 -1.2547  1.2908
  104OSM    C9F10552   4.917   3.449   4.867 -0.0406 -0.7779 -1.4282
  104OSM    H9F10553   4.830   3.506   4.902  0.5981  0.5352 -1.8906
  104OSM   C10F10554   4.935   3.433   4.735 -0.0160 -0.3861  0.4582
  104OSM   H10F10555   4.849   3.464   4.674 -0.7731 -3.9557 -0.5092
  104OSM   C11F10556   5.046   3.365   4.657 -0.5665 -1.0094 -0.7809
  104OSM   H11F10557   5.132   3.336   4.722 -1.6846 -0.3635  1.0308
  104OSM   H11G10558   5.082   3.435   4.579 -0.9082  2.2912  1.8223
  104OSM   C12F10559   4.984   3.253   4.582  1.0316  0.2821  0.5667
  104OSM   H12F10560   4.907   3.284   4.507 -1.0435  1.0737  2.9088
  104OSM   H12G10561   4.930   3.187   4.652  2.3588 -0.5409  0.8418
  104OSM   C13F10562   5.090   3.163   4.520 -0.1439  0.4587 -0.3262
  104OSM   H13F10563   5.046   3.077   4.465 -0.8425  1.3568 -1.2069
  104OSM   H13G10564   5.145   3.116   4.604  1.2749  2.9121  0.2281
  104OSM   C14F10565   5.202   3.228   4.447 -0.0288 -0.7629 -0.5403
  104OSM   H14F10566   5.269   3.146   4.415  0.1386 -1.5397  1.5945
  104OSM   H14G10567   5.270   3.289   4.510  1.4309 -1.8952 -0.9787
  104OSM   C15F10568   5.163   3.298   4.315 -0.8234  0.1409 -0.1937
  104OSM   H15F10569   5.122   3.398   4.341  0.4761  0.7563 -0.4125
  104OSM   H15G10570   5.086   3.231   4.272 -0.7027 -0.2195  0.1370
  104OSM   C16F10571   5.273   3.294   4.207 -0.1684 -0.3750 -0.4199
  104OSM   H16F10572   5.245   3.347   4.114  0.9502 -1.7824 -1.6073
  104OSM   H16G10573   5.286   3.189   4.173  2.8923  0.2122 -1.3046
  104OSM   C17F10574   5.415   3.354   4.250 -0.7622 -0.8852 -0.1671
  104OSM   H17F10575   5.462   3.282   4.320 -1.1756 -0.6919  0.3241
  104OSM   H17G10576   5.389   3.448   4.304  0.9995 -1.3362  1.6022
  104OSM   C18F10577   5.509   3.390   4.136 -0.0431 -0.3333  0.3771
  104OSM   H18F10578   5.554   3.306   4.079 -1.4381 -0.3141 -0.8158
  104OSM   H18G10579   5.595   3.446   4.178  1.3307  0.2326 -2.8391
  104OSM   H18H10580   5.463   3.460   4.063 -1.0495 -1.3365  0.0290
  105OSM      N10581   5.172   3.952   6.047 -0.6009  0.1811  0.2087
  105OSM    C1510582   5.105   3.821   6.071 -0.8497 -0.2669 -0.1637
  105OSM   H15A10583   5.021   3.804   6.005 -0.6467 -1.0268 -0.2307
  105OSM   H15B10584   5.073   3.813   6.173 -2.2140  0.3168 -0.5283
  105OSM   H15C10585   5.167   3.735   6.051 -0.9420  0.0328 -2.0064
  105OSM    C1410586   5.300   3.956   6.117 -0.2551 -0.1660  0.0755
  105OSM   H14A10587   5.367   3.878   6.085 -0.1652  1.0126 -2.9337
  105OSM   H14B10588   5.281   3.950   6.223 -1.6717 -1.5396 -0.2218
  105OSM   H14C10589   5.350   4.044   6.078 -0.8290 -0.3966 -1.2203
  105OSM    C1310590   5.204   3.968   5.901  0.0872  0.2196  0.3656
  105OSM   H13A10591   5.291   3.913   5.868 -1.0409 -0.6369 -1.3573
  105OSM   H13B10592   5.213   4.074   5.882  1.0039  0.3211  1.2738
  105OSM   H13C10593   5.122   3.935   5.839  1.6004 -1.3807 -0.8859
  105OSM    C1210594   5.076   4.060   6.102  0.4258 -0.1747  0.3572
  105OSM   H12A10595   5.051   4.043   6.206  0.1814  0.4909  0.4155
  105OSM   H12B10596   4.980   4.048   6.054  0.1102  1.1908  0.5974
  105OSM    C1110597   5.105   4.207   6.073 -0.8836 -0.0419 -0.2872
  105OSM   H11A10598   5.213   4.216   6.098 -0.5604 -0.9316 -1.2760
  105OSM   H11B10599   5.042   4.274   6.136  0.6082  2.5436 -1.3699
  105OSM      P10600   4.945   4.239   5.862  0.2012  0.2804  0.2694
  105OSM    O1310601   4.948   4.140   5.754  0.6436 -0.1598  0.4727
  105OSM    O1410602   4.827   4.232   5.958 -0.2172 -0.1306  0.2082
  105OSM    O1110603   4.937   4.378   5.801 -0.2302 -0.4290  0.6412
  105OSM    O1210604   5.081   4.244   5.936 -0.0392 -0.0957  0.1144
  105OSM    C1S10605   5.029   4.408   5.697  0.1960 -0.0274 -0.3265
  105OSM    H1S10606   5.127   4.355   5.695 -1.0694 -2.5444 -0.9311
  105OSM    H1T10607   5.050   4.515   5.715  1.4567 -0.7948  3.8029
  105OSM     NF10608   5.067   4.414   5.448 -0.2590  0.7794  0.7557
  105OSM    HNF10609   5.068   4.510   5.420  2.3856  1.0002  1.3460
  105OSM    C2S10610   4.969   4.394   5.553 -0.5970  0.1207  0.4787
  105OSM    H2S10611   4.924   4.299   5.518 -1.7506  2.1331 -4.3875
  105OSM    C3S10612   4.855   4.501   5.544 -0.4589  0.2752 -0.4062
  105OSM    H3S10613   4.897   4.602   5.558 -0.6629  0.2825  0.1682
  105OSM     O310614   4.759   4.493   5.648 -0.2959 -0.1812  0.0662
  105OSM    HO310615   4.800   4.450   5.723  1.5862 -0.7469 -1.2206
  105OSM    C4S10616   4.778   4.500   5.412  0.4958  0.4331  0.1571
  105OSM    H4S10617   4.744   4.399   5.384  1.1678  0.2300  0.0484
  105OSM    C5S10618   4.760   4.609   5.325  0.3039  0.5579  0.0998
  105OSM    H5S10619   4.797   4.706   5.362 -0.3363  0.7658  0.2017
  105OSM    C6S10620   4.697   4.602   5.187  0.9657 -0.5315 -0.1459
  105OSM    H6S10621   4.768   4.638   5.110  0.4909  0.9156  0.0725
  105OSM    H6T10622   4.618   4.679   5.196  3.4785  2.2587 -0.7244
  105OSM    C7S10623   4.643   4.474   5.131 -0.3420  0.6873 -0.2860
  105OSM    H7S10624   4.559   4.432   5.190 -0.5264  0.0995 -0.9633
  105OSM    H7T10625   4.714   4.389   5.126  0.6343  1.1446  2.9753
  105OSM    C8S10626   4.590   4.483   4.988 -0.0046 -0.8451 -0.2743
  105OSM    H8S10627   4.654   4.548   4.925  0.2892 -0.6853  0.1770
  105OSM    H8T10628   4.497   4.543   4.984  0.4595 -0.1991 -2.1693
  105OSM    C9S10629   4.559   4.348   4.926 -0.4497 -1.1726 -0.5246
  105OSM    H9S10630   4.504   4.367   4.832  1.5074  0.5647 -1.3850
  105OSM    H9T10631   4.499   4.279   4.989  2.0505 -2.7328  0.3147
  105OSM   C10S10632   4.685   4.267   4.892 -0.2342  0.0293 -0.0710
  105OSM   H10S10633   4.669   4.173   4.836 -2.1489  0.1235  0.2460
  105OSM   H10T10634   4.734   4.223   4.983  1.9195  2.3820  0.0183
  105OSM   C11S10635   4.793   4.331   4.799  0.0970  0.0721  0.5729
  105OSM   H11S10636   4.869   4.257   4.766 -0.1598  0.4121 -0.8532
  105OSM   H11T10637   4.844   4.416   4.848  1.7094  2.1730 -4.1836
  105OSM   C12S10638   4.750   4.388   4.659 -0.1888  0.0978  0.1712
  105OSM   H12S10639   4.687   4.476   4.685  1.7744  1.2367  1.3567
  105OSM   H12T10640   4.694   4.313   4.599  2.0286 -0.6441 -1.0666
  105OSM   C13S10641   4.881   4.427   4.583 -0.7261  0.2430  0.1520
  105OSM   H13S10642   4.932   4.333   4.554 -0.4102 -0.1327  1.8127
  105OSM   H13T10643   4.946   4.489   4.649  0.5655  0.6688 -1.4631
  105OSM   C14S10644   4.855   4.509   4.457 -0.2096  0.1357  0.1990
  105OSM   H14S10645   4.781   4.591   4.467 -1.3353 -0.8023 -0.2403
  105OSM   H14T10646   4.822   4.439   4.378  2.5535 -0.3579 -0.6228
  105OSM   C15S10647   4.989   4.557   4.409 -0.7158  0.8464  0.2984
  105OSM   H15S10648   5.032   4.464   4.367 -0.2170  2.0917 -2.0768
  105OSM   H15T10649   5.056   4.601   4.486  1.9744 -0.3603 -1.2494
  105OSM   C16S10650   4.953   4.659   4.294 -0.0784  0.6923  0.2595
  105OSM   H16S10651   4.922   4.755   4.340  0.0395  0.7665  0.1833
  105OSM   H16T10652   4.873   4.623   4.226  2.0092  0.4698 -2.2154
  105OSM   C17S10653   5.075   4.698   4.202 -0.1390 -0.4982 -0.3894
  105OSM   H17S10654   5.143   4.609   4.195 -0.0442 -0.3773 -1.0744
  105OSM   H17T10655   5.139   4.769   4.257 -1.7723  1.0724 -0.4544
  105OSM   C18S10656   5.034   4.750   4.059  0.1900 -0.0847 -0.7935
  105OSM   H18S10657   4.982   4.847   4.073 -0.3108 -0.5446  0.6616
  105OSM   H18T10658   4.976   4.674   4.002  0.4014 -1.3036  0.5726
  105OSM   H18U10659   5.121   4.773   3.994 -1.6694  1.2648 -2.9463
  105OSM    C1F10660   5.167   4.329   5.435  1.1166 -0.2823 -0.1691
  105OSM     OF10661   5.178   4.226   5.497 -0.4232  0.0254 -0.1548
  105OSM    C2F10662   5.272   4.362   5.331  0.6145 -0.2507  0.2750
  105OSM    H2F10663   5.332   4.269   5.312 -0.2984 -0.7221 -0.4015
  105OSM    H2G10664   5.337   4.437   5.380 -0.1682  0.4246  0.2831
  105OSM    C3F10665   5.216   4.421   5.198 -0.6077 -0.0981 -0.6407
  105OSM    H3F10666   5.290   4.470   5.132 -0.2807  1.1404  0.6041
  105OSM    H3G10667   5.147   4.503   5.228  1.2535  1.4302 -0.3861
  105OSM    C4F10668   5.132   4.329   5.106  0.3949  0.0881 -0.0197
  105OSM    H4F10669   5.035   4.324   5.159  1.6327  1.8107  2.6583
  105OSM    H4G10670   5.170   4.225   5.104 -1.2274 -0.5237 -0.0797
  105OSM    C5F10671   5.102   4.398   4.971 -0.1706 -0.6483 -0.1119
  105OSM    H5F10672   5.080   4.507   4.981 -1.9050 -0.8183 -1.6081
  105OSM    H5G10673   5.016   4.343   4.929 -0.7829  0.7761 -0.8097
  105OSM    C6F10674   5.219   4.382   4.878  0.7308 -0.1691  0.4406
  105OSM    H6F10675   5.247   4.275   4.877 -4.9429 -2.0277 -2.8631
  105OSM    H6G10676   5.310   4.444   4.895  0.5368  0.1508  0.3443
  105OSM    C7F10677   5.179   4.411   4.728  0.5722  0.0992 -0.0337
  105OSM    H7F10678   5.137   4.513   4.737  1.2584  0.2786  1.5783
  105OSM    H7G10679   5.095   4.349   4.691  0.8607  0.6448 -1.6609
  105OSM    C8F10680   5.298   4.406   4.629  0.0219  0.1765 -0.1317
  105OSM    H8F10681   5.387   4.457   4.672  1.5333 -2.8444  0.6730
  105OSM    H8G10682   5.258   4.470   4.548 -2.4829 -0.8491  0.2125
  105OSM    C9F10683   5.347   4.269   4.585 -0.3575  0.2971  0.2267
  105OSM    H9F10684   5.334   4.188   4.658  0.4671 -0.6672 -0.6584
  105OSM   C10F10685   5.368   4.230   4.456 -0.1887 -0.1267  0.0454
  105OSM   H10F10686   5.399   4.126   4.434  0.0888 -0.0214 -0.0628
  105OSM   C11F10687   5.353   4.318   4.332  0.0424  0.6235  0.1070
  105OSM   H11F10688   5.451   4.328   4.283  0.5621 -1.5614  0.6068
  105OSM   H11G10689   5.334   4.424   4.361 -0.8649  0.4651  0.1381
  105OSM   C12F10690   5.251   4.266   4.228 -0.6946 -0.5584 -0.8914
  105OSM   H12F10691   5.266   4.324   4.134  0.4095  1.5925  0.5183
  105OSM   H12G10692   5.150   4.282   4.271 -0.9772 -2.9194 -0.5733
  105OSM   C13F10693   5.255   4.115   4.193  0.3330 -0.9547 -0.4708
  105OSM   H13F10694   5.209   4.056   4.276 -1.4044  0.5199 -0.3234
  105OSM   H13G10695   5.361   4.081   4.190  0.5685 -0.5496  1.6122
  105OSM   C14F10696   5.169   4.089   4.067 -0.2004 -0.0178  0.5661
  105OSM   H14F10697   5.244   4.105   3.987 -0.8795  4.3497  0.5462
  105OSM   H14G10698   5.095   4.173   4.065  0.9176  0.9920 -1.8365
  105OSM   C15F10699   5.113   3.944   4.062 -0.2459  0.8622 -0.2137
  105OSM   H15F10700   5.062   3.925   3.965  2.1733 -0.3915 -1.3299
  105OSM   H15G10701   5.054   3.924   4.154  2.1386  1.1903  1.5125
  105OSM   C16F10702   5.234   3.847   4.049  0.0487  0.2537  0.0409
  105OSM   H16F10703   5.301   3.856   4.138  0.0805 -0.8644  0.1420
  105OSM   H16G10704   5.294   3.874   3.960  1.5606  0.4805  1.0829
  105OSM   C17F10705   5.198   3.694   4.033 -0.2744  0.1676  0.7708
  105OSM   H17F10706   5.290   3.635   4.014  0.4742  0.9191  1.9883
  105OSM   H17G10707   5.129   3.680   3.947  1.4123 -0.5799 -0.5148
  105OSM   C18F10708   5.127   3.644   4.159 -0.3359 -0.1839  0.3307
  105OSM   H18F10709   5.192   3.640   4.248 -1.8457  2.2042  1.6544
  105OSM   H18G10710   5.080   3.545   4.140  1.4571 -0.6422 -2.3891
  105OSM   H18H10711   5.049   3.721   4.177 -0.7414 -0.7584  1.0965
  106OSM      N10712   3.547   0.822   6.095 -0.5889 -0.4452  0.0688
  106OSM    C1510713   3.547   0.721   6.208 -0.1152  0.2713 -0.2308
  106OSM   H15A10714   3.484   0.754   6.290 -0.2262 -0.1905 -0.1234
  106OSM   H15B10715   3.646   0.687   6.235  0.1072 -0.5385 -1.9116
  106OSM   H15C10716   3.504   0.632   6.164  0.0861  0.8447 -1.6226
  106OSM    C1410717   3.410   0.880   6.087  0.0268  0.0768  0.4424
  106OSM   H14A10718   3.383   0.926   6.181 -0.5430 -0.4944  0.5614
  106OSM   H14B10719   3.340   0.801   6.062  1.1820 -0.6835 -0.5258
  106OSM   H14C10720   3.408   0.962   6.017 -1.4872  0.2445  0.6433
  106OSM    C1310721   3.633   0.937   6.133  0.0665  0.4146  0.5988
  106OSM   H13A10722   3.627   1.014   6.058  0.2374 -0.5579 -0.4449
  106OSM   H13B10723   3.736   0.909   6.148  1.0992  2.9532 -1.1204
  106OSM   H13C10724   3.594   0.961   6.231 -1.6289  0.3446 -0.0216
  106OSM    C1210725   3.598   0.766   5.969  0.4723  0.5309 -0.1007
  106OSM   H12A10726   3.595   0.847   5.898 -0.0202  1.3833  0.8679
  106OSM   H12B10727   3.517   0.700   5.938  0.1862 -0.3472  2.2648
  106OSM    C1110728   3.739   0.708   5.960  0.0271 -0.2893 -0.6778
  106OSM   H11A10729   3.754   0.642   5.871  1.8196 -2.0513  0.8398
  106OSM   H11B10730   3.745   0.638   6.046 -2.1121  0.8791  0.5079
  106OSM      P10731   3.861   0.914   5.857  0.3970 -0.1224  0.0166
  106OSM    O1310732   3.912   1.030   5.934  0.0318 -0.2945  0.1172
  106OSM    O1410733   3.957   0.861   5.753  0.2535 -0.4951  0.7040
  106OSM    O1110734   3.715   0.940   5.790 -0.0531 -0.2268  0.1540
  106OSM    O1210735   3.839   0.810   5.966  0.1377 -0.2660  0.1630
  106OSM    C1S10736   3.716   1.013   5.668 -0.4942 -0.6197  0.4285
  106OSM    H1S10737   3.805   0.993   5.604 -0.4376 -2.4495  1.0118
  106OSM    H1T10738   3.714   1.120   5.698  1.7315 -0.6356  0.8119
  106OSM     NF10739   3.599   0.998   5.455  0.4746  0.5621  0.1292
  106OSM    HNF10740   3.547   1.080   5.432 -0.5239  0.2772  1.2481
  106OSM    C2S10741   3.590   0.972   5.591 -0.6883 -0.7453 -0.3673
  106OSM    H2S10742   3.578   0.862   5.605  1.7405 -0.9312  0.8019
  106OSM    C3S10743   3.468   1.038   5.658  0.7107 -0.4549  0.2547
  106OSM    H3S10744   3.483   1.148   5.653 -0.0704 -0.3705 -3.0937
  106OSM     O310745   3.454   1.002   5.789 -0.1221  1.1530 -0.4483
  106OSM    HO310746   3.541   0.971   5.816  0.0810  0.8660 -1.3911
  106OSM    C4S10747   3.339   0.997   5.587  0.4466 -0.2812 -0.1069
  106OSM    H4S10748   3.343   0.895   5.548  0.0657 -0.2991 -0.1065
  106OSM    C5S10749   3.244   1.090   5.555 -0.9721 -0.4028  0.6138
  106OSM    H5S10750   3.264   1.191   5.594  1.6835  0.4299 -2.4238
  106OSM    C6S10751   3.123   1.059   5.473 -0.3160  0.9372  0.1389
  106OSM    H6S10752   3.086   1.153   5.428 -3.5103 -0.3618 -0.1653
  106OSM    H6T10753   3.046   1.014   5.540 -0.5061  1.2768  0.1494
  106OSM    C7S10754   3.144   0.969   5.349  0.0009  0.4585 -0.5348
  106OSM    H7S10755   3.046   0.925   5.321 -0.0548  1.5977 -2.3090
  106OSM    H7T10756   3.201   0.877   5.374 -0.1139  0.2595 -1.0048
  106OSM    C8S10757   3.199   1.054   5.228 -0.3810  0.3501 -0.5523
  106OSM    H8S10758   3.303   1.089   5.249 -0.4886  1.3755 -1.6008
  106OSM    H8T10759   3.144   1.150   5.218  2.4265  1.9871 -1.6650
  106OSM    C9S10760   3.193   0.989   5.091  0.6010 -0.0806 -0.5018
  106OSM    H9S10761   3.087   0.977   5.059  0.6129 -0.4448 -0.4016
  106OSM    H9T10762   3.227   0.884   5.096 -0.4205 -0.3455  3.0975
  106OSM   C10S10763   3.270   1.066   4.986 -0.9459  0.2220 -0.7798
  106OSM   H10S10764   3.380   1.054   4.999 -1.1106  0.6064  1.3341
  106OSM   H10T10765   3.252   1.176   4.990  0.2998  0.4518 -0.8483
  106OSM   C11S10766   3.249   1.021   4.842 -0.1365 -0.2864  0.4959
  106OSM   H11S10767   3.146   1.048   4.811  0.7717  2.4759 -0.3351
  106OSM   H11T10768   3.259   0.910   4.843 -0.2752 -0.3470 -1.5300
  106OSM   C12S10769   3.342   1.089   4.741 -0.0490  0.7220 -0.2774
  106OSM   H12S10770   3.447   1.065   4.768  0.1137 -0.4986 -1.8789
  106OSM   H12T10771   3.339   1.200   4.742  1.0412  0.7736 -1.0590
  106OSM   C13S10772   3.302   1.039   4.599  0.4345 -0.2498 -0.6725
  106OSM   H13S10773   3.314   1.124   4.528  0.9402 -2.1160 -2.9507
  106OSM   H13T10774   3.193   1.020   4.601  0.9232 -3.6149  1.8764
  106OSM   C14S10775   3.380   0.922   4.542  0.1815  0.0917 -0.9009
  106OSM   H14S10776   3.346   0.839   4.607 -2.7740  2.1229  0.3592
  106OSM   H14T10777   3.488   0.924   4.569 -0.1769  0.6763  0.6170
  106OSM   C15S10778   3.349   0.901   4.398 -0.3492  0.1770 -0.4216
  106OSM   H15S10779   3.381   0.992   4.343 -1.4225  1.7769  1.4652
  106OSM   H15T10780   3.239   0.881   4.394  0.0259 -2.1904 -0.3337
  106OSM   C16S10781   3.416   0.781   4.345 -0.6192  0.2814 -0.2908
  106OSM   H16S10782   3.403   0.698   4.417  2.9354  0.9561  1.2989
  106OSM   H16T10783   3.527   0.789   4.349 -0.6922  0.8225  2.4036
  106OSM   C17S10784   3.354   0.725   4.215 -0.6351  0.3956 -0.7121
  106OSM   H17S10785   3.357   0.802   4.135 -3.7359 -0.3992 -1.7312
  106OSM   H17T10786   3.247   0.707   4.237 -0.7059  1.8281  0.3257
  106OSM   C18S10787   3.419   0.594   4.166 -1.0122 -0.0813 -0.1855
  106OSM   H18S10788   3.346   0.545   4.097 -0.9430  0.5314 -0.7029
  106OSM   H18T10789   3.441   0.520   4.246  1.9304  0.5315 -0.3428
  106OSM   H18U10790   3.512   0.621   4.111  0.3390  0.7068  2.3323
  106OSM    C1F10791   3.684   0.937   5.375  0.2445 -0.1188 -0.1747
  106OSM     OF10792   3.757   0.845   5.411  0.3991 -0.3150  0.4198
  106OSM    C2F10793   3.668   0.985   5.233  0.2102  0.1858  0.9550
  106OSM    H2F10794   3.710   1.088   5.225  2.0328 -0.4314  1.9597
  106OSM    H2G10795   3.561   0.987   5.205  0.8182 -0.3960 -1.6803
  106OSM    C3F10796   3.745   0.900   5.132 -0.3966  0.5407 -0.1362
  106OSM    H3F10797   3.702   0.798   5.137  0.4147  0.2227  0.5215
  106OSM    H3G10798   3.854   0.892   5.151 -0.3449  1.7674  0.1926
  106OSM    C4F10799   3.724   0.958   4.989 -0.9637 -0.3570 -0.3253
  106OSM    H4F10800   3.784   1.051   4.987 -0.3369 -0.7594 -1.6996
  106OSM    H4G10801   3.614   0.967   4.986 -0.8675  0.4934 -2.7224
  106OSM    C5F10802   3.771   0.855   4.875  0.1162  0.2237 -0.1946
  106OSM    H5F10803   3.720   0.760   4.903 -0.9770  0.8523  0.0047
  106OSM    H5G10804   3.881   0.841   4.866  0.0733  0.9191 -2.1805
  106OSM    C6F10805   3.728   0.899   4.737  0.3993 -0.3361 -0.3177
  106OSM    H6F10806   3.617   0.909   4.746  0.4654  0.4404 -0.3563
  106OSM    H6G10807   3.751   0.813   4.669 -1.3620 -0.5229 -0.7458
  106OSM    C7F10808   3.810   1.017   4.686 -0.4697 -0.6947  0.3961
  106OSM    H7F10809   3.919   0.993   4.679 -0.1328  1.1338 -2.1259
  106OSM    H7G10810   3.800   1.101   4.758 -0.1840  0.8129 -1.2570
  106OSM    C8F10811   3.779   1.079   4.539  0.5466 -0.2093 -1.0551
  106OSM    H8F10812   3.848   1.163   4.517 -0.2948  0.2742 -1.9296
  106OSM    H8G10813   3.677   1.123   4.548  0.7034 -0.2895  3.3396
  106OSM    C9F10814   3.786   0.977   4.429  0.4407 -0.7002  0.5448
  106OSM    H9F10815   3.715   0.893   4.439  2.8464 -2.6569  2.4713
  106OSM   C10F10816   3.859   0.985   4.316  0.1136  0.1062  0.0743
  106OSM   H10F10817   3.823   0.909   4.244  0.4765 -0.3983  0.4213
  106OSM   C11F10818   3.949   1.091   4.265  0.7000  0.3408  0.2701
  106OSM   H11F10819   4.050   1.057   4.234  2.3220  1.1610  4.0652
  106OSM   H11G10820   3.958   1.173   4.340  0.8752  0.8864 -0.3433
  106OSM   C12F10821   3.882   1.151   4.141  1.2474  0.5811  0.4229
  106OSM   H12F10822   3.789   1.198   4.180  0.6416 -1.9659  2.3750
  106OSM   H12G10823   3.847   1.079   4.064  0.9353  1.9578 -0.7424
  106OSM   C13F10824   3.973   1.244   4.067 -0.1262 -0.0543  0.5279
  106OSM   H13F10825   4.065   1.188   4.040 -1.9409 -1.8693 -2.4169
  106OSM   H13G10826   4.005   1.334   4.124  2.2467  0.4630 -1.4315
  106OSM   C14F10827   3.902   1.297   3.937 -0.3940  1.0759 -0.8842
  106OSM   H14F10828   3.822   1.354   3.989  1.2309  2.0132  0.7072
  106OSM   H14G10829   3.860   1.209   3.883  2.1791 -1.4573  0.9709
  106OSM   C15F10830   3.981   1.392   3.850 -0.3795  0.3242  0.6286
  106OSM   H15F10831   4.070   1.343   3.805 -0.1207 -0.1022  1.5736
  106OSM   H15G10832   4.037   1.468   3.909  2.0105  1.1746 -2.4304
  106OSM   C16F10833   3.892   1.463   3.745 -0.9081 -0.7459 -0.3514
  106OSM   H16F10834   3.954   1.542   3.699 -1.0305 -0.4978 -0.0895
  106OSM   H16G10835   3.807   1.514   3.793  0.1098  1.6886 -1.0073
  106OSM   C17F10836   3.858   1.371   3.636 -0.0949  0.5382 -0.3427
  106OSM   H17F10837   3.790   1.292   3.675 -0.6146  0.2100 -1.8682
  106OSM   H17G10838   3.949   1.312   3.612 -0.3358 -0.2140  0.4923
  106OSM   C18F10839   3.808   1.446   3.511  0.5076 -0.3218  0.0636
  106OSM   H18F10840   3.850   1.547   3.495 -2.9464  1.5399  1.4996
  106OSM   H18G10841   3.697   1.451   3.524  0.5846 -1.2795  1.3845
  106OSM   H18H10842   3.816   1.389   3.416 -0.1508  0.8785 -0.7352
  107OSM      N10843   4.051   6.759   6.222  1.1595  0.0604  0.1801
  107OSM    C1510844   4.167   6.827   6.158  0.3465 -0.5720  0.2396
  107OSM   H15A10845   4.196   6.915   6.214  1.0299  1.2643 -2.7810
  107OSM   H15B10846   4.128   6.877   6.071 -3.6107 -1.1458  1.5044
  107OSM   H15C10847   4.240   6.765   6.109 -0.2834 -0.0093 -1.4838
  107OSM    C1410848   4.102   6.666   6.329  0.2132 -0.4468  0.2608
  107OSM   H14A10849   4.145   6.727   6.407  0.9266 -2.4413  1.4961
  107OSM   H14B10850   4.167   6.591   6.287 -1.1948 -0.9020 -1.1866
  107OSM   H14C10851   4.018   6.610   6.366  0.4137 -2.6180 -2.2951
  107OSM    C1310852   3.965   6.863   6.295 -0.3030  0.5149 -0.0381
  107OSM   H13A10853   3.931   6.944   6.232 -0.2462  1.1684  0.7592
  107OSM   H13B10854   4.026   6.901   6.376  0.8709 -3.9561  1.5038
  107OSM   H13C10855   3.881   6.812   6.340  0.2964 -2.6882 -2.2082
  107OSM    C1210856   3.971   6.679   6.123  0.3631 -0.5561  0.4281
  107OSM   H12A10857   3.900   6.742   6.072  0.6442  0.0239  0.7422
  107OSM   H12B10858   3.906   6.611   6.175 -0.5095 -0.1688 -0.1260
  107OSM    C1110859   4.039   6.580   6.022  0.3619 -0.4898 -0.1326
  107OSM   H11A10860   4.115   6.624   5.954  2.1786 -1.0143  1.4737
  107OSM   H11B10861   3.956   6.539   5.959  0.3879 -0.0035 -0.4892
  107OSM      P10862   4.029   6.340   6.132  0.3922 -0.1973  0.1303
  107OSM    O1310863   4.119   6.243   6.194 -1.0080  0.2504 -0.3294
  107OSM    O1410864   3.908   6.373   6.212 -0.5907 -0.1174 -0.4426
  107OSM    O1110865   3.988   6.284   5.993  0.1231 -0.2380 -0.0594
  107OSM    O1210866   4.101   6.478   6.096 -0.2140  0.2385  0.8213
  107OSM    C1S10867   4.094   6.280   5.892  0.6045  0.1221  0.1360
  107OSM    H1S10868   4.177   6.217   5.929  2.5455  2.1006 -0.5782
  107OSM    H1T10869   4.145   6.378   5.875  2.0345 -0.8429 -1.5272
  107OSM     NF10870   4.163   6.250   5.669 -0.1369  0.5418  0.6441
  107OSM    HNF10871   4.185   6.342   5.637 -1.4412  0.7199  0.1889
  107OSM    C2S10872   4.046   6.239   5.750  0.8650  0.1805  0.3375
  107OSM    H2S10873   4.011   6.134   5.744  1.8226 -0.1814  0.9079
  107OSM    C3S10874   3.929   6.335   5.698 -0.0949 -0.2049  0.7089
  107OSM    H3S10875   3.962   6.440   5.714 -0.3928 -0.0466  0.2909
  107OSM     O310876   3.818   6.337   5.784 -0.0163 -0.3907  0.0347
  107OSM    HO310877   3.864   6.301   5.860  1.2292  1.0798  0.0337
  107OSM    C4S10878   3.897   6.309   5.553  0.2507  0.6642  0.3201
  107OSM    H4S10879   3.956   6.351   5.470 -0.2688 -2.6898 -1.9451
  107OSM    C5S10880   3.803   6.225   5.522  0.8762  0.2613 -0.1642
  107OSM    H5S10881   3.743   6.184   5.605  0.7009  0.7303 -0.0566
  107OSM    C6S10882   3.750   6.188   5.381  0.0972  0.2926 -0.3927
  107OSM    H6S10883   3.681   6.102   5.391  2.0319 -1.6006 -2.1993
  107OSM    H6T10884   3.841   6.170   5.319  0.7167 -0.7631  0.7677
  107OSM    C7S10885   3.672   6.304   5.317  0.0045  0.1605 -0.1725
  107OSM    H7S10886   3.738   6.390   5.297 -1.6912  1.1016 -2.0835
  107OSM    H7T10887   3.593   6.340   5.386 -0.3156 -1.0797  0.1393
  107OSM    C8S10888   3.607   6.268   5.185 -0.6495  0.0544  0.5559
  107OSM    H8S10889   3.518   6.205   5.208  0.4607 -2.2905 -1.1734
  107OSM    H8T10890   3.671   6.195   5.132 -2.5181  0.1822 -2.0370
  107OSM    C9S10891   3.578   6.387   5.094 -0.4332  0.1836  0.0158
  107OSM    H9S10892   3.674   6.439   5.071 -1.5237  2.0630 -0.5604
  107OSM    H9T10893   3.512   6.447   5.161 -0.8013 -2.1496  1.8550
  107OSM   C10S10894   3.510   6.350   4.964 -0.7384 -0.4550 -0.5850
  107OSM   H10S10895   3.403   6.349   4.995 -1.0071  1.6256 -1.3220
  107OSM   H10T10896   3.543   6.253   4.920  2.3188 -0.1922  0.8934
  107OSM   C11S10897   3.522   6.454   4.860 -0.1908  0.2398 -0.4273
  107OSM   H11S10898   3.500   6.551   4.910  1.4621 -1.3509  3.8817
  107OSM   H11T10899   3.447   6.432   4.781  0.3640  0.9735 -1.1684
  107OSM   C12S10900   3.662   6.457   4.797  0.8863  0.4640 -0.2529
  107OSM   H12S10901   3.679   6.353   4.763 -0.2383  0.1699  0.0568
  107OSM   H12T10902   3.743   6.486   4.867  1.6244  0.1538 -0.9605
  107OSM   C13S10903   3.672   6.556   4.682 -0.2829  0.0266 -0.6995
  107OSM   H13S10904   3.668   6.660   4.720  0.4525 -0.2292  0.1144
  107OSM   H13T10905   3.589   6.533   4.612 -1.8476  0.2448  1.0175
  107OSM   C14S10906   3.801   6.536   4.593  0.2012 -0.1693 -0.5646
  107OSM   H14S10907   3.822   6.430   4.570  0.1255 -0.3882  0.3390
  107OSM   H14T10908   3.885   6.571   4.657 -0.4149  0.5373 -0.1241
  107OSM   C15S10909   3.797   6.607   4.453 -0.6193  0.2033  0.7211
  107OSM   H15S10910   3.896   6.635   4.412 -1.3192 -0.0792 -1.2961
  107OSM   H15T10911   3.749   6.706   4.470  0.2585  0.5655  1.1446
  107OSM   C16S10912   3.712   6.537   4.341  1.0267 -0.1488 -0.0948
  107OSM   H16S10913   3.605   6.520   4.363  1.1075  0.4094  0.7522
  107OSM   H16T10914   3.749   6.432   4.336 -0.8033 -0.8302 -0.0050
  107OSM   C17S10915   3.713   6.615   4.205 -0.3848  0.2447 -0.5047
  107OSM   H17S10916   3.738   6.531   4.136 -0.3619 -1.1481  1.1343
  107OSM   H17T10917   3.798   6.686   4.197 -1.9076  2.3703  1.2311
  107OSM   C18S10918   3.576   6.675   4.167  0.0298 -0.3732 -0.2466
  107OSM   H18S10919   3.483   6.618   4.187 -0.9033  0.7203 -1.3741
  107OSM   H18T10920   3.584   6.695   4.058  0.4194 -0.1378 -0.1763
  107OSM   H18U10921   3.558   6.777   4.205  2.1319 -0.4715  1.1953
  107OSM    C1F10922   4.261   6.157   5.661  1.0703 -0.3005 -0.1383
  107OSM     OF10923   4.251   6.055   5.721 -0.1834 -0.2602 -0.3646
  107OSM    C2F10924   4.380   6.185   5.576 -0.4312 -0.2126  0.5724
  107OSM    H2F10925   4.472   6.137   5.616 -0.7837 -2.1413 -0.7836
  107OSM    H2G10926   4.397   6.295   5.566 -0.6123 -0.2062  0.3279
  107OSM    C3F10927   4.369   6.123   5.430 -0.3208  0.4220 -0.3326
  107OSM    H3F10928   4.366   6.012   5.431 -0.5265  0.4278  0.6357
  107OSM    H3G10929   4.465   6.143   5.378  0.3070 -1.4839  0.0160
  107OSM    C4F10930   4.261   6.176   5.331  0.3507  0.3869  0.4383
  107OSM    H4F10931   4.164   6.181   5.384  0.7425  0.4686  1.1765
  107OSM    H4G10932   4.243   6.107   5.246  1.0647 -0.6140  1.0639
  107OSM    C5F10933   4.294   6.313   5.268  0.6225  0.5051 -0.2742
  107OSM    H5F10934   4.393   6.307   5.218  1.2762 -2.8125  1.1804
  107OSM    H5G10935   4.296   6.385   5.353 -0.2518 -1.8018  1.8047
  107OSM    C6F10936   4.197   6.340   5.155  0.1484  0.1853 -0.7171
  107OSM    H6F10937   4.185   6.252   5.088  0.5846 -0.5466  0.1520
  107OSM    H6G10938   4.241   6.425   5.099  0.3631 -0.1984 -1.1346
  107OSM    C7F10939   4.051   6.382   5.200 -0.3612 -0.1514  0.3367
  107OSM    H7F10940   4.064   6.460   5.278  1.3263  0.0515 -0.1259
  107OSM    H7G10941   3.990   6.298   5.240  1.0051 -1.2131  0.2516
  107OSM    C8F10942   3.982   6.451   5.083 -0.0024 -0.4341 -0.1644
  107OSM    H8F10943   4.040   6.537   5.045 -0.1896 -1.2470 -2.3979
  107OSM    H8G10944   3.893   6.505   5.122  0.6260 -0.3263  1.2024
  107OSM    C9F10945   3.940   6.343   4.981  0.4525  0.6216 -1.1738
  107OSM    H9F10946   3.842   6.301   5.010  1.2300  0.8274  2.0866
  107OSM   C10F10947   3.994   6.322   4.862  0.0115  0.2279  0.2823
  107OSM   H10F10948   3.950   6.246   4.795  1.1756  0.6440 -1.0233
  107OSM   C11F10949   4.104   6.395   4.796 -0.0414  0.8696  0.1403
  107OSM   H11F10950   4.173   6.417   4.880  0.8930 -0.2964 -0.2970
  107OSM   H11G10951   4.058   6.492   4.766 -2.1691 -0.3531 -0.7774
  107OSM   C12F10952   4.150   6.327   4.669  0.5393 -0.1154  0.3653
  107OSM   H12F10953   4.068   6.314   4.596  1.7274  0.7518 -1.1870
  107OSM   H12G10954   4.188   6.226   4.697 -0.2127 -0.5315 -0.0984
  107OSM   C13F10955   4.267   6.400   4.604  0.0797  0.5286 -0.0492
  107OSM   H13F10956   4.336   6.411   4.690  2.1932 -0.0655 -1.5947
  107OSM   H13G10957   4.241   6.504   4.575  1.2457  1.1102  0.9184
  107OSM   C14F10958   4.341   6.314   4.496  0.1102  0.1814  0.3772
  107OSM   H14F10959   4.341   6.211   4.537 -1.0824 -0.0183 -0.1049
  107OSM   H14G10960   4.450   6.333   4.488 -0.0205  0.5717 -0.6827
  107OSM   C15F10961   4.270   6.313   4.357 -0.2530 -0.1893 -0.9015
  107OSM   H15F10962   4.251   6.417   4.323 -2.7662 -0.7324 -1.3944
  107OSM   H15G10963   4.178   6.250   4.363  0.9154 -1.8310  0.6116
  107OSM   C16F10964   4.357   6.260   4.246  0.2114  0.4392 -0.0070
  107OSM   H16F10965   4.365   6.149   4.249 -0.1146  0.3305 -1.7721
  107OSM   H16G10966   4.463   6.293   4.247 -0.6025  3.5048 -2.0409
  107OSM   C17F10967   4.300   6.302   4.109  0.1180 -0.0794 -0.6453
  107OSM   H17F10968   4.268   6.408   4.116 -1.2362 -0.5313  0.2104
  107OSM   H17G10969   4.210   6.242   4.085 -0.1258 -0.5473  1.2911
  107OSM   C18F10970   4.405   6.290   4.000  0.1442 -0.3030  0.0626
  107OSM   H18F10971   4.434   6.186   3.976  0.7826 -0.2589  0.5995
  107OSM   H18G10972   4.492   6.350   4.034 -1.9239  2.3278  1.0846
  107OSM   H18H10973   4.368   6.329   3.903 -1.6148  1.2126  1.2613
  108OSM      N10974   5.027   2.004   6.336  1.2086 -0.1518 -0.4961
  108OSM    C1510975   5.018   1.883   6.424  0.0317 -0.9176 -0.0640
  108OSM   H15A10976   4.957   1.901   6.511  1.0210  1.4064  0.2374
  108OSM   H15B10977   5.117   1.848   6.450  0.2842 -0.1809  0.0009
  108OSM   H15C10978   4.964   1.806   6.372 -0.8235 -0.2030 -0.2535
  108OSM    C1410979   4.888   2.056   6.296 -0.2398  0.1040  0.1898
  108OSM   H14A10980   4.828   2.086   6.380 -0.4441 -0.0349  0.0967
  108OSM   H14B10981   4.838   1.979   6.239 -0.5339  0.5354 -0.1382
  108OSM   H14C10982   4.897   2.145   6.235  0.6934  0.3294  0.6368
  108OSM    C1310983   5.098   2.110   6.416  0.2515  0.1863 -0.3623
  108OSM   H13A10984   5.092   2.203   6.361 -3.4485 -0.4072 -1.2200
  108OSM   H13B10985   5.202   2.095   6.441  0.5164  0.3613 -1.3360
  108OSM   H13C10986   5.051   2.124   6.513 -1.1453  1.6169 -1.1861
  108OSM    C1210987   5.105   1.982   6.205  0.5691 -0.2930  0.3177
  108OSM   H12A10988   5.049   1.930   6.129 -0.3196  0.0508  0.7212
  108OSM   H12B10989   5.182   1.909   6.222  0.5406 -0.8308 -1.7045
  108OSM    C1110990   5.176   2.105   6.144 -0.1196 -0.3010  0.2205
  108OSM   H11A10991   5.097   2.183   6.158  0.7311  0.9716 -1.7189
  108OSM   H11B10992   5.195   2.101   6.035 -2.0270 -0.4141 -0.1437
  108OSM      P10993   5.337   2.283   6.222 -0.3916  0.1156  0.0716
  108OSM    O1310994   5.218   2.370   6.261 -0.0580  0.1453  0.3606
  108OSM    O1410995   5.457   2.290   6.314  0.9018 -0.0839  0.1972
  108OSM    O1110996   5.378   2.322   6.071 -0.5006  0.0643  0.0137
  108OSM    O1210997   5.298   2.132   6.209  0.2971  0.1856 -0.4600
  108OSM    C1S10998   5.515   2.275   6.024  0.9505 -0.6696 -0.1030
  108OSM    H1S10999   5.551   2.180   6.070 -0.0017 -0.8814  0.2330
  108OSM    H1T11000   5.594   2.350   6.047  0.0407 -0.1334  1.4379
  108OSM     NF11001   5.641   2.211   5.823 -0.3224  0.0971 -1.0703
  108OSM    HNF11002   5.717   2.265   5.788  1.2268 -0.0723  1.7256
  108OSM    C2S11003   5.518   2.270   5.866 -0.7150  0.1236 -0.4521
  108OSM    H2S11004   5.436   2.203   5.832 -0.9414  0.9376 -1.5699
  108OSM    C3S11005   5.487   2.402   5.795 -0.2962  0.0525 -0.2056
  108OSM    H3S11006   5.570   2.474   5.809  0.7756 -1.4821  1.9769
  108OSM     O311007   5.369   2.464   5.846  0.2007  0.2383  0.2702
  108OSM    HO311008   5.355   2.419   5.930 -1.2467  2.0903  1.1044
  108OSM    C4S11009   5.480   2.374   5.644 -0.5993 -0.0317  0.4269
  108OSM    H4S11010   5.569   2.397   5.584 -2.0917 -0.8358 -2.2811
  108OSM    C5S11011   5.379   2.310   5.586 -0.1536  0.6769 -0.2203
  108OSM    H5S11012   5.298   2.271   5.649  1.1596 -0.6712  0.7092
  108OSM    C6S11013   5.378   2.272   5.438 -0.9359 -0.4989 -0.6331
  108OSM    H6S11014   5.289   2.317   5.388 -1.2468 -1.1197 -0.6444
  108OSM    H6T11015   5.369   2.162   5.427  1.0079 -0.8292  0.6236
  108OSM    C7S11016   5.498   2.310   5.343 -0.7659  0.4263 -0.4208
  108OSM    H7S11017   5.594   2.266   5.376 -0.4564 -0.1116 -1.9902
  108OSM    H7T11018   5.517   2.419   5.331  1.8140 -0.1483 -2.5529
  108OSM    C8S11019   5.472   2.265   5.194 -0.4085  0.1665  0.4796
  108OSM    H8S11020   5.368   2.289   5.163 -0.0003  0.1265 -0.9888
  108OSM    H8T11021   5.486   2.155   5.190 -0.0976  0.1832  0.9849
  108OSM    C9S11022   5.560   2.333   5.088  0.2209  0.4005  0.0910
  108OSM    H9S11023   5.668   2.330   5.114  0.0664  0.0112  0.7091
  108OSM    H9T11024   5.533   2.440   5.099 -0.1925  0.1026  2.4025
  108OSM   C10S11025   5.544   2.291   4.943 -0.1274  0.2648 -0.5829
  108OSM   H10S11026   5.591   2.192   4.924  2.0082  1.0196  0.4830
  108OSM   H10T11027   5.599   2.359   4.875  0.2581  1.0773  0.5280
  108OSM   C11S11028   5.392   2.284   4.900  0.0840  0.6615 -1.0501
  108OSM   H11S11029   5.338   2.221   4.973  0.8717  0.0434 -0.9920
  108OSM   H11T11030   5.401   2.212   4.816  1.4458 -1.1483  0.5569
  108OSM   C12S11031   5.317   2.403   4.860 -0.9759  0.0385 -0.1038
  108OSM   H12S11032   5.369   2.436   4.768  0.8348 -0.1410  0.8240
  108OSM   H12T11033   5.334   2.485   4.933 -1.4447 -0.3370  0.4354
  108OSM   C13S11034   5.166   2.373   4.848 -0.0727 -0.0774 -0.3774
  108OSM   H13S11035   5.116   2.472   4.855  0.3976  0.0695  1.4175
  108OSM   H13T11036   5.120   2.330   4.940 -1.1234  1.3325 -0.2081
  108OSM   C14S11037   5.120   2.295   4.721 -0.9962  0.3155  0.3331
  108OSM   H14S11038   5.201   2.223   4.694  0.1637  0.1549  3.7476
  108OSM   H14T11039   5.113   2.371   4.640  0.4776 -0.7226 -0.8476
  108OSM   C15S11040   4.984   2.224   4.715 -0.3236 -0.5429 -0.1307
  108OSM   H15S11041   4.907   2.298   4.746  0.3149 -0.5511  1.5363
  108OSM   H15T11042   4.981   2.139   4.787 -0.6433 -0.5514 -0.1526
  108OSM   C16S11043   4.948   2.184   4.576 -0.3034  0.0393  0.4765
  108OSM   H16S11044   5.019   2.099   4.561 -1.1698 -1.1382  2.6833
  108OSM   H16T11045   4.960   2.260   4.496 -1.6240 -0.1107  0.1037
  108OSM   C17S11046   4.809   2.120   4.557  0.0933 -0.2906 -0.5300
  108OSM   H17S11047   4.803   2.036   4.630  1.5582 -0.7013 -0.8496
  108OSM   H17T11048   4.815   2.069   4.458  2.0659 -1.5709  0.1820
  108OSM   C18S11049   4.682   2.207   4.569 -0.3923  0.4709 -0.4732
  108OSM   H18S11050   4.681   2.283   4.488  1.3149  0.2984 -0.7077
  108OSM   H18T11051   4.681   2.271   4.660 -2.4116  0.6974 -0.6144
  108OSM   H18U11052   4.599   2.134   4.573  1.8783 -2.4677 -2.5187
  108OSM    C1F11053   5.670   2.079   5.844 -0.5843 -0.1658  0.5049
  108OSM     OF11054   5.607   2.015   5.922  0.2738  0.2421  0.2953
  108OSM    C2F11055   5.788   2.027   5.776  0.4135 -0.0166 -0.0813
  108OSM    H2F11056   5.866   2.037   5.855  1.6305  0.5312 -1.3164
  108OSM    H2G11057   5.816   2.099   5.697 -0.0030 -0.5464 -0.7183
  108OSM    C3F11058   5.763   1.886   5.724 -0.5197 -0.3029 -0.7355
  108OSM    H3F11059   5.690   1.901   5.641 -0.1707  2.3937 -0.6331
  108OSM    H3G11060   5.723   1.817   5.802  0.8874 -1.1559 -0.7444
  108OSM    C4F11061   5.890   1.810   5.679 -0.7910 -0.5555  0.2339
  108OSM    H4F11062   5.955   1.791   5.768  0.1227 -0.4188 -0.3952
  108OSM    H4G11063   5.940   1.892   5.624  2.0264 -3.0106 -1.1462
  108OSM    C5F11064   5.873   1.677   5.604 -0.2816 -0.1424  0.6473
  108OSM    H5F11065   5.789   1.615   5.643 -1.2246  0.5486 -0.2193
  108OSM    H5G11066   5.962   1.615   5.624 -0.9806 -1.4804 -0.2870
  108OSM    C6F11067   5.867   1.691   5.451 -0.4310 -0.7664  0.5335
  108OSM    H6F11068   5.964   1.730   5.414 -0.3461 -1.2627  0.2259
  108OSM    H6G11069   5.789   1.767   5.429  2.3279  1.9124 -0.7424
  108OSM    C7F11070   5.840   1.554   5.382  1.0193 -0.6085  1.0414
  108OSM    H7F11071   5.738   1.528   5.418  1.3403  1.3779  3.6979
  108OSM    H7G11072   5.911   1.484   5.430  1.2325 -0.7566  0.5085
  108OSM    C8F11073   5.831   1.539   5.230 -0.3153 -0.3145 -0.3006
  108OSM    H8F11074   5.746   1.601   5.194  0.1575  0.2784 -0.4078
  108OSM    H8G11075   5.805   1.434   5.206  0.8040 -1.4407  2.8429
  108OSM    C9F11076   5.951   1.577   5.152 -0.6556 -0.2558  0.9098
  108OSM    H9F11077   5.949   1.674   5.101 -0.6603 -0.4388  0.5569
  108OSM   C10F11078   6.059   1.504   5.146  0.0032 -0.2068 -0.1659
  108OSM   H10F11079   6.131   1.524   5.065  0.2709 -1.7156 -0.3418
  108OSM   C11F11080   6.082   1.369   5.215 -0.0137 -0.1911 -0.1669
  108OSM   H11F11081   5.988   1.320   5.249 -0.6579  0.1157 -1.4469
  108OSM   H11G11082   6.147   1.369   5.305 -0.6428 -1.2926  0.3157
  108OSM   C12F11083   6.146   1.276   5.108 -0.4518 -0.3147  0.1980
  108OSM   H12F11084   6.175   1.177   5.149  0.1606 -0.0261  0.4666
  108OSM   H12G11085   6.230   1.312   5.045 -1.2225 -2.7893 -2.4514
  108OSM   C13F11086   6.041   1.248   4.991 -0.1636  0.0635  0.5357
  108OSM   H13F11087   6.102   1.215   4.904 -0.6397 -2.5552  1.1009
  108OSM   H13G11088   6.000   1.342   4.950  0.7882 -0.0323 -0.6927
  108OSM   C14F11089   5.947   1.139   5.027  0.2344  0.0461  0.4561
  108OSM   H14F11090   5.882   1.173   5.110 -1.2446 -1.8730  0.1651
  108OSM   H14G11091   5.997   1.044   5.057  0.9103  0.6104  1.1229
  108OSM   C15F11092   5.859   1.097   4.906  0.3987  0.4218 -0.5590
  108OSM   H15F11093   5.910   1.039   4.826 -1.1123 -2.5683  0.4913
  108OSM   H15G11094   5.823   1.194   4.864  1.2626  1.6832  1.4733
  108OSM   C16F11095   5.740   0.998   4.942 -0.4187 -0.5874  0.1424
  108OSM   H16F11096   5.681   1.061   5.013 -1.0127 -0.0873 -0.7777
  108OSM   H16G11097   5.789   0.912   4.992  1.4075  1.1722  1.5318
  108OSM   C17F11098   5.662   0.958   4.818  0.0937 -0.1459  0.5083
  108OSM   H17F11099   5.606   0.866   4.844  0.5674 -0.0879  1.8051
  108OSM   H17G11100   5.735   0.929   4.740 -0.8745 -0.2493 -0.3827
  108OSM   C18F11101   5.566   1.064   4.751  0.0516  0.7802  0.1851
  108OSM   H18F11102   5.622   1.144   4.698  0.0951 -0.9646 -2.6252
  108OSM   H18G11103   5.505   1.117   4.826 -3.5205 -0.8984 -1.2775
  108OSM   H18H11104   5.493   1.021   4.679  0.2321  1.7802 -0.6127
  109OSM      N11105   2.371   1.449   6.182  0.3729 -0.0545 -0.9246
  109OSM    C1511106   2.250   1.359   6.198  0.1774  0.7166 -0.2006
  109OSM   H15A11107   2.153   1.405   6.203  0.6404  1.5944  1.5488
  109OSM   H15B11108   2.242   1.310   6.294 -1.6161  0.8629 -0.2453
  109OSM   H15C11109   2.246   1.293   6.113  0.6085 -2.3337  1.9718
  109OSM    C1411110   2.350   1.578   6.254 -0.1079 -0.5066 -0.7265
  109OSM   H14A11111   2.349   1.564   6.361 -1.7556  2.4216 -0.2744
  109OSM   H14B11112   2.255   1.627   6.235 -0.0183 -0.1136 -0.1654
  109OSM   H14C11113   2.429   1.649   6.235  0.1264 -0.3184  0.8659
  109OSM    C1311114   2.497   1.402   6.230 -0.2326 -0.0883 -0.3969
  109OSM   H13A11115   2.499   1.382   6.336 -0.2882  1.1295 -0.1504
  109OSM   H13B11116   2.579   1.472   6.224 -0.1631 -0.1895 -0.6306
  109OSM   H13C11117   2.534   1.314   6.180 -0.6467  0.0730 -1.0007
  109OSM    C1211118   2.380   1.480   6.033  0.1176 -0.2003 -0.1922
  109OSM   H12A11119   2.456   1.555   6.021 -0.7918  1.2014  2.1118
  109OSM   H12B11120   2.290   1.525   5.994  0.0001 -0.6130 -0.4022
  109OSM    C1111121   2.403   1.356   5.936  0.3805 -0.4873 -0.0853
  109OSM   H11A11122   2.395   1.409   5.838 -3.3561 -1.0053 -0.2207
  109OSM   H11B11123   2.316   1.286   5.934  0.2742 -0.3463 -0.4937
  109OSM      P11124   2.536   1.135   5.956  0.0940  0.4070 -0.0580
  109OSM    O1311125   2.672   1.101   5.993 -0.1478  0.3104  1.1115
  109OSM    O1411126   2.427   1.085   6.036  0.4592 -0.0857  0.1045
  109OSM    O1111127   2.508   1.079   5.810  0.5801 -0.3958 -0.4568
  109OSM    O1211128   2.527   1.293   5.959 -0.1301 -0.3205  0.6157
  109OSM    C1S11129   2.566   1.140   5.697 -0.7816 -0.4032  0.2528
  109OSM    H1S11130   2.676   1.153   5.708 -0.7561 -1.2707  1.1959
  109OSM    H1T11131   2.528   1.244   5.688  0.2060 -0.0755 -0.3094
  109OSM     NF11132   2.597   1.114   5.452  0.0088 -0.5042 -0.3551
  109OSM    HNF11133   2.543   1.155   5.378 -0.7408  1.8878  1.3633
  109OSM    C2S11134   2.520   1.069   5.565 -0.7552 -0.2622  0.2604
  109OSM    H2S11135   2.538   0.960   5.583  1.0532 -0.0155  0.1105
  109OSM    C3S11136   2.367   1.084   5.552  0.6955  0.9016 -0.6672
  109OSM    H3S11137   2.334   1.189   5.533 -3.2064 -0.0656 -0.1335
  109OSM     O311138   2.296   1.057   5.667 -0.5221  0.5386 -0.0072
  109OSM    HO311139   2.370   1.052   5.728 -1.7637 -0.8132  1.4702
  109OSM    C4S11140   2.323   0.999   5.433 -0.0668  0.1012 -0.4297
  109OSM    H4S11141   2.389   0.912   5.421  2.0308  1.5219  0.1966
  109OSM    C5S11142   2.232   1.038   5.344 -0.2031  0.2051  0.0891
  109OSM    H5S11143   2.188   1.138   5.355 -0.1832  0.3898 -1.2893
  109OSM    C6S11144   2.180   0.959   5.225 -0.1651 -0.1406 -0.5163
  109OSM    H6S11145   2.083   1.004   5.193 -1.2091 -1.7844  0.2086
  109OSM    H6T11146   2.145   0.863   5.269 -0.5393  0.9359  1.6850
  109OSM    C7S11147   2.289   0.947   5.118 -0.1777  0.2002 -0.9235
  109OSM    H7S11148   2.252   0.892   5.028  0.1024 -2.1619  0.3365
  109OSM    H7T11149   2.370   0.882   5.157 -1.7879 -1.4305 -0.1417
  109OSM    C8S11150   2.351   1.082   5.076 -0.9078  0.2242  0.7722
  109OSM    H8S11151   2.412   1.134   5.153  1.6245 -0.0378 -0.9445
  109OSM    H8T11152   2.265   1.145   5.047 -0.9994 -0.2987 -0.1218
  109OSM    C9S11153   2.429   1.060   4.948 -0.0965 -0.1279 -0.3039
  109OSM    H9S11154   2.498   0.974   4.963 -1.7420 -1.6919 -1.1887
  109OSM    H9T11155   2.489   1.153   4.939  0.4491 -0.5704 -1.5366
  109OSM   C10S11156   2.350   1.044   4.823 -0.2549 -0.6814 -0.3252
  109OSM   H10S11157   2.273   1.124   4.813  0.4280 -0.0253 -0.4301
  109OSM   H10T11158   2.297   0.947   4.813 -2.2296  0.3081  0.0624
  109OSM   C11S11159   2.433   1.078   4.702 -0.1166  0.2598 -0.3866
  109OSM   H11S11160   2.502   0.991   4.693  0.6460  0.5737  1.7023
  109OSM   H11T11161   2.493   1.169   4.724 -0.7385 -0.0072  2.8718
  109OSM   C12S11162   2.357   1.098   4.577 -0.2689  0.2215  0.0461
  109OSM   H12S11163   2.275   1.172   4.587 -0.6886 -0.3356  0.8147
  109OSM   H12T11164   2.324   0.996   4.549  1.9278 -0.6007  0.2381
  109OSM   C13S11165   2.435   1.151   4.454 -0.5427  0.7889 -0.7240
  109OSM   H13S11166   2.533   1.104   4.434 -0.0164  1.5671 -0.0708
  109OSM   H13T11167   2.451   1.261   4.460 -0.4992  0.7629 -0.3499
  109OSM   C14S11168   2.343   1.116   4.334 -0.3985  0.0483 -0.7454
  109OSM   H14S11169   2.247   1.171   4.341  0.1063  0.8421  0.3100
  109OSM   H14T11170   2.316   1.010   4.354 -0.5729  0.4228  1.1807
  109OSM   C15S11171   2.410   1.140   4.202  0.0150  0.4223  0.1078
  109OSM   H15S11172   2.479   1.062   4.163  0.4735  1.1893 -0.6223
  109OSM   H15T11173   2.466   1.235   4.213 -0.1176  0.2930  2.2410
  109OSM   C16S11174   2.298   1.155   4.095  0.5192  0.0601 -0.5464
  109OSM   H16S11175   2.327   1.191   3.994 -0.0628  3.2355  0.3035
  109OSM   H16T11176   2.229   1.238   4.123  2.6932  2.3999 -1.7398
  109OSM   C17S11177   2.210   1.024   4.068  1.1055 -0.1030 -0.2301
  109OSM   H17S11178   2.122   1.067   4.016 -1.0902 -3.3464  0.5082
  109OSM   H17T11179   2.176   0.991   4.169  1.1548  0.5914  0.0230
  109OSM   C18S11180   2.254   0.905   3.991 -0.5231 -0.4315 -0.1431
  109OSM   H18S11181   2.278   0.930   3.886  1.6658 -0.2051  0.3518
  109OSM   H18T11182   2.181   0.822   3.981 -0.9946  0.2496 -2.9769
  109OSM   H18U11183   2.346   0.857   4.032 -1.2244 -0.6317  1.2520
  109OSM    C1F11184   2.729   1.101   5.445 -0.3372 -0.1524  0.6451
  109OSM     OF11185   2.786   1.040   5.532  0.8676  0.6628  0.1025
  109OSM    C2F11186   2.806   1.162   5.336 -0.0234 -0.2698 -0.0454
  109OSM    H2F11187   2.875   1.084   5.297  0.8273  0.3623  0.1708
  109OSM    H2G11188   2.862   1.250   5.373 -0.7319  0.9940 -1.8737
  109OSM    C3F11189   2.728   1.194   5.208 -0.4219 -0.4935 -0.3265
  109OSM    H3F11190   2.672   1.287   5.232  0.5873 -0.0674  0.4967
  109OSM    H3G11191   2.657   1.115   5.178 -2.6648  0.2376  2.5710
  109OSM    C4F11192   2.831   1.224   5.095  0.6201  0.2483 -0.4557
  109OSM    H4F11193   2.899   1.140   5.070 -0.5530 -0.9092  0.1129
  109OSM    H4G11194   2.904   1.296   5.137 -0.0726 -0.8569  3.0288
  109OSM    C5F11195   2.767   1.293   4.979 -0.3552  0.3282 -0.0876
  109OSM    H5F11196   2.701   1.376   5.011 -0.9346  0.0161 -0.4384
  109OSM    H5G11197   2.704   1.214   4.932  2.4112 -1.4707 -1.0431
  109OSM    C6F11198   2.871   1.344   4.875 -0.3158 -0.5059 -0.2633
  109OSM    H6F11199   2.949   1.266   4.862 -1.1681 -1.3672 -0.2284
  109OSM    H6G11200   2.919   1.439   4.910 -3.6310  1.7179 -1.3077
  109OSM    C7F11201   2.805   1.383   4.741  0.1304 -1.0971 -0.5113
  109OSM    H7F11202   2.743   1.474   4.754 -0.8111 -2.0016  1.8467
  109OSM    H7G11203   2.735   1.301   4.715  1.4013 -2.0830 -0.9539
  109OSM    C8F11204   2.899   1.419   4.626 -0.8468  0.0785  0.6744
  109OSM    H8F11205   2.986   1.466   4.677 -0.1607 -0.6084  0.1512
  109OSM    H8G11206   2.849   1.484   4.551  0.1217 -0.9728 -0.9446
  109OSM    C9F11207   2.941   1.290   4.558 -0.6516  0.0344 -0.2875
  109OSM    H9F11208   3.027   1.234   4.599 -0.9410 -0.8343 -0.8356
  109OSM   C10F11209   2.893   1.230   4.451  0.0782  0.0103  0.0089
  109OSM   H10F11210   2.943   1.136   4.426  2.7054  1.0384  0.9841
  109OSM   C11F11211   2.779   1.279   4.368  0.4167 -0.4086 -0.0359
  109OSM   H11F11212   2.700   1.331   4.427 -0.7952 -2.1131 -0.0947
  109OSM   H11G11213   2.721   1.196   4.322  0.8373  0.1377 -1.6185
  109OSM   C12F11214   2.809   1.371   4.240 -0.0489 -0.4098  0.0561
  109OSM   H12F11215   2.722   1.363   4.173  0.5630  0.5712 -0.8827
  109OSM   H12G11216   2.890   1.312   4.191 -3.0192 -3.5000 -1.5631
  109OSM   C13F11217   2.851   1.513   4.273 -0.3404 -0.3350  0.5484
  109OSM   H13F11218   2.939   1.510   4.341 -0.9376 -1.4045  1.2946
  109OSM   H13G11219   2.774   1.567   4.332  0.0109  1.1710 -0.3251
  109OSM   C14F11220   2.882   1.600   4.141 -0.0306  0.0401  0.7775
  109OSM   H14F11221   2.795   1.606   4.073 -0.0987  1.2521  0.9512
  109OSM   H14G11222   2.964   1.563   4.075 -1.3815 -1.0334 -0.3396
  109OSM   C15F11223   2.908   1.754   4.179 -0.0137  0.4145  0.1065
  109OSM   H15F11224   2.820   1.791   4.236  1.4033  2.3413  1.1413
  109OSM   H15G11225   2.919   1.805   4.080 -1.6039 -0.0180 -0.3292
  109OSM   C16F11226   3.034   1.787   4.254 -0.1773 -0.0244  0.0619
  109OSM   H16F11227   3.133   1.760   4.211 -0.5099 -0.1197 -0.6535
  109OSM   H16G11228   3.032   1.738   4.354 -0.3879 -0.7034 -0.2696
  109OSM   C17F11229   3.031   1.935   4.305  0.3007  0.3816 -0.1154
  109OSM   H17F11230   2.957   1.950   4.387  0.3773 -0.4265  0.1139
  109OSM   H17G11231   2.996   1.989   4.214 -2.2773 -0.0080  0.5571
  109OSM   C18F11232   3.166   1.992   4.355  0.5871  0.2541  0.1437
  109OSM   H18F11233   3.248   1.975   4.281 -0.4199  0.3148 -1.0327
  109OSM   H18G11234   3.204   1.935   4.442  2.4071  0.9815 -0.1179
  109OSM   H18H11235   3.161   2.101   4.375  0.1159  0.3826 -0.6438
  110OSM      N11236   5.225   4.582   6.061 -0.4872 -0.4226  0.4298
  110OSM    C1511237   5.253   4.723   6.021  0.6131 -0.0329  0.2502
  110OSM   H15A11238   5.358   4.745   6.007  0.4965  0.0378 -0.5478
  110OSM   H15B11239   5.208   4.790   6.092 -0.2934 -0.4746  0.1118
  110OSM   H15C11240   5.206   4.739   5.925  0.5389  0.5905  0.3919
  110OSM    C1411241   5.313   4.539   6.171  0.3602 -0.1907 -0.4827
  110OSM   H14A11242   5.316   4.620   6.241 -0.4525  0.8632 -1.6221
  110OSM   H14B11243   5.416   4.525   6.141  0.0963  0.9482 -2.0523
  110OSM   H14C11244   5.280   4.447   6.217  1.6889 -0.3292  0.2597
  110OSM    C1311245   5.077   4.578   6.108  0.0228 -0.5924 -0.1277
  110OSM   H13A11246   5.056   4.479   6.144  1.6548 -0.9896 -0.1639
  110OSM   H13B11247   5.013   4.614   6.029 -1.1550  0.5743  1.2984
  110OSM   H13C11248   5.066   4.649   6.190 -1.3961 -1.7124  0.6812
  110OSM    C1211249   5.241   4.496   5.946 -0.0009  0.6204  1.0557
  110OSM   H12A11250   5.162   4.520   5.877  0.9698 -0.7824 -0.6104
  110OSM   H12B11251   5.230   4.392   5.974  0.3473  0.2478 -0.1352
  110OSM    C1111252   5.370   4.502   5.870 -0.4410  0.3659  0.2084
  110OSM   H11A11253   5.379   4.602   5.823  2.4222  0.4260  0.7443
  110OSM   H11B11254   5.357   4.434   5.784 -2.0281  1.4405 -0.4567
  110OSM      P11255   5.600   4.575   5.984 -0.3996 -0.1780 -0.1875
  110OSM    O1311256   5.594   4.603   6.132 -0.1503 -0.3789 -0.2093
  110OSM    O1411257   5.731   4.519   5.945 -0.2403  0.7524 -0.2941
  110OSM    O1111258   5.551   4.708   5.908 -0.5509  0.0520  0.1828
  110OSM    O1211259   5.486   4.473   5.950  0.2753  0.0235 -0.2151
  110OSM    C1S11260   5.620   4.755   5.788 -0.5724 -0.2121 -0.3576
  110OSM    H1S11261   5.618   4.671   5.715 -2.5150 -1.6561  1.2187
  110OSM    H1T11262   5.728   4.772   5.804 -0.7583 -0.3470  1.1911
  110OSM     NF11263   5.603   4.904   5.597 -0.3939 -0.0436  1.0886
  110OSM    HNF11264   5.669   4.978   5.586  1.9219 -2.0976  0.2510
  110OSM    C2S11265   5.555   4.881   5.731  0.0165  0.1286  0.1968
  110OSM    H2S11266   5.445   4.864   5.727 -0.0438  0.5304  0.0863
  110OSM    C3S11267   5.580   4.991   5.838  0.3531  0.4348 -0.0922
  110OSM    H3S11268   5.691   4.995   5.841  0.4996 -1.8609  2.5867
  110OSM     O311269   5.537   4.950   5.962 -0.3128  0.1549  0.7547
  110OSM    HO311270   5.521   4.855   5.956 -1.4036  0.4118 -0.7434
  110OSM    C4S11271   5.523   5.122   5.806  0.4718  0.0257 -0.2815
  110OSM    H4S11272   5.415   5.115   5.786  0.1050  0.3478  1.4681
  110OSM    C5S11273   5.593   5.233   5.795 -0.3445  0.9479 -0.4095
  110OSM    H5S11274   5.703   5.228   5.804 -0.1296  0.5358 -2.5618
  110OSM    C6S11275   5.530   5.359   5.750  0.3244  0.2383  0.4787
  110OSM    H6S11276   5.593   5.447   5.773 -0.6406  1.5376 -1.5370
  110OSM    H6T11277   5.445   5.373   5.820 -0.0635 -3.0860  0.8182
  110OSM    C7S11278   5.491   5.362   5.599 -0.2554 -0.4225  0.3427
  110OSM    H7S11279   5.586   5.333   5.548 -0.0103 -0.5433  0.8595
  110OSM    H7T11280   5.471   5.469   5.575 -1.6125 -0.7148  0.1418
  110OSM    C8S11281   5.361   5.281   5.576 -0.2056 -0.2291 -0.1115
  110OSM    H8S11282   5.275   5.318   5.635 -0.5852 -1.5227  0.1912
  110OSM    H8T11283   5.366   5.171   5.596  0.5790 -0.1777  0.0159
  110OSM    C9S11284   5.317   5.291   5.426  0.1469  0.0312 -0.7360
  110OSM    H9S11285   5.263   5.384   5.396 -2.3723 -1.3144 -0.6723
  110OSM    H9T11286   5.240   5.211   5.421  0.3671 -0.2636  0.3046
  110OSM   C10S11287   5.437   5.265   5.325  0.3227  0.3276 -0.0553
  110OSM   H10S11288   5.471   5.161   5.341  1.9575  1.0088  1.2861
  110OSM   H10T11289   5.525   5.326   5.357 -0.1026  1.2938 -0.6694
  110OSM   C11S11290   5.402   5.291   5.181 -0.1256 -0.4446 -0.6631
  110OSM   H11S11291   5.343   5.384   5.166  3.2521  1.8559 -0.7078
  110OSM   H11T11292   5.339   5.212   5.133 -0.1314  1.1118 -3.3708
  110OSM   C12S11293   5.522   5.310   5.083  0.5196  0.2937 -0.2117
  110OSM   H12S11294   5.581   5.216   5.074  0.6783  0.2397  1.1392
  110OSM   H12T11295   5.583   5.394   5.122  2.8545 -1.5010  0.2466
  110OSM   C13S11296   5.484   5.346   4.937  0.2312  0.1115  0.4216
  110OSM   H13S11297   5.426   5.441   4.936 -0.0143 -0.0276 -1.3420
  110OSM   H13T11298   5.421   5.262   4.902  0.9286 -1.0845  1.9246
  110OSM   C14S11299   5.605   5.380   4.853 -0.5660  1.2916  0.1920
  110OSM   H14S11300   5.668   5.291   4.835 -0.7077  1.2344 -0.0197
  110OSM   H14T11301   5.667   5.461   4.898  0.4831  0.1769  0.7930
  110OSM   C15S11302   5.552   5.448   4.720  0.6461 -0.6709  0.3899
  110OSM   H15S11303   5.628   5.513   4.672  0.0451 -0.0719  0.2406
  110OSM   H15T11304   5.458   5.503   4.741 -0.0735 -1.1298 -1.4035
  110OSM   C16S11305   5.504   5.346   4.617 -0.2474 -0.5693  0.0833
  110OSM   H16S11306   5.412   5.296   4.651 -1.3846  1.4061  0.0721
  110OSM   H16T11307   5.567   5.256   4.599 -0.6190 -0.6761 -0.7018
  110OSM   C17S11308   5.453   5.415   4.494  0.2746  0.1640  0.6321
  110OSM   H17S11309   5.540   5.448   4.433 -0.0343 -1.5362 -0.8040
  110OSM   H17T11310   5.379   5.496   4.510 -1.4977 -0.7927 -2.0149
  110OSM   C18S11311   5.377   5.333   4.396  0.0945 -0.1225  0.2649
  110OSM   H18S11312   5.309   5.266   4.452 -0.8600  1.1036  0.6192
  110OSM   H18T11313   5.466   5.289   4.346  0.0924  1.6551 -1.3931
  110OSM   H18U11314   5.327   5.385   4.311 -2.1042 -1.8489  0.4286
  110OSM    C1F11315   5.573   4.828   5.491  0.7630 -1.0450  0.4638
  110OSM     OF11316   5.495   4.729   5.498  0.0710  0.0742  0.1848
  110OSM    C2F11317   5.636   4.868   5.363 -0.0166 -0.3932 -0.7144
  110OSM    H2F11318   5.707   4.785   5.342  0.3420 -1.0676  2.6429
  110OSM    H2G11319   5.701   4.956   5.382 -1.1715  0.1639  0.9032
  110OSM    C3F11320   5.530   4.878   5.250  0.6101  0.9576 -0.2224
  110OSM    H3F11321   5.452   4.956   5.265  0.8339  1.2498 -0.5567
  110OSM    H3G11322   5.482   4.778   5.244 -0.7503  1.6046 -0.4045
  110OSM    C4F11323   5.598   4.912   5.116  0.5887 -0.6627  0.0584
  110OSM    H4F11324   5.669   4.835   5.080  2.6200  0.1199  2.1597
  110OSM    H4G11325   5.651   5.009   5.103 -2.0638  0.7735 -0.7393
  110OSM    C5F11326   5.484   4.929   5.011  0.3284 -0.1336 -0.0265
  110OSM    H5F11327   5.421   5.014   5.045  2.0296  1.1244  0.1071
  110OSM    H5G11328   5.423   4.836   5.023 -1.3329  1.0271  0.9935
  110OSM    C6F11329   5.531   4.951   4.862 -0.2333 -0.4691  0.3373
  110OSM    H6F11330   5.590   4.868   4.818  0.0290 -0.3033  0.3725
  110OSM    H6G11331   5.598   5.037   4.885 -2.3527  1.0919  0.9532
  110OSM    C7F11332   5.424   4.995   4.759 -0.1771  0.3483  0.0383
  110OSM    H7F11333   5.473   5.067   4.690 -0.2153  1.6182  1.2820
  110OSM    H7G11334   5.349   5.052   4.817  0.5711  2.3384 -0.8717
  110OSM    C8F11335   5.360   4.873   4.681 -0.5653 -0.2101  0.5577
  110OSM    H8F11336   5.295   4.805   4.739 -2.3213 -0.2941 -1.4015
  110OSM    H8G11337   5.444   4.811   4.643 -0.5144 -0.4420  1.0351
  110OSM    C9F11338   5.280   4.922   4.566 -0.4493  0.0085  0.1086
  110OSM    H9F11339   5.197   4.984   4.601  1.0071  0.8602  2.2535
  110OSM   C10F11340   5.297   4.896   4.432  0.0557  0.8977  0.1802
  110OSM   H10F11341   5.230   4.931   4.351 -0.3762 -3.8159 -1.8709
  110OSM   C11F11342   5.399   4.797   4.374 -0.2299  0.6455 -0.2154
  110OSM   H11F11343   5.333   4.722   4.326 -2.1547  1.0527  1.6414
  110OSM   H11G11344   5.461   4.741   4.448 -1.1389  1.0496  0.8806
  110OSM   C12F11345   5.497   4.860   4.281  0.4589  1.0569 -0.5029
  110OSM   H12F11346   5.444   4.903   4.193  0.4822  0.5138 -0.7883
  110OSM   H12G11347   5.568   4.782   4.245 -0.1626 -0.0408  0.5909
  110OSM   C13F11348   5.595   4.961   4.344  0.4114  0.1998  0.1722
  110OSM   H13F11349   5.622   4.920   4.444 -0.3139 -1.0986 -0.1390
  110OSM   H13G11350   5.553   5.060   4.373  2.0292  0.9583  0.0402
  110OSM   C14F11351   5.722   4.988   4.261 -0.1559  0.3867 -0.1161
  110OSM   H14F11352   5.689   5.027   4.162  0.4921 -1.0840 -0.9566
  110OSM   H14G11353   5.771   4.891   4.238 -0.2632  1.0271 -3.5795
  110OSM   C15F11354   5.833   5.063   4.337  0.3654 -0.4519 -0.1562
  110OSM   H15F11355   5.913   5.091   4.265 -0.4055  1.2374 -0.4207
  110OSM   H15G11356   5.866   4.984   4.408  2.2476 -2.6091 -3.2053
  110OSM   C16F11357   5.790   5.201   4.392 -0.8927  0.2221 -0.0589
  110OSM   H16F11358   5.708   5.202   4.466 -0.2870  1.2358  0.6239
  110OSM   H16G11359   5.747   5.259   4.308 -0.4804 -0.2674 -0.6144
  110OSM   C17F11360   5.907   5.273   4.458 -0.5589 -0.3629  0.3301
  110OSM   H17F11361   5.993   5.262   4.389 -0.9186 -1.0777 -0.0202
  110OSM   H17G11362   5.935   5.223   4.553 -0.2531  0.0032  0.4357
  110OSM   C18F11363   5.879   5.426   4.483 -0.2536 -0.2066 -0.8426
  110OSM   H18F11364   5.862   5.472   4.384  3.2237  0.1832 -1.3942
  110OSM   H18G11365   5.958   5.481   4.539 -0.7664 -0.2805 -0.0261
  110OSM   H18H11366   5.783   5.428   4.540  1.0917  1.9997  1.5658
  111OSM      N11367   1.116   4.504   6.369 -0.2042  0.7522  0.7515
  111OSM    C1511368   0.993   4.493   6.447  0.7131  0.2275  0.1053
  111OSM   H15A11369   0.950   4.591   6.455 -0.6780 -0.4865  2.4920
  111OSM   H15B11370   1.012   4.455   6.547  2.0271 -2.6384 -1.1242
  111OSM   H15C11371   0.924   4.422   6.405 -0.8182  2.3656 -1.1455
  111OSM    C1411372   1.081   4.569   6.238 -0.4995  0.3652 -0.3627
  111OSM   H14A11373   1.033   4.665   6.245 -1.6391 -0.2915  1.5551
  111OSM   H14B11374   1.011   4.509   6.182 -2.0404  1.0107  0.8075
  111OSM   H14C11375   1.167   4.575   6.173 -0.5970  1.8834 -0.3890
  111OSM    C1311376   1.215   4.586   6.434 -0.8160 -0.5429  0.7496
  111OSM   H13A11377   1.274   4.528   6.503 -0.0844 -1.8676 -0.9198
  111OSM   H13B11378   1.174   4.679   6.470  0.0934  0.5026 -0.7699
  111OSM   H13C11379   1.289   4.609   6.358 -0.3283 -4.4991 -0.1869
  111OSM    C1211380   1.183   4.379   6.329  0.2790 -0.3447 -0.3352
  111OSM   H12A11381   1.201   4.325   6.421 -0.1164  1.8195  1.0782
  111OSM   H12B11382   1.279   4.409   6.291 -0.3462  0.3858 -1.3868
  111OSM    C1111383   1.118   4.286   6.220 -0.5568  0.6173 -0.2079
  111OSM   H11A11384   1.015   4.263   6.256 -0.3783  1.0783  0.6347
  111OSM   H11B11385   1.175   4.191   6.222 -1.0663  0.2231 -2.2523
  111OSM      P11386   1.220   4.323   5.988  0.1381 -0.1881 -0.1099
  111OSM    O1311387   1.342   4.399   6.043 -0.2294 -0.1829  0.7032
  111OSM    O1411388   1.229   4.182   5.958  0.4936 -0.2094  0.0816
  111OSM    O1111389   1.159   4.407   5.863  0.0485  0.1690 -0.4806
  111OSM    O1211390   1.105   4.343   6.090  0.0756  0.6586 -0.0661
  111OSM    C1S11391   1.128   4.543   5.883 -0.1988 -0.1274  0.1812
  111OSM    H1S11392   1.207   4.608   5.928  1.5124 -0.9466 -1.5040
  111OSM    H1T11393   1.043   4.546   5.954  0.8157  0.2330  1.4158
  111OSM     NF11394   1.063   4.755   5.780  0.2828  0.2993 -0.7472
  111OSM    HNF11395   0.967   4.758   5.806  0.5778 -2.8065  1.2278
  111OSM    C2S11396   1.089   4.614   5.753 -0.8203  0.1469  0.2809
  111OSM    H2S11397   1.171   4.609   5.680 -2.0134 -1.4347 -1.0238
  111OSM    C3S11398   0.964   4.547   5.686 -0.2786  0.8464 -1.3938
  111OSM    H3S11399   0.880   4.550   5.758  0.1339 -1.3184 -0.7202
  111OSM     O311400   0.982   4.405   5.665  0.3854 -0.3940 -0.0222
  111OSM    HO311401   1.066   4.381   5.704  1.6611  1.0216 -1.7260
  111OSM    C4S11402   0.933   4.615   5.557  0.1991  0.3749 -0.0829
  111OSM    H4S11403   1.016   4.616   5.485 -2.0641 -1.3655 -2.9345
  111OSM    C5S11404   0.825   4.674   5.517 -0.1652 -0.1230 -0.7931
  111OSM    H5S11405   0.746   4.678   5.593  0.6109 -1.0662  0.0851
  111OSM    C6S11406   0.816   4.747   5.383 -0.5628  0.1349  0.4127
  111OSM    H6S11407   0.791   4.853   5.405 -0.5054 -0.1359  1.9234
  111OSM    H6T11408   0.722   4.713   5.335 -0.5974 -0.6971  1.0629
  111OSM    C7S11409   0.928   4.734   5.277 -0.0677 -0.0530  0.0814
  111OSM    H7S11410   0.941   4.624   5.265 -0.5585  0.1136 -2.6598
  111OSM    H7T11411   1.022   4.780   5.316  0.9257  0.0052 -2.2031
  111OSM    C8S11412   0.896   4.801   5.144 -0.0391 -0.1222  0.0428
  111OSM    H8S11413   0.985   4.802   5.078  0.1131  1.4847  0.2422
  111OSM    H8T11414   0.875   4.905   5.176  2.7806  0.9583 -1.2736
  111OSM    C9S11415   0.782   4.746   5.065  0.1506 -0.0151  0.1750
  111OSM    H9S11416   0.696   4.748   5.136 -0.0895  0.4453 -0.1226
  111OSM    H9T11417   0.793   4.646   5.019 -0.7681 -0.1131  0.1571
  111OSM   C10S11418   0.747   4.856   4.960  0.7605 -0.0489 -0.1402
  111OSM   H10S11419   0.697   4.807   4.874  0.1021  3.0934 -1.6935
  111OSM   H10T11420   0.841   4.908   4.934 -0.0441  0.0447 -3.3273
  111OSM   C11S11421   0.636   4.960   4.997  1.1428  0.1768  0.4515
  111OSM   H11S11422   0.678   5.049   5.049  1.2546  0.6845 -0.4659
  111OSM   H11T11423   0.564   4.915   5.068 -1.5177  0.5387 -1.8141
  111OSM   C12S11424   0.558   5.006   4.875 -0.1986 -0.4105  0.4850
  111OSM   H12S11425   0.479   5.074   4.914  0.2290  0.4011 -0.0459
  111OSM   H12T11426   0.505   4.917   4.834  0.0242 -0.3165 -0.0092
  111OSM   C13S11427   0.636   5.080   4.773  0.8660  0.2821  0.2474
  111OSM   H13S11428   0.706   5.006   4.727 -0.9064 -1.7502  0.6234
  111OSM   H13T11429   0.696   5.161   4.819 -0.1447  1.6820 -0.8438
  111OSM   C14S11430   0.556   5.131   4.650  0.1480  0.2609  0.1609
  111OSM   H14S11431   0.468   5.182   4.693  0.0215  0.5233 -0.3935
  111OSM   H14T11432   0.506   5.057   4.583 -2.1200  1.4312  0.4674
  111OSM   C15S11433   0.632   5.234   4.572 -0.3223 -0.1271  0.0848
  111OSM   H15S11434   0.723   5.195   4.522 -0.2425 -0.9063  0.8172
  111OSM   H15T11435   0.665   5.319   4.635  0.9297  0.3738 -1.2048
  111OSM   C16S11436   0.557   5.301   4.457  0.5491  0.1689  0.6042
  111OSM   H16S11437   0.466   5.353   4.493  0.7184  0.4199  0.6678
  111OSM   H16T11438   0.521   5.218   4.392  0.9656 -0.5887  1.3205
  111OSM   C17S11439   0.637   5.408   4.371 -0.0200 -0.4359 -0.0355
  111OSM   H17S11440   0.728   5.355   4.334 -0.1392 -1.0644  0.5615
  111OSM   H17T11441   0.660   5.488   4.444  1.7576  0.3161 -1.3131
  111OSM   C18S11442   0.552   5.459   4.258  0.2103  0.2931 -0.6877
  111OSM   H18S11443   0.459   5.485   4.313 -0.3161 -1.3108 -0.7479
  111OSM   H18T11444   0.525   5.381   4.183 -1.4100  1.5231 -1.4318
  111OSM   H18U11445   0.590   5.550   4.207  1.0221  0.3403 -0.0248
  111OSM    C1F11446   1.152   4.852   5.801 -0.2371  0.3785 -0.3124
  111OSM     OF11447   1.267   4.821   5.812 -0.2497  0.3535  0.0157
  111OSM    C2F11448   1.100   4.987   5.826 -0.5341  0.6415 -0.1580
  111OSM    H2F11449   1.073   4.997   5.933 -0.1305 -0.5462  0.0703
  111OSM    H2G11450   0.997   4.990   5.785 -0.9339 -2.1668  0.4507
  111OSM    C3F11451   1.192   5.100   5.786  0.2486 -0.2753 -0.2629
  111OSM    H3F11452   1.279   5.098   5.856  0.1460  0.0339 -0.1224
  111OSM    H3G11453   1.146   5.201   5.799  0.5734 -0.4329  3.2423
  111OSM    C4F11454   1.249   5.089   5.645 -0.3062  0.2362  0.4234
  111OSM    H4F11455   1.307   4.995   5.630 -0.1858  0.5546 -1.2472
  111OSM    H4G11456   1.322   5.167   5.616 -1.0667  0.9557  0.4107
  111OSM    C5F11457   1.143   5.081   5.534 -0.0180  0.5434  0.3273
  111OSM    H5F11458   1.088   5.178   5.536 -3.5056 -1.1958 -1.9034
  111OSM    H5G11459   1.076   4.995   5.556  1.6762 -0.1120  3.4937
  111OSM    C6F11460   1.211   5.055   5.399  0.6959 -0.2729 -0.4859
  111OSM    H6F11461   1.254   4.952   5.401 -0.6405 -0.8740 -0.9446
  111OSM    H6G11462   1.292   5.129   5.386  0.8834 -0.5643 -1.0104
  111OSM    C7F11463   1.112   5.062   5.286 -0.1816 -0.4249 -0.4801
  111OSM    H7F11464   1.070   5.163   5.271  0.1346 -0.3764 -1.0870
  111OSM    H7G11465   1.024   5.000   5.314  0.8001 -1.5450  0.2455
  111OSM    C8F11466   1.173   5.001   5.162 -0.3700  0.0289  0.0710
  111OSM    H8F11467   1.099   5.024   5.082  0.5000 -0.5837 -0.9365
  111OSM    H8G11468   1.176   4.891   5.171  0.0350  0.0417  0.1046
  111OSM    C9F11469   1.304   5.058   5.114 -0.2091  0.7108 -0.4239
  111OSM    H9F11470   1.349   5.126   5.187 -1.1451 -1.4486  2.3018
  111OSM   C10F11471   1.356   5.041   4.994 -0.6307 -0.1946  0.0269
  111OSM   H10F11472   1.446   5.103   4.980  1.1461 -1.5456  4.0633
  111OSM   C11F11473   1.291   4.971   4.882  0.0130 -0.8661  0.1680
  111OSM   H11F11474   1.195   5.016   4.849 -0.1965 -1.3475  0.1116
  111OSM   H11G11475   1.277   4.864   4.905  2.1562 -1.1367  0.4053
  111OSM   C12F11476   1.378   4.970   4.750  0.1198  0.7992 -0.3204
  111OSM   H12F11477   1.360   4.869   4.707  0.4096 -0.0246  1.3998
  111OSM   H12G11478   1.482   4.975   4.788  0.0596  0.3478 -0.0906
  111OSM   C13F11479   1.358   5.086   4.649  0.6439 -0.6859  0.0677
  111OSM   H13F11480   1.365   5.189   4.689 -0.2224 -0.2130 -0.9448
  111OSM   H13G11481   1.260   5.070   4.598 -0.0190  0.6450  0.8757
  111OSM   C14F11482   1.465   5.079   4.545 -0.2689  0.0983  0.0950
  111OSM   H14F11483   1.570   5.066   4.578 -0.0845  1.4911  0.1302
  111OSM   H14G11484   1.470   5.184   4.506 -1.2327  0.4382  0.8593
  111OSM   C15F11485   1.432   4.990   4.424 -0.6942  0.1312  0.3224
  111OSM   H15F11486   1.340   5.022   4.372 -1.0344 -0.9813  0.2019
  111OSM   H15G11487   1.431   4.882   4.452  1.3520  0.4097  1.7453
  111OSM   C16F11488   1.544   5.016   4.316 -0.2903  0.0692 -0.1336
  111OSM   H16F11489   1.642   4.971   4.344 -0.3043 -0.2648 -0.5971
  111OSM   H16G11490   1.556   5.126   4.311 -4.1977  0.6629  0.5081
  111OSM   C17F11491   1.506   4.978   4.173 -0.7575  0.9348 -0.4706
  111OSM   H17F11492   1.422   5.048   4.151 -1.4374 -0.0553 -1.1394
  111OSM   H17G11493   1.463   4.875   4.170 -1.3892  1.2056 -2.2776
  111OSM   C18F11494   1.619   5.002   4.078 -0.3031 -0.2454 -0.4533
  111OSM   H18F11495   1.587   4.974   3.976  0.9756 -2.6071 -0.2623
  111OSM   H18G11496   1.712   4.950   4.108 -0.2259  0.8745  1.4071
  111OSM   H18H11497   1.631   5.112   4.075 -1.3511 -0.1240 -0.6946
  112OSM      N11498   4.690   1.014   6.292 -0.0269  0.3899 -0.4735
  112OSM    C1511499   4.697   0.939   6.167  0.5851  0.1379  0.5013
  112OSM   H15A11500   4.626   0.981   6.097  1.1918  2.5835  1.2431
  112OSM   H15B11501   4.684   0.832   6.177 -1.8967  0.4912  1.6479
  112OSM   H15C11502   4.796   0.944   6.124  0.1839 -0.1409 -0.4933
  112OSM    C1411503   4.554   0.984   6.353  0.2053  0.2475  0.4163
  112OSM   H14A11504   4.536   1.005   6.457 -1.6989 -0.9491  0.3854
  112OSM   H14B11505   4.528   0.880   6.338  1.5678  0.0033 -0.4778
  112OSM   H14C11506   4.477   1.048   6.312 -1.1533 -0.1383  2.2281
  112OSM    C1311507   4.803   0.956   6.388 -0.2176 -0.5672  0.6833
  112OSM   H13A11508   4.808   1.011   6.480  5.0256  0.0074  0.3289
  112OSM   H13B11509   4.900   0.951   6.342 -0.6383 -1.8120 -0.1209
  112OSM   H13C11510   4.772   0.853   6.401  1.1819 -1.1344 -0.2884
  112OSM    C1211511   4.700   1.162   6.273 -0.7016  0.1344 -0.1847
  112OSM   H12A11512   4.792   1.186   6.222 -1.0595  2.9846  0.3801
  112OSM   H12B11513   4.709   1.212   6.368  1.3148 -1.3165  0.4706
  112OSM    C1111514   4.587   1.228   6.192 -0.1520 -0.0694  0.1473
  112OSM   H11A11515   4.604   1.337   6.206 -1.2427 -0.0662  1.6771
  112OSM   H11B11516   4.494   1.217   6.252 -0.0815 -1.8285 -0.0140
  112OSM      P11517   4.640   1.297   5.946 -0.0959 -0.2494  0.1880
  112OSM    O1311518   4.560   1.420   5.922  0.6361  0.1299  0.0031
  112OSM    O1411519   4.785   1.322   5.976 -0.3027 -0.3430 -0.3962
  112OSM    O1111520   4.632   1.218   5.810  0.4438 -0.4965 -0.1562
  112OSM    O1211521   4.570   1.194   6.054  0.4669  0.1323 -0.1694
  112OSM    C1S11522   4.742   1.144   5.759 -0.5143  0.3430  0.1513
  112OSM    H1S11523   4.766   1.046   5.806 -0.3602  0.4591  0.3183
  112OSM    H1T11524   4.840   1.196   5.750  1.6394 -3.6726 -3.1796
  112OSM     NF11525   4.808   0.994   5.575 -0.3733  0.4043  0.6358
  112OSM    HNF11526   4.890   1.040   5.541 -1.3475 -0.0927 -2.7087
  112OSM    C2S11527   4.708   1.095   5.611 -0.4170 -0.4531  0.0468
  112OSM    H2S11528   4.613   1.038   5.625 -0.3828 -0.5963 -0.2932
  112OSM    C3S11529   4.690   1.207   5.510  1.0946 -0.3004 -0.6631
  112OSM    H3S11530   4.784   1.266   5.515  0.6806  0.7392 -3.2363
  112OSM     O311531   4.591   1.303   5.542 -0.0468  0.2476  0.4587
  112OSM    HO311532   4.582   1.281   5.635  2.5055 -1.0974  0.4693
  112OSM    C4S11533   4.664   1.140   5.376  0.0706  0.3885  0.2045
  112OSM    H4S11534   4.755   1.126   5.316  0.6510  0.4165  1.0610
  112OSM    C5S11535   4.546   1.097   5.324 -0.3668 -0.1115 -0.1858
  112OSM    H5S11536   4.455   1.128   5.376  1.1455 -0.1025  2.7120
  112OSM    C6S11537   4.536   1.033   5.186 -0.7095 -0.7981  0.2306
  112OSM    H6S11538   4.454   1.080   5.128  0.8832  1.1840 -0.5308
  112OSM    H6T11539   4.528   0.922   5.194  1.6097 -1.0464 -0.3634
  112OSM    C7S11540   4.650   1.048   5.077  0.5858 -0.1318 -0.1657
  112OSM    H7S11541   4.735   0.983   5.105  2.6103  2.8248  1.0675
  112OSM    H7T11542   4.683   1.154   5.085  0.8136 -0.1402 -0.9594
  112OSM    C8S11543   4.607   1.015   4.934  0.6421 -0.9643  0.3269
  112OSM    H8S11544   4.529   1.085   4.897  1.9327  0.7838  0.7858
  112OSM    H8T11545   4.572   0.911   4.920 -0.5239 -0.7686  1.6009
  112OSM    C9S11546   4.725   1.052   4.839 -0.7992 -1.2363 -0.0168
  112OSM    H9S11547   4.788   0.963   4.859 -0.5378 -1.2880 -0.9879
  112OSM    H9T11548   4.775   1.146   4.870 -0.6369 -1.4806  0.4599
  112OSM   C10S11549   4.689   1.065   4.694 -0.0432 -0.3423 -0.4788
  112OSM   H10S11550   4.603   1.135   4.683 -1.3128 -1.6423  0.7926
  112OSM   H10T11551   4.649   0.969   4.656  2.1996 -2.0418  1.1368
  112OSM   C11S11552   4.811   1.093   4.602 -0.8247  0.3841  0.3632
  112OSM   H11S11553   4.878   1.004   4.593 -0.3879  0.8301 -1.0667
  112OSM   H11T11554   4.879   1.175   4.632  0.9925 -0.1809 -1.9187
  112OSM   C12S11555   4.765   1.105   4.460 -0.0240 -0.0294  0.7216
  112OSM   H12S11556   4.693   1.188   4.445  1.0652  1.1191  1.6140
  112OSM   H12T11557   4.712   1.020   4.414  0.5784  0.5707 -1.2062
  112OSM   C13S11558   4.887   1.145   4.367  0.9065 -0.1153  0.3647
  112OSM   H13S11559   4.962   1.065   4.382  0.3810 -0.6358  0.2421
  112OSM   H13T11560   4.917   1.242   4.412  0.9474  0.3406 -0.6147
  112OSM   C14S11561   4.854   1.175   4.215 -0.4410  0.0508  0.2318
  112OSM   H14S11562   4.760   1.234   4.223 -1.4619 -1.0609 -2.3577
  112OSM   H14T11563   4.833   1.080   4.163 -0.8711 -0.0591  0.6002
  112OSM   C15S11564   4.968   1.248   4.145 -0.1880  0.1547  0.2265
  112OSM   H15S11565   4.942   1.273   4.039 -0.3903 -3.0466 -0.5869
  112OSM   H15T11566   5.059   1.184   4.147  0.1723  0.6757  0.3905
  112OSM   C16S11567   4.994   1.386   4.199  0.0374  0.3220  0.1604
  112OSM   H16S11568   5.068   1.435   4.132 -1.7281  2.6470 -0.1947
  112OSM   H16T11569   5.034   1.376   4.302 -2.7496  2.5266  1.5819
  112OSM   C17S11570   4.880   1.486   4.202 -0.3890 -0.3480 -0.1644
  112OSM   H17S11571   4.919   1.554   4.281  1.3520  1.2348 -2.2499
  112OSM   H17T11572   4.791   1.441   4.250  0.4406 -0.5618  1.2139
  112OSM   C18S11573   4.843   1.570   4.078 -0.5398  0.2650  0.3424
  112OSM   H18S11574   4.936   1.594   4.024 -0.5514  0.5292  0.4401
  112OSM   H18T11575   4.780   1.657   4.107 -2.1202 -0.5510 -0.5194
  112OSM   H18U11576   4.774   1.523   4.005 -3.5041  2.2331  1.6738
  112OSM    C1F11577   4.814   0.867   5.597  0.3488  0.7815  0.2659
  112OSM     OF11578   4.721   0.814   5.659  0.5322  0.4020 -0.2452
  112OSM    C2F11579   4.940   0.795   5.554  0.2573 -0.5034 -0.1635
  112OSM    H2F11580   4.965   0.724   5.635  1.0986 -1.6204 -1.3615
  112OSM    H2G11581   5.027   0.861   5.533 -0.7451  0.5791 -1.0203
  112OSM    C3F11582   4.923   0.704   5.430 -0.0004 -0.1928  0.3663
  112OSM    H3F11583   4.866   0.612   5.453  0.2520  0.2331  2.9917
  112OSM    H3G11584   5.023   0.662   5.406 -0.2351 -1.2726  1.2182
  112OSM    C4F11585   4.881   0.770   5.303  0.0104  0.4996  0.0140
  112OSM    H4F11586   4.955   0.852   5.291  0.6335 -0.2788 -1.9829
  112OSM    H4G11587   4.786   0.821   5.332 -0.8408 -0.4375 -1.0258
  112OSM    C5F11588   4.867   0.672   5.197  0.7445  0.2335  0.6440
  112OSM    H5F11589   4.783   0.606   5.227  0.8430 -0.3482 -0.3190
  112OSM    H5G11590   4.958   0.612   5.179  0.3044  0.4028 -3.0806
  112OSM    C6F11591   4.827   0.727   5.057 -0.0271  0.4580  0.6436
  112OSM    H6F11592   4.894   0.811   5.027  1.8909 -1.9817 -2.5440
  112OSM    H6G11593   4.723   0.764   5.053 -0.2864 -0.3467 -2.8159
  112OSM    C7F11594   4.831   0.616   4.959 -0.1565  0.0868  0.1505
  112OSM    H7F11595   4.770   0.539   5.011 -1.3200  2.2010  2.1512
  112OSM    H7G11596   4.936   0.580   4.955 -0.3172 -0.2585 -3.0839
  112OSM    C8F11597   4.782   0.652   4.817 -0.1622 -0.2662  0.2069
  112OSM    H8F11598   4.846   0.732   4.773 -1.4290 -0.3612 -1.9150
  112OSM    H8G11599   4.674   0.677   4.823 -0.4588 -1.4352 -0.1265
  112OSM    C9F11600   4.799   0.532   4.730  0.3202  0.1945  0.3876
  112OSM    H9F11601   4.759   0.443   4.780 -0.9831  1.4154  1.6217
  112OSM   C10F11602   4.826   0.522   4.598 -0.4234  0.3661  0.0158
  112OSM   H10F11603   4.793   0.427   4.554 -2.6669  0.2713  1.7208
  112OSM   C11F11604   4.859   0.630   4.497 -1.1106  0.0217 -0.1839
  112OSM   H11F11605   4.945   0.598   4.435 -1.1882 -1.9574  0.6497
  112OSM   H11G11606   4.889   0.726   4.544  0.5580 -0.2772 -0.5820
  112OSM   C12F11607   4.746   0.659   4.401 -0.0400  0.2416 -0.3999
  112OSM   H12F11608   4.655   0.715   4.432 -0.3077  0.9841 -2.3694
  112OSM   H12G11609   4.720   0.554   4.372  0.1352  0.2601 -0.6263
  112OSM   C13F11610   4.790   0.741   4.287 -0.2581 -0.4756 -0.0063
  112OSM   H13F11611   4.858   0.819   4.328 -1.4505  0.9533 -0.6651
  112OSM   H13G11612   4.700   0.789   4.243  0.0850  1.4780  1.2794
  112OSM   C14F11613   4.860   0.653   4.175  0.4624 -0.0218  0.3251
  112OSM   H14F11614   4.788   0.621   4.097  1.7562 -0.7301 -0.6083
  112OSM   H14G11615   4.912   0.564   4.216  3.4056  2.0542  1.4843
  112OSM   C15F11616   4.962   0.736   4.105  0.5123  0.1117 -0.4228
  112OSM   H15F11617   5.046   0.761   4.172  1.7968  1.1300 -2.3184
  112OSM   H15G11618   4.931   0.839   4.076  0.4583  0.2780  0.2269
  112OSM   C16F11619   5.037   0.668   3.996 -1.0276  0.2230  0.3546
  112OSM   H16F11620   4.966   0.644   3.914 -2.0117 -0.3554  1.3514
  112OSM   H16G11621   5.097   0.580   4.027 -1.3423  0.0323  0.4256
  112OSM   C17F11622   5.150   0.752   3.940  0.6650 -0.4268 -0.0335
  112OSM   H17F11623   5.215   0.790   4.022 -2.0213  2.1037  1.1134
  112OSM   H17G11624   5.115   0.849   3.899 -0.3649 -0.0415  1.6676
  112OSM   C18F11625   5.208   0.670   3.823 -0.8409  0.2141  0.0674
  112OSM   H18F11626   5.261   0.581   3.863 -1.4331  0.9932  2.7390
  112OSM   H18G11627   5.274   0.716   3.746 -1.0134  1.7895  0.8400
  112OSM   H18H11628   5.128   0.622   3.762 -0.7961 -2.6504  2.0718
  113OSM      N11629   0.683   3.597   6.211  0.2777 -0.4340 -0.5546
  113OSM    C1511630   0.713   3.726   6.276 -0.7249  0.0708 -0.1332
  113OSM   H15A11631   0.793   3.780   6.229 -0.1327  1.9400  2.7670
  113OSM   H15B11632   0.737   3.707   6.380 -1.4933  2.0028  0.4492
  113OSM   H15C11633   0.620   3.782   6.274 -0.7632 -0.0227 -1.3312
  113OSM    C1411634   0.787   3.495   6.229 -0.7351  0.2182  0.0350
  113OSM   H14A11635   0.880   3.523   6.181  1.5498 -2.3373  2.5530
  113OSM   H14B11636   0.753   3.402   6.186  2.3951 -2.1167  2.1016
  113OSM   H14C11637   0.819   3.481   6.332  0.0357  0.9284 -0.0990
  113OSM    C1311638   0.553   3.542   6.270  0.2830  0.5068  0.2437
  113OSM   H13A11639   0.517   3.467   6.200  0.2911  0.9290 -0.2215
  113OSM   H13B11640   0.484   3.625   6.267  0.5991  0.7856 -2.5462
  113OSM   H13C11641   0.567   3.503   6.369  1.4109 -1.3141 -0.5717
  113OSM    C1211642   0.675   3.633   6.065 -0.1036 -0.2780  0.2266
  113OSM   H12A11643   0.771   3.672   6.035 -0.5048  0.8127  0.3431
  113OSM   H12B11644   0.628   3.730   6.060  0.5767  0.0053 -1.0375
  113OSM    C1111645   0.623   3.535   5.958 -0.5256 -1.1461  0.0865
  113OSM   H11A11646   0.710   3.465   5.955 -0.1331 -0.6464 -0.2863
  113OSM   H11B11647   0.620   3.593   5.863 -1.9862 -0.0745  0.7567
  113OSM      P11648   0.377   3.482   5.913  0.2108  0.1260 -0.2813
  113OSM    O1311649   0.286   3.382   5.965 -0.3388  0.2011 -0.2980
  113OSM    O1411650   0.333   3.626   5.908  0.3381 -0.2994 -0.0021
  113OSM    O1111651   0.431   3.436   5.772 -0.6574 -0.0322  0.2150
  113OSM    O1211652   0.504   3.467   5.996 -0.2690 -0.0838 -0.3221
  113OSM    C1S11653   0.506   3.310   5.760 -0.2311  0.0182  0.2372
  113OSM    H1S11654   0.441   3.224   5.786 -2.0629  0.7574 -1.6460
  113OSM    H1T11655   0.602   3.305   5.817 -0.4945  0.3793  0.7213
  113OSM     NF11656   0.615   3.162   5.591 -0.2665 -0.6635  0.7037
  113OSM    HNF11657   0.711   3.150   5.566 -0.4831 -2.1940  0.5035
  113OSM    C2S11658   0.546   3.290   5.611 -0.4687  0.2903  0.3315
  113OSM    H2S11659   0.450   3.289   5.554 -0.3561 -0.8252  0.1583
  113OSM    C3S11660   0.638   3.403   5.549 -0.0980  0.4927 -0.5015
  113OSM    H3S11661   0.743   3.390   5.585 -0.0042  0.3090 -0.8381
  113OSM     O311662   0.605   3.532   5.590 -0.1611 -0.2206 -0.2531
  113OSM    HO311663   0.539   3.514   5.657  0.3791  0.6885  0.5574
  113OSM    C4S11664   0.656   3.384   5.404 -0.4830  0.5018 -0.1984
  113OSM    H4S11665   0.728   3.304   5.381 -0.3870  1.0413 -1.9298
  113OSM    C5S11666   0.591   3.448   5.306  0.1563 -0.1268 -0.1102
  113OSM    H5S11667   0.502   3.508   5.329 -0.8273 -1.9143  1.0006
  113OSM    C6S11668   0.607   3.430   5.161  0.0626  0.0942  0.4526
  113OSM    H6S11669   0.511   3.444   5.105  0.4884  1.0042 -0.0750
  113OSM    H6T11670   0.625   3.322   5.143 -0.6270 -0.7614  4.1480
  113OSM    C7S11671   0.707   3.530   5.104 -0.1833  0.6949 -0.2969
  113OSM    H7S11672   0.802   3.501   5.153 -0.0308 -0.5961 -1.3032
  113OSM    H7T11673   0.693   3.634   5.139 -2.0955 -0.3901  2.4739
  113OSM    C8S11674   0.717   3.524   4.941  0.1849 -0.1241 -1.1162
  113OSM    H8S11675   0.616   3.547   4.902 -1.5242 -3.6538  0.7664
  113OSM    H8T11676   0.748   3.431   4.889 -0.8129 -0.6909 -0.7138
  113OSM    C9S11677   0.803   3.639   4.893  0.2825 -0.1225 -0.2914
  113OSM    H9S11678   0.907   3.636   4.932  0.2895  1.0620 -0.2047
  113OSM    H9T11679   0.765   3.733   4.937  0.2308  0.1108 -0.8305
  113OSM   C10S11680   0.810   3.641   4.736 -0.5489  0.0849  0.2117
  113OSM   H10S11681   0.709   3.653   4.691 -0.2253  0.7135 -0.3565
  113OSM   H10T11682   0.859   3.550   4.696  3.9013  2.2465  0.2513
  113OSM   C11S11683   0.902   3.753   4.680  0.0483 -0.7387 -0.1488
  113OSM   H11S11684   0.998   3.745   4.737  0.3915  0.8110 -0.4562
  113OSM   H11T11685   0.848   3.847   4.704 -1.1542 -1.8224  1.6068
  113OSM   C12S11686   0.918   3.736   4.532  0.3078  0.0341  0.3895
  113OSM   H12S11687   0.821   3.716   4.481  1.0939  0.3999 -1.2961
  113OSM   H12T11688   0.973   3.643   4.508 -2.9415 -1.7332 -0.9076
  113OSM   C13S11689   0.985   3.860   4.469  0.4845 -0.8847  0.5343
  113OSM   H13S11690   1.092   3.854   4.497  0.3078  0.1419  1.4941
  113OSM   H13T11691   0.935   3.944   4.521 -0.3461 -1.3117  0.4381
  113OSM   C14S11692   0.980   3.875   4.312  0.0694  0.3002  0.2885
  113OSM   H14S11693   0.876   3.904   4.289 -0.0746  1.6516  2.3187
  113OSM   H14T11694   0.999   3.773   4.271  1.2412 -0.0915  1.6965
  113OSM   C15S11695   1.072   3.982   4.254 -0.1570  0.3597 -0.3449
  113OSM   H15S11696   1.175   3.974   4.293  0.1569  0.5829 -1.1069
  113OSM   H15T11697   1.044   4.083   4.290  1.5620  0.2419  1.4940
  113OSM   C16S11698   1.067   3.987   4.101 -0.3686  0.0607  0.5533
  113OSM   H16S11699   0.970   4.015   4.055 -1.4476 -4.1008 -0.1454
  113OSM   H16T11700   1.068   3.881   4.067 -1.7526 -0.1136  1.0100
  113OSM   C17S11701   1.188   4.066   4.045  0.0784 -0.2179 -0.1797
  113OSM   H17S11702   1.287   4.021   4.027 -0.0603 -0.4426 -0.3799
  113OSM   H17T11703   1.215   4.138   4.125  0.2700 -0.2794 -0.1894
  113OSM   C18S11704   1.154   4.150   3.918 -0.0107  0.1654 -0.3244
  113OSM   H18S11705   1.101   4.077   3.853 -1.4845 -0.9448  2.0230
  113OSM   H18T11706   1.251   4.164   3.865  0.2715 -1.4575 -0.2813
  113OSM   H18U11707   1.096   4.244   3.935  0.3705  0.3418  0.0131
  113OSM    C1F11708   0.551   3.048   5.606  0.1153 -0.4425 -0.3711
  113OSM     OF11709   0.429   3.043   5.609 -0.4362 -0.5154  0.2453
  113OSM    C2F11710   0.640   2.929   5.608  1.0240  0.2442  0.1220
  113OSM    H2F11711   0.669   2.896   5.710 -1.2336 -1.3669  0.3201
  113OSM    H2G11712   0.734   2.957   5.557 -0.4808  1.2965 -2.2539
  113OSM    C3F11713   0.583   2.805   5.536  0.3215  0.0000 -0.1337
  113OSM    H3F11714   0.492   2.781   5.596 -0.1772  0.3784 -0.7346
  113OSM    H3G11715   0.662   2.727   5.541  1.3592  1.0788  0.7640
  113OSM    C4F11716   0.529   2.837   5.392  0.5316  0.4118 -0.3912
  113OSM    H4F11717   0.469   2.928   5.410  1.5690  0.8393  1.0728
  113OSM    H4G11718   0.469   2.753   5.351 -0.7275  1.3290 -0.4868
  113OSM    C5F11719   0.648   2.871   5.297  0.1270  0.4312 -0.3926
  113OSM    H5F11720   0.707   2.777   5.294 -0.6006 -0.1726  1.8219
  113OSM    H5G11721   0.716   2.943   5.347  2.0248 -0.8732 -0.9995
  113OSM    C6F11722   0.597   2.932   5.161  0.0344 -0.4590  0.1139
  113OSM    H6F11723   0.565   2.842   5.105 -0.8235  0.8156 -1.5205
  113OSM    H6G11724   0.684   2.975   5.108  0.5231 -0.0955  1.1797
  113OSM    C7F11725   0.478   3.028   5.168 -1.0071  0.1511 -0.4760
  113OSM    H7F11726   0.506   3.107   5.241 -1.8743  1.0061 -1.0521
  113OSM    H7G11727   0.382   2.978   5.192  0.8992 -3.1295  0.9861
  113OSM    C8F11728   0.471   3.106   5.042  0.6069  0.1227  0.1179
  113OSM    H8F11729   0.576   3.133   5.017  1.4460 -2.5579  0.4526
  113OSM    H8G11730   0.421   3.204   5.061  0.8992  0.4334 -0.6575
  113OSM    C9F11731   0.401   3.039   4.925 -0.0452  0.5557  0.2714
  113OSM    H9F11732   0.330   2.966   4.966  0.0473  0.1977 -0.2004
  113OSM   C10F11733   0.428   3.067   4.800 -0.0680 -0.3039  0.6306
  113OSM   H10F11734   0.371   3.003   4.732 -1.0924 -0.8783  1.9778
  113OSM   C11F11735   0.516   3.171   4.742 -0.0202  0.6582 -0.2239
  113OSM   H11F11736   0.583   3.107   4.682 -0.5738 -1.4395  1.2840
  113OSM   H11G11737   0.569   3.223   4.825 -1.9890  1.3469  0.6883
  113OSM   C12F11738   0.450   3.264   4.640 -0.0871 -0.2071  0.8704
  113OSM   H12F11739   0.516   3.350   4.614 -0.2710 -0.6246 -1.1199
  113OSM   H12G11740   0.363   3.307   4.695  1.1051  0.9244  1.9299
  113OSM   C13F11741   0.417   3.189   4.508  0.5834 -0.1847 -0.5042
  113OSM   H13F11742   0.374   3.089   4.531 -0.7083  0.8040  1.7589
  113OSM   H13G11743   0.514   3.181   4.455  0.7774 -0.2916 -0.1360
  113OSM   C14F11744   0.320   3.291   4.437  0.4709 -0.5395 -0.2444
  113OSM   H14F11745   0.327   3.278   4.327 -3.1444 -0.5854 -0.5898
  113OSM   H14G11746   0.353   3.396   4.452 -1.1908  0.0929 -0.7321
  113OSM   C15F11747   0.165   3.282   4.473 -0.8507 -0.5369 -0.2326
  113OSM   H15F11748   0.133   3.388   4.469 -0.0152 -0.2398  0.6587
  113OSM   H15G11749   0.148   3.246   4.577 -0.3916 -1.1166 -0.3521
  113OSM   C16F11750   0.069   3.197   4.388  0.1291 -0.5205 -0.1533
  113OSM   H16F11751   0.098   3.091   4.408  1.0901  0.1468  2.3869
  113OSM   H16G11752   0.091   3.229   4.284  0.5256  1.0130  0.3846
  113OSM   C17F11753  -0.079   3.225   4.408  0.0840  0.7093 -0.2340
  113OSM   H17F11754  -0.096   3.330   4.375 -1.4246  0.9859  1.2460
  113OSM   H17G11755  -0.102   3.208   4.515  1.3548  1.2186  0.1342
  113OSM   C18F11756  -0.160   3.128   4.315  0.0525 -0.0829 -0.0793
  113OSM   H18F11757  -0.269   3.146   4.323  0.0748 -0.6647  2.5831
  113OSM   H18G11758  -0.148   3.023   4.352 -1.4120  0.9381  3.8082
  113OSM   H18H11759  -0.125   3.141   4.211 -1.2569 -1.6513 -0.7518
  114OSM      N11760   6.618   2.455   6.088  0.3148 -0.4350  0.2243
  114OSM    C1511761   6.497   2.413   6.165  0.0535  0.0159 -0.4243
  114OSM   H15A11762   6.422   2.491   6.165  0.1313  0.0900 -0.3347
  114OSM   H15B11763   6.516   2.391   6.269  0.1536  3.7341  0.4787
  114OSM   H15C11764   6.465   2.320   6.120 -1.1206  0.7484 -1.1557
  114OSM    C1411765   6.660   2.584   6.144 -0.3178 -0.8961 -0.1794
  114OSM   H14A11766   6.747   2.613   6.088 -0.8541 -0.7299 -0.9297
  114OSM   H14B11767   6.683   2.585   6.250 -3.0389 -1.0120  0.4942
  114OSM   H14C11768   6.588   2.663   6.128  0.8484  0.6177  1.5754
  114OSM    C1311769   6.724   2.357   6.107 -0.2167  0.2216  0.2849
  114OSM   H13A11770   6.805   2.359   6.035  0.0181 -2.2728  0.4050
  114OSM   H13B11771   6.690   2.256   6.095  0.8725 -0.1738  0.3884
  114OSM   H13C11772   6.759   2.346   6.209 -1.9700 -0.8116  0.8065
  114OSM    C1211773   6.593   2.472   5.941  0.2107  0.4476  0.8934
  114OSM   H12A11774   6.680   2.517   5.896 -0.4562  1.0215  0.1481
  114OSM   H12B11775   6.517   2.547   5.929 -1.0189 -0.9364 -0.4074
  114OSM    C1111776   6.537   2.355   5.858  0.0472  0.3135 -0.2541
  114OSM   H11A11777   6.616   2.277   5.854  1.0892  1.1722  1.9031
  114OSM   H11B11778   6.527   2.382   5.751 -4.0445 -1.1202 -0.3812
  114OSM      P11779   6.279   2.379   5.857 -0.1243  0.1398 -0.0063
  114OSM    O1311780   6.170   2.318   5.939  0.9102 -0.2772 -0.0581
  114OSM    O1411781   6.304   2.524   5.870  0.5799 -0.2315  0.2465
  114OSM    O1111782   6.258   2.342   5.705  0.1503 -1.4636  0.2216
  114OSM    O1211783   6.409   2.306   5.903 -0.3876  0.5582  0.5620
  114OSM    C1S11784   6.180   2.231   5.654 -0.1548  0.0554 -0.0982
  114OSM    H1S11785   6.074   2.257   5.673  0.5141  1.2966  2.2718
  114OSM    H1T11786   6.197   2.142   5.718 -1.5927 -0.5533 -0.5295
  114OSM     NF11787   6.097   2.090   5.462 -0.0920  0.6861  0.0521
  114OSM    HNF11788   6.123   1.994   5.463  0.4567  0.8293  1.1576
  114OSM    C2S11789   6.200   2.183   5.507  0.6691 -0.3818 -0.5162
  114OSM    H2S11790   6.179   2.279   5.455 -1.2564  0.0043  0.8399
  114OSM    C3S11791   6.345   2.138   5.485  0.1407 -0.4868  0.0472
  114OSM    H3S11792   6.373   2.038   5.523  2.0282 -0.5478 -1.3683
  114OSM     O311793   6.440   2.229   5.540  0.0033 -0.1686  0.5380
  114OSM    HO311794   6.387   2.298   5.580 -2.3284 -2.3013  1.3573
  114OSM    C4S11795   6.369   2.122   5.334  0.4791  0.2462  0.5433
  114OSM    H4S11796   6.351   2.016   5.308 -0.2170  0.7424 -1.1401
  114OSM    C5S11797   6.428   2.213   5.250  0.7814  0.6684 -0.9830
  114OSM    H5S11798   6.459   2.310   5.293  0.4410  0.9879 -1.4508
  114OSM    C6S11799   6.463   2.198   5.105  0.5027  0.1631  0.7322
  114OSM    H6S11800   6.416   2.106   5.064  0.7629  0.0202  0.7489
  114OSM    H6T11801   6.571   2.175   5.091  0.6549  1.6438 -0.6907
  114OSM    C7S11802   6.431   2.314   5.010 -0.2765 -0.3228 -0.0045
  114OSM    H7S11803   6.484   2.400   5.055  0.2076  0.5493 -2.1315
  114OSM    H7T11804   6.323   2.342   5.003 -0.2957 -0.5658 -0.8672
  114OSM    C8S11805   6.490   2.281   4.870 -0.3133  0.0390 -0.1774
  114OSM    H8S11806   6.440   2.201   4.812  0.0398  0.1401 -0.6266
  114OSM    H8T11807   6.597   2.251   4.863 -0.9177 -1.7393 -3.8589
  114OSM    C9S11808   6.487   2.401   4.780  0.1251 -0.9952 -0.3009
  114OSM    H9S11809   6.552   2.379   4.693  0.2524 -0.2841 -0.3941
  114OSM    H9T11810   6.530   2.491   4.829 -1.1379  1.1075 -2.8204
  114OSM   C10S11811   6.343   2.434   4.731 -0.3491 -0.6689 -0.7452
  114OSM   H10S11812   6.260   2.413   4.802  0.0920 -0.2417 -0.0843
  114OSM   H10T11813   6.320   2.368   4.645 -0.5689 -2.2651  0.4859
  114OSM   C11S11814   6.327   2.580   4.693 -0.4299  0.2301  0.7270
  114OSM   H11S11815   6.387   2.611   4.605  0.6409  0.0237  1.3683
  114OSM   H11T11816   6.370   2.642   4.774  0.7849  0.8987 -0.3825
  114OSM   C12S11817   6.179   2.630   4.688 -0.2410 -0.3793  0.2418
  114OSM   H12S11818   6.168   2.736   4.656 -2.0059  0.0679  2.1374
  114OSM   H12T11819   6.133   2.634   4.789 -0.4845  2.5159  0.1044
  114OSM   C13S11820   6.089   2.545   4.601  0.8312 -0.1777 -0.0712
  114OSM   H13S11821   5.985   2.582   4.614  0.7887 -0.2880 -0.0904
  114OSM   H13T11822   6.081   2.442   4.643 -0.2786 -0.6804 -1.4452
  114OSM   C14S11823   6.122   2.531   4.452 -0.4561 -0.2956  0.4195
  114OSM   H14S11824   6.083   2.429   4.430 -2.1411  0.2630  0.6945
  114OSM   H14T11825   6.230   2.528   4.426 -0.4113  2.1604  0.0940
  114OSM   C15S11826   6.058   2.638   4.360 -0.0729  0.4766  0.9099
  114OSM   H15S11827   6.079   2.616   4.253  1.5302 -0.0074  1.3059
  114OSM   H15T11828   6.111   2.734   4.381 -0.9430  1.3084 -0.4849
  114OSM   C16S11829   5.902   2.656   4.371 -1.2828  0.0022 -0.4484
  114OSM   H16S11830   5.873   2.687   4.474 -1.3154  2.0899 -1.0443
  114OSM   H16T11831   5.862   2.554   4.351 -1.5102 -0.3352  1.5569
  114OSM   C17S11832   5.841   2.758   4.269  0.8281  0.0133  0.2800
  114OSM   H17S11833   5.731   2.744   4.277  0.7865 -0.6058 -1.1496
  114OSM   H17T11834   5.868   2.712   4.172 -4.5371 -2.5930 -0.3544
  114OSM   C18S11835   5.877   2.898   4.294  0.0145  0.1511 -0.3116
  114OSM   H18S11836   5.817   2.965   4.229  0.7921  0.9388 -0.2254
  114OSM   H18T11837   5.985   2.908   4.269  0.2475  0.0164  0.6022
  114OSM   H18U11838   5.867   2.941   4.396 -0.6085  0.0622 -0.3303
  114OSM    C1F11839   5.983   2.144   5.427  0.2174 -0.6042 -0.1131
  114OSM     OF11840   5.955   2.261   5.447  0.1513 -0.6307  0.5435
  114OSM    C2F11841   5.872   2.053   5.368 -0.2250  0.1395  0.3335
  114OSM    H2F11842   5.791   2.069   5.443  0.6021  2.0372  0.8579
  114OSM    H2G11843   5.907   1.947   5.364 -1.2351 -0.1583 -1.6496
  114OSM    C3F11844   5.834   2.116   5.225  0.4875 -0.6239  0.3045
  114OSM    H3F11845   5.824   2.226   5.217  0.4126 -0.7138 -1.3920
  114OSM    H3G11846   5.742   2.069   5.184 -0.5851  1.5657  0.0405
  114OSM    C4F11847   5.954   2.071   5.134  0.3688  0.3686 -0.0546
  114OSM    H4F11848   5.945   1.962   5.113 -0.2028  0.4727 -0.3808
  114OSM    H4G11849   6.056   2.095   5.170  0.7299 -0.1195 -0.7089
  114OSM    C5F11850   5.946   2.151   5.007 -0.1458 -0.0113  0.4356
  114OSM    H5F11851   5.972   2.258   5.022 -0.8068  0.2434 -0.2308
  114OSM    H5G11852   5.846   2.156   4.959 -1.6955  1.2196  3.4489
  114OSM    C6F11853   6.030   2.080   4.909  0.1511 -0.2705  0.5295
  114OSM    H6F11854   5.978   1.986   4.880  0.8786 -1.1125  1.8702
  114OSM    H6G11855   6.129   2.058   4.954  0.6738  0.3973 -0.2644
  114OSM    C7F11856   6.072   2.161   4.780 -0.7093 -0.2899  0.7105
  114OSM    H7F11857   6.144   2.238   4.814  0.5080 -0.8862 -0.4264
  114OSM    H7G11858   5.989   2.218   4.732 -1.4088 -0.5587  1.5642
  114OSM    C8F11859   6.133   2.074   4.674 -0.6748  0.1649  0.1313
  114OSM    H8F11860   6.077   1.978   4.687  0.2899 -0.5810 -1.0086
  114OSM    H8G11861   6.228   2.035   4.715 -0.0773  0.7296 -0.6966
  114OSM    C9F11862   6.148   2.130   4.530  0.3083  0.7555  0.2268
  114OSM    H9F11863   6.215   2.217   4.522  2.6056 -0.8624  0.7888
  114OSM   C10F11864   6.100   2.064   4.418  0.0287  0.1613  0.3919
  114OSM   H10F11865   6.106   2.130   4.330  0.4131  1.7781  1.5876
  114OSM   C11F11866   6.024   1.941   4.419  0.7503  0.0368  0.6200
  114OSM   H11F11867   5.918   1.964   4.394  0.3659 -1.5004  0.7507
  114OSM   H11G11868   6.023   1.894   4.520 -1.0066 -2.1678 -0.3200
  114OSM   C12F11869   6.073   1.838   4.311 -0.0919  0.1158 -0.7428
  114OSM   H12F11870   6.178   1.813   4.337  0.7118  3.4319 -0.4337
  114OSM   H12G11871   6.073   1.887   4.211  1.1644 -1.3937 -1.5352
  114OSM   C13F11872   5.973   1.716   4.288  0.8011 -0.8914 -0.8431
  114OSM   H13F11873   5.877   1.767   4.262  2.2158  0.8229 -3.1886
  114OSM   H13G11874   5.965   1.657   4.381 -0.2479  0.4716 -0.0240
  114OSM   C14F11875   6.024   1.635   4.173 -0.3858 -0.6233 -0.0698
  114OSM   H14F11876   6.130   1.614   4.199  0.1939 -0.1633 -1.9133
  114OSM   H14G11877   6.024   1.713   4.094 -0.5496 -0.8146 -0.2577
  114OSM   C15F11878   5.944   1.521   4.145  0.2498  0.4745  0.5881
  114OSM   H15F11879   5.853   1.559   4.095 -0.2999 -1.7087 -0.2010
  114OSM   H15G11880   5.915   1.468   4.238  0.2139  2.4441  1.7380
  114OSM   C16F11881   6.002   1.408   4.054  0.1142  0.4476 -0.4667
  114OSM   H16F11882   5.996   1.448   3.950 -2.9803  1.5803  0.0328
  114OSM   H16G11883   5.926   1.328   4.058 -1.8990  2.2711 -0.0020
  114OSM   C17F11884   6.146   1.351   4.086  0.1147 -0.7379 -0.9812
  114OSM   H17F11885   6.126   1.297   4.181 -2.2903 -0.6660 -1.3634
  114OSM   H17G11886   6.215   1.437   4.098  0.1505 -1.1629  3.6870
  114OSM   C18F11887   6.198   1.273   3.969 -0.3698  0.2960  0.8378
  114OSM   H18F11888   6.278   1.204   4.003 -1.2441 -0.6488  1.0265
  114OSM   H18G11889   6.240   1.344   3.895 -0.6250 -0.0275  0.3733
  114OSM   H18H11890   6.122   1.209   3.919  1.3095 -0.2286 -1.2202
  115OSM      N11891   6.625   4.562   6.052 -0.3156 -1.1225 -0.5963
  115OSM    C1511892   6.644   4.439   5.979  0.6236  0.2246 -0.2250
  115OSM   H15A11893   6.649   4.455   5.873 -0.2407  1.2921 -0.1200
  115OSM   H15B11894   6.561   4.376   6.009 -0.1099  1.7920  1.1873
  115OSM   H15C11895   6.738   4.390   6.003 -0.7210 -2.1724  0.5429
  115OSM    C1411896   6.672   4.537   6.190 -0.8924  0.4878  0.1589
  115OSM   H14A11897   6.779   4.536   6.207 -0.9057  1.8904  0.4445
  115OSM   H14B11898   6.635   4.440   6.222 -3.7539  1.4824  0.1676
  115OSM   H14C11899   6.638   4.617   6.254  0.2110  0.6373  0.5839
  115OSM    C1311900   6.711   4.675   5.994  0.3715  0.3150  0.3106
  115OSM   H13A11901   6.685   4.703   5.893  0.6376  0.8737  0.3897
  115OSM   H13B11902   6.817   4.658   5.993  0.5173  1.1965  0.1313
  115OSM   H13C11903   6.701   4.765   6.053  2.0866  1.0516 -0.4752
  115OSM    C1211904   6.476   4.606   6.054 -0.9619 -0.1108 -1.1027
  115OSM   H12A11905   6.466   4.707   6.092  1.8080  0.9042 -2.8017
  115OSM   H12B11906   6.415   4.537   6.110 -0.3551 -1.7866 -2.4514
  115OSM    C1111907   6.404   4.606   5.915 -0.1853  0.8561 -0.6725
  115OSM   H11A11908   6.401   4.507   5.865  3.2424 -0.0025  0.5309
  115OSM   H11B11909   6.472   4.664   5.850  1.0054 -1.0353 -1.2013
  115OSM      P11910   6.260   4.819   5.938  0.1484  0.3100  0.0737
  115OSM    O1311911   6.117   4.834   5.986  0.0365 -0.0546  0.1471
  115OSM    O1411912   6.364   4.872   6.026  0.5460 -0.2385  0.0386
  115OSM    O1111913   6.281   4.867   5.788  0.0789 -0.2964  0.0274
  115OSM    O1211914   6.273   4.656   5.925 -0.2398 -0.2717  0.6283
  115OSM    C1S11915   6.239   4.793   5.677  0.2253 -0.0228  1.0301
  115OSM    H1S11916   6.128   4.794   5.667  0.3767  0.6893 -0.9109
  115OSM    H1T11917   6.270   4.686   5.685  0.1865 -0.0401  0.9486
  115OSM     NF11918   6.195   4.806   5.434 -0.5273  0.0765 -0.2875
  115OSM    HNF11919   6.239   4.747   5.367 -2.1924 -0.5201 -0.8984
  115OSM    C2S11920   6.278   4.858   5.544  0.7171 -0.4978 -0.4950
  115OSM    H2S11921   6.255   4.966   5.551  0.3364 -0.6913  2.1853
  115OSM    C3S11922   6.432   4.851   5.530  0.2906 -0.5593 -0.4455
  115OSM    H3S11923   6.452   4.743   5.510 -0.3769 -0.8780  0.5330
  115OSM     O311924   6.510   4.889   5.649  0.8015 -0.4853  0.9061
  115OSM    HO311925   6.439   4.899   5.714  2.3619  0.5187  2.5401
  115OSM    C4S11926   6.483   4.918   5.408 -0.0767 -0.1371  0.1351
  115OSM    H4S11927   6.473   4.848   5.324 -0.9615  1.2566 -0.9614
  115OSM    C5S11928   6.528   5.048   5.395 -0.1880 -0.6729  0.4453
  115OSM    H5S11929   6.539   5.113   5.483 -0.9079 -0.9468  0.7445
  115OSM    C6S11930   6.583   5.097   5.261  1.3525 -0.3850  0.0882
  115OSM    H6S11931   6.677   5.154   5.275  0.2753  1.7294 -0.9041
  115OSM    H6T11932   6.510   5.173   5.227  0.3274 -1.5166 -0.3442
  115OSM    C7S11933   6.603   4.985   5.160 -0.2321 -0.7257  0.3089
  115OSM    H7S11934   6.505   4.939   5.135 -0.1320 -0.6338 -0.2797
  115OSM    H7T11935   6.669   4.910   5.207  1.0162 -0.0725 -0.3318
  115OSM    C8S11936   6.661   5.036   5.028  0.1947  0.2628  0.6352
  115OSM    H8S11937   6.758   5.090   5.033  0.2475  0.3883 -1.0570
  115OSM    H8T11938   6.581   5.106   4.995  0.3448 -0.7261 -2.1243
  115OSM    C9S11939   6.663   4.924   4.921  0.2473  0.5795 -0.4955
  115OSM    H9S11940   6.559   4.885   4.914  0.6671 -0.9081  0.8836
  115OSM    H9T11941   6.736   4.846   4.951 -1.1922 -0.3709  0.6840
  115OSM   C10S11942   6.707   4.970   4.783  0.0815  0.5714  0.0873
  115OSM   H10S11943   6.732   4.874   4.732  0.5736 -0.3035  1.8724
  115OSM   H10T11944   6.805   5.022   4.784  0.8149 -0.6864 -1.1967
  115OSM   C11S11945   6.596   5.047   4.714  0.2338 -0.3160  1.1829
  115OSM   H11S11946   6.573   5.139   4.773 -0.8059  0.0060  0.3044
  115OSM   H11T11947   6.506   4.982   4.720 -0.5798  0.5452 -0.7580
  115OSM   C12S11948   6.622   5.058   4.563 -0.0309 -0.9021 -0.7120
  115OSM   H12S11949   6.542   5.122   4.520 -0.3379 -1.2409 -0.6506
  115OSM   H12T11950   6.617   4.962   4.506 -1.9064 -0.5615 -1.1802
  115OSM   C13S11951   6.753   5.116   4.519  0.2222 -0.0945 -0.2401
  115OSM   H13S11952   6.836   5.050   4.552 -1.0321 -0.0690  3.4729
  115OSM   H13T11953   6.772   5.218   4.558 -1.3480  0.8063 -1.7056
  115OSM   C14S11954   6.755   5.129   4.364 -0.4232  0.0280  0.2393
  115OSM   H14S11955   6.832   5.209   4.358  0.8011 -1.1189  0.1530
  115OSM   H14T11956   6.652   5.157   4.335 -0.8659  1.2760  2.7572
  115OSM   C15S11957   6.812   5.002   4.298  0.7590  0.8139  0.3914
  115OSM   H15S11958   6.729   4.929   4.292 -0.4450  1.6844  3.8657
  115OSM   H15T11959   6.880   4.948   4.368  0.3175 -0.1674  0.0692
  115OSM   C16S11960   6.884   5.018   4.164 -0.7437  0.1533  0.4086
  115OSM   H16S11961   6.951   5.106   4.177 -0.3134 -0.2076  0.6774
  115OSM   H16T11962   6.823   5.042   4.075  0.2940  0.5817 -0.2112
  115OSM   C17S11963   6.972   4.894   4.130  0.6857 -0.3010  0.1935
  115OSM   H17S11964   6.897   4.812   4.124 -0.8730  1.1225 -0.6288
  115OSM   H17T11965   7.041   4.878   4.216 -0.0748 -0.7856  0.7222
  115OSM   C18S11966   7.049   4.908   4.000 -0.3275 -0.3725 -0.1070
  115OSM   H18S11967   7.113   4.817   3.991 -2.3904 -1.8193 -0.8646
  115OSM   H18T11968   7.103   5.005   4.012 -0.5604 -0.2710  0.1260
  115OSM   H18U11969   6.983   4.923   3.913 -1.1422 -0.4302  0.4894
  115OSM    C1F11970   6.071   4.833   5.421  0.4878  0.2548 -0.0721
  115OSM     OF11971   6.026   4.930   5.472  0.2934 -0.2941 -0.0516
  115OSM    C2F11972   5.984   4.732   5.353 -0.3726  0.8536 -0.6667
  115OSM    H2F11973   5.886   4.716   5.403 -1.4299 -1.6807 -3.2939
  115OSM    H2G11974   6.043   4.639   5.341 -0.4792  0.7129 -0.1301
  115OSM    C3F11975   5.947   4.770   5.207  0.1648  0.1457  0.5809
  115OSM    H3F11976   5.889   4.865   5.200 -1.8535 -1.0935 -0.4790
  115OSM    H3G11977   5.893   4.688   5.155 -1.0589  1.4285 -0.2308
  115OSM    C4F11978   6.059   4.810   5.118 -0.0211 -0.5585  0.0413
  115OSM    H4F11979   6.108   4.714   5.090  1.1261  0.0160  0.0520
  115OSM    H4G11980   6.130   4.874   5.174 -1.5048  3.2867 -2.0674
  115OSM    C5F11981   6.017   4.881   4.984  0.2064 -0.2075  0.1789
  115OSM    H5F11982   5.956   4.965   5.022 -0.8187  0.6503 -3.0704
  115OSM    H5G11983   5.956   4.812   4.921 -0.9556  0.9155  0.0467
  115OSM    C6F11984   6.136   4.908   4.897  0.2939  0.0362 -0.0696
  115OSM    H6F11985   6.204   4.821   4.886 -0.0847 -0.1848 -0.6855
  115OSM    H6G11986   6.187   4.993   4.949  0.7864  0.3818 -1.0895
  115OSM    C7F11987   6.105   4.958   4.750  0.1946 -0.2776 -0.5068
  115OSM    H7F11988   6.070   5.064   4.752 -0.5086 -0.5167  0.0276
  115OSM    H7G11989   6.018   4.896   4.721  1.3840 -1.7213 -1.0986
  115OSM    C8F11990   6.225   4.946   4.646  0.0887  0.2871  0.3782
  115OSM    H8F11991   6.308   5.008   4.685 -1.0774  3.5864 -1.9409
  115OSM    H8G11992   6.195   5.006   4.557  1.0125  1.6389  0.9423
  115OSM    C9F11993   6.260   4.800   4.627  0.4312  0.3589  0.2286
  115OSM    H9F11994   6.319   4.749   4.705 -1.3424 -1.6055  0.3771
  115OSM   C10F11995   6.226   4.723   4.526  0.4234 -0.0422  0.9161
  115OSM   H10F11996   6.270   4.623   4.516  2.0831  0.6125  1.2993
  115OSM   C11F11997   6.151   4.752   4.397 -0.0514 -0.2741  0.4954
  115OSM   H11F11998   6.081   4.836   4.418 -1.0440 -1.1632  0.8362
  115OSM   H11G11999   6.086   4.664   4.374  0.2926 -0.6214  0.8422
  115OSM   C12F12000   6.251   4.776   4.284  0.3879  0.2710  0.0583
  115OSM   H12F12001   6.334   4.702   4.291 -0.8291 -1.0021  2.0130
  115OSM   H12G12002   6.305   4.872   4.297 -0.3775  0.4580  2.2381
  115OSM   C13F12003   6.185   4.763   4.147  0.1596  0.0427 -0.2613
  115OSM   H13F12004   6.240   4.832   4.080 -0.3477  0.7534  0.0451
  115OSM   H13G12005   6.081   4.801   4.155 -0.4374 -1.7687  1.5810
  115OSM   C14F12006   6.168   4.615   4.098  0.2965 -1.3226 -0.8801
  115OSM   H14F12007   6.110   4.566   4.180  0.4482  2.9402  2.1116
  115OSM   H14G12008   6.272   4.576   4.096  0.8277 -0.0278 -0.1111
  115OSM   C15F12009   6.109   4.632   3.953  0.1806  0.1335  0.6321
  115OSM   H15F12010   6.177   4.704   3.902 -0.2051 -0.1471 -0.2986
  115OSM   H15G12011   6.007   4.676   3.954  0.6952  1.3517  0.8637
  115OSM   C16F12012   6.113   4.497   3.881  0.3876 -0.1298 -0.1205
  115OSM   H16F12013   6.027   4.484   3.812  1.0652 -0.6135 -0.8944
  115OSM   H16G12014   6.091   4.430   3.967 -2.3866 -0.8102 -1.2345
  115OSM   C17F12015   6.240   4.460   3.810 -0.8316 -0.1337 -0.4875
  115OSM   H17F12016   6.240   4.353   3.777  1.4519 -0.2501 -0.3222
  115OSM   H17G12017   6.329   4.456   3.877 -1.3676  0.8909  0.2986
  115OSM   C18F12018   6.269   4.551   3.691 -0.4146  0.0393 -0.2580
  115OSM   H18F12019   6.183   4.545   3.621 -0.5978 -1.5409  0.0624
  115OSM   H18G12020   6.363   4.516   3.645  0.7588  1.5419  0.8919
  115OSM   H18H12021   6.286   4.657   3.720  0.8418  0.1204 -1.2534
  116OSM      N12022   6.171   1.143   5.973  0.2838  0.4581  0.0483
  116OSM    C1512023   6.192   1.139   5.826 -0.5116  1.0101 -0.0211
  116OSM   H15A12024   6.118   1.199   5.775 -1.2344  0.3989  0.2804
  116OSM   H15B12025   6.182   1.039   5.787  0.2235  0.5137  1.0153
  116OSM   H15C12026   6.285   1.184   5.795  0.1924 -1.0180 -1.0121
  116OSM    C1412027   6.026   1.110   6.007 -0.3905 -0.5008  0.4755
  116OSM   H14A12028   5.997   1.015   5.966 -2.9116  0.4588 -0.1934
  116OSM   H14B12029   5.964   1.181   5.953  1.9542  1.0375 -0.3544
  116OSM   H14C12030   6.012   1.116   6.114  1.0319 -1.7549  0.7628
  116OSM    C1312031   6.254   1.032   6.034  0.0787 -0.2659  0.6086
  116OSM   H13A12032   6.249   1.048   6.141 -0.1004  0.9943  0.4219
  116OSM   H13B12033   6.355   1.037   5.995  0.1789  0.1295  0.9127
  116OSM   H13C12034   6.204   0.937   6.020 -1.2338  0.3629  0.8718
  116OSM    C1212035   6.208   1.278   6.031 -0.0583  0.2620  0.8805
  116OSM   H12A12036   6.307   1.310   6.003  1.3214 -1.3919  3.4430
  116OSM   H12B12037   6.216   1.269   6.139  3.9951 -2.0525  0.5757
  116OSM    C1112038   6.119   1.394   5.977 -0.4159  0.3596 -0.1396
  116OSM   H11A12039   6.028   1.401   6.040 -1.3777  0.7890 -1.5170
  116OSM   H11B12040   6.089   1.368   5.874  0.1402  0.9818 -0.4699
  116OSM      P12041   6.150   1.646   5.928  0.0091 -0.5068 -0.0465
  116OSM    O1312042   6.006   1.651   5.967 -0.0870  0.2218  0.1994
  116OSM    O1412043   6.247   1.739   5.989 -0.9960  0.5145  0.0391
  116OSM    O1112044   6.167   1.631   5.767  0.0689 -0.7391  0.0524
  116OSM    O1212045   6.203   1.509   5.976  0.5378  0.3445 -0.3089
  116OSM    C1S12046   6.277   1.554   5.724  0.1266  0.3733  0.1347
  116OSM    H1S12047   6.272   1.444   5.739  0.2630  0.2241 -0.8490
  116OSM    H1T12048   6.371   1.584   5.776 -0.0833 -0.4181  1.0062
  116OSM     NF12049   6.409   1.492   5.527  0.1729  0.2632  0.5531
  116OSM    HNF12050   6.488   1.548   5.505  0.8012 -1.0482 -0.7223
  116OSM    C2S12051   6.297   1.570   5.570 -0.6477 -0.1418  0.1480
  116OSM    H2S12052   6.201   1.533   5.528 -0.1862 -1.0790 -0.1205
  116OSM    C3S12053   6.325   1.714   5.537  0.9695 -0.1233 -0.0495
  116OSM    H3S12054   6.421   1.730   5.591  0.8506 -1.8453  0.7239
  116OSM     O312055   6.237   1.811   5.595 -0.4114 -0.3582  0.3537
  116OSM    HO312056   6.194   1.770   5.671 -0.4819  0.3617  0.7074
  116OSM    C4S12057   6.344   1.742   5.395  0.4817  0.0288 -0.1010
  116OSM    H4S12058   6.249   1.776   5.352  1.3756  2.3636 -0.3722
  116OSM    C5S12059   6.459   1.751   5.328 -0.4188  0.0805 -0.1247
  116OSM    H5S12060   6.549   1.724   5.384 -1.4518  1.8687  2.6293
  116OSM    C6S12061   6.473   1.786   5.182 -0.2125  0.0690 -0.0425
  116OSM    H6S12062   6.535   1.707   5.133 -0.3637 -0.6695  0.9079
  116OSM    H6T12063   6.532   1.880   5.189  2.2127 -1.4441  1.8346
  116OSM    C7S12064   6.333   1.788   5.113  0.8546  0.4085 -0.3267
  116OSM    H7S12065   6.288   1.875   5.165 -0.0733 -0.1013 -0.2500
  116OSM    H7T12066   6.269   1.699   5.130  0.8637  0.2458 -1.1002
  116OSM    C8S12067   6.326   1.820   4.963  0.4982 -0.5077 -0.3219
  116OSM    H8S12068   6.346   1.928   4.948  0.9472 -0.4507  0.5964
  116OSM    H8T12069   6.222   1.800   4.932  0.5630 -0.0987 -0.8145
  116OSM    C9S12070   6.417   1.734   4.876 -0.6061  0.4978  0.0586
  116OSM    H9S12071   6.437   1.634   4.919 -0.8800  0.3048 -0.2646
  116OSM    H9T12072   6.518   1.781   4.879 -0.0555 -0.6650  2.4942
  116OSM   C10S12073   6.367   1.712   4.735 -0.0036 -0.3188 -0.4230
  116OSM   H10S12074   6.455   1.688   4.672  0.1128  1.0667 -0.8246
  116OSM   H10T12075   6.329   1.807   4.693  1.6201 -0.4774 -2.4394
  116OSM   C11S12076   6.261   1.599   4.729 -0.2436  0.7683 -0.1187
  116OSM   H11S12077   6.163   1.638   4.765 -1.1053 -0.9611 -0.5075
  116OSM   H11T12078   6.283   1.510   4.791  1.4468  2.2731  1.5599
  116OSM   C12S12079   6.235   1.563   4.579 -0.7799  0.8747 -0.2207
  116OSM   H12S12080   6.334   1.561   4.529 -0.3472  3.2502  0.4296
  116OSM   H12T12081   6.171   1.636   4.525 -1.6897 -0.9624 -1.7348
  116OSM   C13S12082   6.163   1.427   4.570  1.0510  0.1241  0.6523
  116OSM   H13S12083   6.211   1.352   4.636  1.1326  0.5717  1.1060
  116OSM   H13T12084   6.177   1.385   4.468  1.0435 -0.6153  0.9512
  116OSM   C14S12085   6.014   1.430   4.618 -0.2672 -0.5301  0.1888
  116OSM   H14S12086   5.958   1.497   4.550 -2.3224 -0.6037  1.7039
  116OSM   H14T12087   5.999   1.473   4.720 -1.8466  0.2175 -0.3287
  116OSM   C15S12088   5.948   1.291   4.635  0.0501  0.0392  0.5854
  116OSM   H15S12089   5.848   1.311   4.678  0.0581 -0.5283  0.8794
  116OSM   H15T12090   6.016   1.228   4.696  0.8986 -2.3342 -2.5244
  116OSM   C16S12091   5.929   1.218   4.500 -0.4175 -0.3374  0.0898
  116OSM   H16S12092   6.030   1.222   4.454 -0.3936  0.0286  0.1677
  116OSM   H16T12093   5.863   1.285   4.441  0.0129  1.3414  1.4125
  116OSM   C17S12094   5.874   1.078   4.530 -0.2127  0.7722 -0.2889
  116OSM   H17S12095   5.776   1.096   4.579 -0.7498 -4.6770  1.2187
  116OSM   H17T12096   5.929   1.024   4.609  0.5962  2.4127  0.3177
  116OSM   C18S12097   5.868   0.993   4.403 -0.2105 -0.4089  0.3703
  116OSM   H18S12098   5.793   1.023   4.326 -0.9169  1.0997  1.5912
  116OSM   H18T12099   5.864   0.889   4.441 -0.6044 -0.7916 -0.6678
  116OSM   H18U12100   5.970   0.990   4.358  0.6431  0.6504  2.1479
  116OSM    C1F12101   6.421   1.358   5.536 -0.5370 -0.1788 -0.5124
  116OSM     OF12102   6.325   1.288   5.569 -0.2572 -0.3323 -0.7342
  116OSM    C2F12103   6.551   1.287   5.506  0.7432 -0.1357  0.0253
  116OSM    H2F12104   6.532   1.179   5.495  1.0739 -0.0508 -1.7642
  116OSM    H2G12105   6.618   1.303   5.593  0.4836 -0.5505  0.3031
  116OSM    C3F12106   6.607   1.347   5.377 -0.3168 -0.1253 -0.1760
  116OSM    H3F12107   6.712   1.311   5.375  0.4664  1.4886  3.1911
  116OSM    H3G12108   6.624   1.457   5.374  1.3288 -0.1083  3.6494
  116OSM    C4F12109   6.531   1.292   5.260 -0.8346  0.0834  0.0623
  116OSM    H4F12110   6.422   1.303   5.281 -0.3293  2.0725  2.0747
  116OSM    H4G12111   6.529   1.181   5.263  0.5007 -0.0114 -1.4172
  116OSM    C5F12112   6.562   1.357   5.132 -0.0957  0.0762 -0.5798
  116OSM    H5F12113   6.576   1.466   5.145  1.0209 -0.1190 -0.0529
  116OSM    H5G12114   6.477   1.331   5.064 -0.9034 -2.6654  1.2904
  116OSM    C6F12115   6.673   1.298   5.042 -0.4894 -0.5748  0.1731
  116OSM    H6F12116   6.652   1.191   5.018  0.9352 -0.4052 -2.0853
  116OSM    H6G12117   6.767   1.276   5.097  0.0090 -1.2418 -0.9321
  116OSM    C7F12118   6.695   1.401   4.922 -0.6471  0.1900  0.1293
  116OSM    H7F12119   6.750   1.489   4.963 -0.0354 -1.1504  2.3771
  116OSM    H7G12120   6.603   1.421   4.864  0.3064 -1.1172 -1.9571
  116OSM    C8F12121   6.790   1.343   4.814 -0.1023 -0.5814 -0.5601
  116OSM    H8F12122   6.785   1.236   4.786  0.9527 -0.1111 -2.7657
  116OSM    H8G12123   6.890   1.339   4.862 -0.1262  0.1186 -0.4404
  116OSM    C9F12124   6.785   1.436   4.692 -0.2579  0.5379 -0.2123
  116OSM    H9F12125   6.867   1.509   4.683  1.3878 -1.2081 -0.0047
  116OSM   C10F12126   6.692   1.424   4.597  0.0155  0.6936 -0.2513
  116OSM   H10F12127   6.713   1.494   4.515  0.1243  0.2393 -0.6166
  116OSM   C11F12128   6.580   1.322   4.577 -0.6317  0.0922  0.4625
  116OSM   H11F12129   6.483   1.371   4.600  0.2366  1.7520  0.7378
  116OSM   H11G12130   6.579   1.237   4.648  0.3706 -1.2960 -1.0849
  116OSM   C12F12131   6.563   1.272   4.432 -0.1567  0.1068 -0.3930
  116OSM   H12F12132   6.469   1.213   4.425  0.4629 -0.7425 -2.1240
  116OSM   H12G12133   6.647   1.201   4.414  0.9953  1.1912  0.5179
  116OSM   C13F12134   6.560   1.380   4.317 -0.1542  0.1139  0.1781
  116OSM   H13F12135   6.648   1.447   4.305 -0.4631  0.0702 -3.2432
  116OSM   H13G12136   6.463   1.429   4.339 -1.5967 -2.5302  0.0526
  116OSM   C14F12137   6.546   1.319   4.171  0.0603 -0.3097 -0.3548
  116OSM   H14F12138   6.534   1.400   4.096 -0.7457  0.1070  0.2167
  116OSM   H14G12139   6.451   1.262   4.166 -0.8361  1.1423 -0.2693
  116OSM   C15F12140   6.657   1.234   4.119 -0.0326  0.2270 -0.2229
  116OSM   H15F12141   6.625   1.175   4.030  0.9179  0.7822 -0.9527
  116OSM   H15G12142   6.691   1.148   4.182  0.1019 -0.8403 -1.6921
  116OSM   C16F12143   6.777   1.314   4.091  0.2924  0.3099 -1.0441
  116OSM   H16F12144   6.819   1.331   4.193 -0.8728 -0.2210 -0.4474
  116OSM   H16G12145   6.749   1.408   4.041 -0.5125  1.1313  0.8384
  116OSM   C17F12146   6.882   1.238   4.007 -0.5309 -0.0979  0.2661
  116OSM   H17F12147   6.871   1.127   4.011 -1.5103  0.0182  1.2682
  116OSM   H17G12148   6.976   1.252   4.064  0.1685 -2.0451 -0.3088
  116OSM   C18F12149   6.884   1.292   3.863 -0.2353  0.2578 -0.5674
  116OSM   H18F12150   6.938   1.389   3.861  2.0148 -0.9430 -1.1401
  116OSM   H18G12151   6.786   1.308   3.813 -0.9940  0.2208  0.8316
  116OSM   H18H12152   6.950   1.225   3.804 -1.2956  1.0373 -2.7144
  117OSM      N12153   0.197   5.249   6.173 -0.6771  0.2305  0.5552
  117OSM    C1512154   0.059   5.267   6.218 -0.5828  0.0497  0.1308
  117OSM   H15A12155   0.008   5.173   6.231  0.9666 -1.1303 -1.7687
  117OSM   H15B12156  -0.003   5.330   6.155 -1.3201  1.5079  2.2312
  117OSM   H15C12157   0.062   5.305   6.318  0.6567 -2.3616  1.1017
  117OSM    C1412158   0.266   5.139   6.253  0.1736  0.2257 -0.1367
  117OSM   H14A12159   0.374   5.140   6.250  0.3171 -1.8102  1.9569
  117OSM   H14B12160   0.229   5.041   6.226  2.0061 -0.5638  0.1120
  117OSM   H14C12161   0.260   5.149   6.360 -0.8435  1.2984 -0.2710
  117OSM    C1312162   0.194   5.204   6.028 -0.3195  0.4121 -0.2583
  117OSM   H13A12163   0.298   5.187   6.004 -0.1858  1.7005 -0.6500
  117OSM   H13B12164   0.140   5.281   5.974 -1.0373  0.3320  0.3259
  117OSM   H13C12165   0.139   5.112   6.013 -0.3937  0.5071 -0.5727
  117OSM    C1212166   0.274   5.379   6.188  0.2490 -0.8089 -0.1973
  117OSM   H12A12167   0.271   5.398   6.295 -1.3411 -0.0318 -0.3448
  117OSM   H12B12168   0.218   5.458   6.141 -1.6676 -1.7199  0.4561
  117OSM    C1112169   0.411   5.392   6.124 -0.1937 -0.2646  0.2999
  117OSM   H11A12170   0.440   5.499   6.126 -1.4726  0.1224  3.0050
  117OSM   H11B12171   0.397   5.356   6.020 -1.2696  0.5749  0.1327
  117OSM      P12172   0.601   5.345   6.287 -0.1343  0.3359  0.0941
  117OSM    O1312173   0.529   5.448   6.370  0.2893  0.0639 -0.1567
  117OSM    O1412174   0.667   5.227   6.360 -0.6800 -0.0722 -0.1243
  117OSM    O1112175   0.710   5.428   6.201 -0.1544  0.4917  0.3168
  117OSM    O1212176   0.503   5.298   6.180 -0.3139  0.0608  0.7612
  117OSM    C1S12177   0.760   5.369   6.079  0.5925  0.2133 -0.0585
  117OSM    H1S12178   0.713   5.268   6.075  0.2473  0.2198  2.4069
  117OSM    H1T12179   0.870   5.354   6.073  0.4726 -0.3498 -1.2963
  117OSM     NF12180   0.748   5.376   5.828  0.1127 -0.1533 -0.0187
  117OSM    HNF12181   0.822   5.394   5.764 -2.6678  0.7969 -3.3420
  117OSM    C2S12182   0.715   5.445   5.949  0.3129 -0.0145 -0.6856
  117OSM    H2S12183   0.608   5.466   5.930  0.2148 -0.3617 -0.5184
  117OSM    C3S12184   0.786   5.583   5.968  0.3225 -0.5385 -0.1718
  117OSM    H3S12185   0.894   5.562   5.987  0.1939 -0.6987  0.4094
  117OSM     O312186   0.736   5.661   6.083  0.4221  0.2154  0.0469
  117OSM    HO312187   0.686   5.599   6.136 -1.6109  2.8085  1.4227
  117OSM    C4S12188   0.774   5.670   5.846 -0.1041  0.1208  0.0922
  117OSM    H4S12189   0.835   5.635   5.761  0.7943 -0.4325  0.9508
  117OSM    C5S12190   0.671   5.753   5.817 -0.6831 -0.4810 -0.2570
  117OSM    H5S12191   0.593   5.767   5.894  0.9755 -2.3058  1.9041
  117OSM    C6S12192   0.644   5.825   5.688  0.2859  0.3329 -0.2545
  117OSM    H6S12193   0.655   5.930   5.723  0.2400  0.2052  0.1373
  117OSM    H6T12194   0.543   5.790   5.659  0.4565  0.8657 -1.5732
  117OSM    C7S12195   0.741   5.788   5.568  0.3681 -0.4132 -0.7803
  117OSM    H7S12196   0.774   5.682   5.565 -0.3967 -0.8807  2.7455
  117OSM    H7T12197   0.832   5.841   5.602 -0.8647  0.4448  1.3825
  117OSM    C8S12198   0.686   5.822   5.434  0.2113 -0.3691  0.5409
  117OSM    H8S12199   0.652   5.927   5.428 -1.3918 -0.8848 -0.1424
  117OSM    H8T12200   0.599   5.753   5.419  0.8416 -0.8536 -1.1229
  117OSM    C9S12201   0.776   5.788   5.315 -0.2301  0.0757  0.4053
  117OSM    H9S12202   0.798   5.680   5.311 -0.5769 -0.0482  1.6425
  117OSM    H9T12203   0.865   5.854   5.324 -1.0838  1.5418 -1.2331
  117OSM   C10S12204   0.704   5.822   5.183 -0.0338  0.2960 -0.2623
  117OSM   H10S12205   0.681   5.931   5.186  0.4297  0.3721  2.1700
  117OSM   H10T12206   0.619   5.751   5.179 -0.0427  0.2556  0.5667
  117OSM   C11S12207   0.790   5.790   5.056 -0.0954  0.2583 -0.7513
  117OSM   H11S12208   0.827   5.685   5.065  1.8277  0.9343 -0.3941
  117OSM   H11T12209   0.877   5.858   5.057  0.2168 -0.1327 -0.8494
  117OSM   C12S12210   0.707   5.798   4.927  1.0310  0.1430 -0.1039
  117OSM   H12S12211   0.681   5.906   4.914  0.3708 -0.0653 -0.5830
  117OSM   H12T12212   0.614   5.741   4.944  1.3296  0.0072  1.1828
  117OSM   C13S12213   0.791   5.758   4.812  0.3587 -0.4406 -0.0403
  117OSM   H13S12214   0.786   5.649   4.791  0.1958 -0.3912 -0.2672
  117OSM   H13T12215   0.899   5.784   4.817  0.3791 -0.1738 -1.3422
  117OSM   C14S12216   0.746   5.818   4.676 -0.6688  0.0822 -0.5792
  117OSM   H14S12217   0.743   5.929   4.678  0.4730  0.1205 -0.0377
  117OSM   H14T12218   0.649   5.768   4.652 -0.0158 -1.7838  0.4522
  117OSM   C15S12219   0.845   5.778   4.569 -0.2865  0.5187 -0.0409
  117OSM   H15S12220   0.830   5.669   4.551 -0.2513  0.3161  1.0508
  117OSM   H15T12221   0.953   5.790   4.596  0.3580 -1.0371 -1.7378
  117OSM   C16S12222   0.819   5.870   4.442 -0.0176 -1.1886 -1.0367
  117OSM   H16S12223   0.900   5.864   4.366  2.2604  1.7343  0.8945
  117OSM   H16T12224   0.820   5.978   4.469  0.1503 -1.7898  1.5548
  117OSM   C17S12225   0.699   5.829   4.367 -0.0536  0.2775 -0.2700
  117OSM   H17S12226   0.609   5.871   4.417  1.7447  1.6200  2.0817
  117OSM   H17T12227   0.687   5.719   4.368 -0.5785  0.3132 -1.1631
  117OSM   C18S12228   0.679   5.877   4.225 -0.0769 -0.0153  0.7684
  117OSM   H18S12229   0.656   5.986   4.220  0.1277 -0.0067 -0.1382
  117OSM   H18T12230   0.592   5.828   4.175  0.2382 -0.9413  1.1218
  117OSM   H18U12231   0.769   5.853   4.165 -1.7141 -1.1132 -1.3830
  117OSM    C1F12232   0.688   5.264   5.790  1.0513 -0.8248  0.5406
  117OSM     OF12233   0.575   5.238   5.829  0.0239 -0.0034 -0.4004
  117OSM    C2F12234   0.764   5.176   5.695  0.7759  0.0424 -0.7604
  117OSM    H2F12235   0.745   5.069   5.719  0.6136 -0.1356 -1.6515
  117OSM    H2G12236   0.873   5.194   5.709  0.1930  2.2803  1.6982
  117OSM    C3F12237   0.744   5.189   5.535 -0.3697  0.1088 -0.7184
  117OSM    H3F12238   0.805   5.111   5.486 -0.4795 -1.2194  1.1586
  117OSM    H3G12239   0.779   5.287   5.496 -1.8001  1.3913  1.0280
  117OSM    C4F12240   0.597   5.176   5.484 -0.3416  0.5468 -0.2147
  117OSM    H4F12241   0.546   5.275   5.484 -0.7505  0.3393 -0.0228
  117OSM    H4G12242   0.542   5.099   5.542  0.0192  0.8486  0.5429
  117OSM    C5F12243   0.603   5.137   5.339 -0.0678 -0.0314  0.6094
  117OSM    H5F12244   0.656   5.041   5.327 -1.4487 -0.4812 -3.0845
  117OSM    H5G12245   0.675   5.202   5.285  2.9279 -2.8567  0.9244
  117OSM    C6F12246   0.470   5.134   5.260 -0.0530 -0.1798 -0.2445
  117OSM    H6F12247   0.408   5.055   5.309  0.3373 -0.0591  0.4491
  117OSM    H6G12248   0.475   5.097   5.156 -1.6107 -1.9978  0.2513
  117OSM    C7F12249   0.393   5.266   5.263 -1.1114 -0.6959 -0.2242
  117OSM    H7F12250   0.351   5.272   5.365  1.4488 -0.8653  0.9281
  117OSM    H7G12251   0.302   5.260   5.201 -0.7132  1.5479 -1.1426
  117OSM    C8F12252   0.466   5.402   5.207 -0.5198  0.2608  0.0882
  117OSM    H8F12253   0.555   5.419   5.271 -0.5091 -0.0199  0.1468
  117OSM    H8G12254   0.399   5.487   5.232 -0.6900 -0.3443  1.8064
  117OSM    C9F12255   0.516   5.389   5.064  0.2594  0.3298 -0.1567
  117OSM    H9F12256   0.595   5.319   5.035  0.0937  0.8388 -1.9474
  117OSM   C10F12257   0.460   5.457   4.965  1.2397 -1.3328  0.3197
  117OSM   H10F12258   0.496   5.459   4.861  1.7073  2.6502  0.3998
  117OSM   C11F12259   0.329   5.542   4.977  0.0042  0.0236  0.0812
  117OSM   H11F12260   0.309   5.580   5.079  0.2374 -0.9043  0.4830
  117OSM   H11G12261   0.240   5.478   4.959  0.3628 -0.0773 -1.4679
  117OSM   C12F12262   0.317   5.662   4.882  0.3125  0.6317 -0.1801
  117OSM   H12F12263   0.414   5.717   4.887  1.6161 -1.4609 -0.9574
  117OSM   H12G12264   0.235   5.730   4.913 -1.7678 -1.9523  0.3510
  117OSM   C13F12265   0.285   5.627   4.742 -0.8613  0.9664  0.3970
  117OSM   H13F12266   0.186   5.576   4.734 -0.3566  0.1876 -1.6664
  117OSM   H13G12267   0.355   5.549   4.706 -0.2885  1.7856 -0.3165
  117OSM   C14F12268   0.289   5.745   4.647  0.5446  0.1415  0.9157
  117OSM   H14F12269   0.395   5.778   4.656  0.6976 -0.2758  0.7231
  117OSM   H14G12270   0.211   5.814   4.684  0.8024  0.6210  0.5851
  117OSM   C15F12271   0.259   5.703   4.503  1.3746  0.3320 -0.1306
  117OSM   H15F12272   0.150   5.682   4.508  1.6985 -1.2583  1.5412
  117OSM   H15G12273   0.316   5.612   4.476 -0.5787 -0.4503 -1.8953
  117OSM   C16F12274   0.277   5.815   4.398 -0.0457  0.5851  0.2653
  117OSM   H16F12275   0.367   5.874   4.426  1.5136 -1.4344 -0.1880
  117OSM   H16G12276   0.183   5.874   4.402  1.0991  2.5547 -0.3506
  117OSM   C17F12277   0.298   5.767   4.251  0.2949  0.3688  0.1695
  117OSM   H17F12278   0.215   5.693   4.240 -0.0310  0.7874 -0.2217
  117OSM   H17G12279   0.396   5.715   4.245  0.6715  1.1492 -0.6989
  117OSM   C18F12280   0.275   5.884   4.154  0.2735  0.3417 -0.0293
  117OSM   H18F12281   0.288   5.858   4.047 -1.1107  0.3273 -0.2057
  117OSM   H18G12282   0.340   5.972   4.174 -0.5744  0.8490  0.5346
  117OSM   H18H12283   0.168   5.908   4.169  0.4001  0.1604  1.3806
  118OSM      N12284   0.425   4.006   5.869 -0.2167 -0.1547  0.4870
  118OSM    C1512285   0.473   4.128   5.805 -1.4006 -0.8018  0.7892
  118OSM   H15A12286   0.463   4.132   5.698  1.0190 -0.8115  0.4977
  118OSM   H15B12287   0.577   4.155   5.820 -0.8321 -2.1997 -0.3914
  118OSM   H15C12288   0.413   4.208   5.846  1.0327  0.4173  2.2272
  118OSM    C1412289   0.467   3.895   5.784  0.5880  0.6636  0.1116
  118OSM   H14A12290   0.410   3.806   5.806  2.1863  0.2252  3.1420
  118OSM   H14B12291   0.570   3.868   5.803 -0.1992 -1.7272  1.5238
  118OSM   H14C12292   0.459   3.926   5.681 -1.7132  0.8674  0.2976
  118OSM    C1312293   0.473   4.006   6.009  0.2637  0.7091  0.3963
  118OSM   H13A12294   0.420   3.935   6.071 -1.3738  2.9163  1.6580
  118OSM   H13B12295   0.452   4.103   6.050  0.9781  0.7389  0.7018
  118OSM   H13C12296   0.581   4.009   6.016  0.2502  3.3519  0.3272
  118OSM    C1212297   0.272   4.001   5.881 -0.9464 -0.4421  0.3442
  118OSM   H12A12298   0.241   3.901   5.906  0.1915 -1.2588 -1.2905
  118OSM   H12B12299   0.229   4.010   5.782  0.7873 -0.9608 -0.4991
  118OSM    C1112300   0.208   4.103   5.981 -0.5470  0.1012  0.1500
  118OSM   H11A12301   0.238   4.100   6.088  0.4373  1.2251 -0.0730
  118OSM   H11B12302   0.103   4.068   5.987 -0.5237 -0.1876 -0.8268
  118OSM      P12303   0.129   4.310   5.845 -0.0064  0.1256  0.0492
  118OSM    O1312304  -0.005   4.295   5.893 -0.0748  0.3014  0.4876
  118OSM    O1412305   0.179   4.444   5.820 -0.1618  0.1295  0.1790
  118OSM    O1112306   0.139   4.224   5.710  0.1817 -0.4117 -0.6844
  118OSM    O1212307   0.229   4.241   5.944  0.6527  0.3944 -0.3553
  118OSM    C1S12308   0.032   4.175   5.635 -0.0692  0.2487 -0.2069
  118OSM    H1S12309  -0.046   4.255   5.626 -0.0418  0.3602  0.4496
  118OSM    H1T12310  -0.015   4.085   5.680  1.7551 -2.6948 -3.7636
  118OSM     NF12311  -0.051   4.091   5.427 -0.0713  0.0990 -0.2988
  118OSM    HNF12312  -0.079   3.996   5.425 -0.2295  0.1465 -1.7424
  118OSM    C2S12313   0.065   4.136   5.491  0.1677 -0.1359 -0.2062
  118OSM    H2S12314   0.101   4.227   5.439 -0.5232  0.7831  0.8640
  118OSM    C3S12315   0.186   4.033   5.497 -0.0635 -0.0577 -0.0095
  118OSM    H3S12316   0.162   3.943   5.558  0.4835  0.5953  1.2043
  118OSM     O312317   0.304   4.081   5.555 -0.4967 -0.2025 -0.1281
  118OSM    HO312318   0.281   4.147   5.621  0.2744 -0.7446  0.7184
  118OSM    C4S12319   0.225   3.989   5.358  0.7579 -0.2334  0.3781
  118OSM    H4S12320   0.239   4.073   5.288  1.7743  0.3529  1.2587
  118OSM    C5S12321   0.229   3.860   5.314 -0.3714  0.3002  0.6761
  118OSM    H5S12322   0.191   3.772   5.368 -2.0732  0.3377 -0.3873
  118OSM    C6S12323   0.257   3.830   5.168 -0.1421 -0.4049  0.4256
  118OSM    H6S12324   0.165   3.780   5.129 -1.1977 -0.0085  2.2765
  118OSM    H6T12325   0.338   3.754   5.163  2.5967  2.3629  0.3919
  118OSM    C7S12326   0.285   3.951   5.072 -0.2283  0.0986 -0.2704
  118OSM    H7S12327   0.359   4.013   5.128  4.2124 -3.2960 -1.8142
  118OSM    H7T12328   0.189   3.994   5.037 -1.4641 -0.9811  1.6223
  118OSM    C8S12329   0.347   3.910   4.940 -0.4301 -0.8726 -0.5040
  118OSM    H8S12330   0.271   3.858   4.877  1.0933 -1.0859 -2.2302
  118OSM    H8T12331   0.432   3.842   4.961  0.6600  0.6955  0.3518
  118OSM    C9S12332   0.398   4.031   4.855 -0.7989 -0.2707 -0.3678
  118OSM    H9S12333   0.449   4.103   4.922  0.2678 -0.2643 -1.1670
  118OSM    H9T12334   0.315   4.082   4.801 -1.1352 -1.5085 -1.0722
  118OSM   C10S12335   0.527   4.002   4.762 -0.0245 -0.3341  0.1136
  118OSM   H10S12336   0.512   3.917   4.693  0.1492 -0.1485 -0.1528
  118OSM   H10T12337   0.622   3.970   4.811 -0.3944 -0.8191  0.5218
  118OSM   C11S12338   0.556   4.128   4.675  0.0634 -0.6087 -0.5737
  118OSM   H11S12339   0.593   4.208   4.743 -0.9765 -0.0810 -0.6155
  118OSM   H11T12340   0.467   4.170   4.624  0.7230  1.4480 -0.1256
  118OSM   C12S12341   0.676   4.113   4.579 -0.3767 -0.2652  0.3071
  118OSM   H12S12342   0.650   4.018   4.528  0.4283 -0.5744  0.4560
  118OSM   H12T12343   0.771   4.105   4.635  0.5959  1.5162 -0.9699
  118OSM   C13S12344   0.686   4.227   4.479  0.1650  0.0550  0.0206
  118OSM   H13S12345   0.714   4.322   4.530 -1.0902  1.6336 -2.0308
  118OSM   H13T12346   0.593   4.250   4.422 -0.3762 -0.2817  0.7487
  118OSM   C14S12347   0.791   4.212   4.368 -0.0454 -0.3783 -0.5100
  118OSM   H14S12348   0.770   4.118   4.313 -0.3396 -1.4826  1.3817
  118OSM   H14T12349   0.891   4.189   4.412 -0.1021  0.4071  0.0519
  118OSM   C15S12350   0.795   4.333   4.278 -0.1106 -0.0640 -0.0213
  118OSM   H15S12351   0.804   4.433   4.326 -0.7112 -0.1610  0.2994
  118OSM   H15T12352   0.694   4.351   4.237 -1.0647  0.8584  2.5420
  118OSM   C16S12353   0.906   4.323   4.166  0.0851 -0.7864  0.3658
  118OSM   H16S12354   0.905   4.228   4.108  1.3743  0.5502 -2.0162
  118OSM   H16T12355   1.005   4.340   4.213 -0.1831  1.3873  0.2713
  118OSM   C17S12356   0.888   4.428   4.053  0.2834 -0.4408  0.3591
  118OSM   H17S12357   0.796   4.405   3.995 -0.9885  0.2664  2.0297
  118OSM   H17T12358   0.969   4.404   3.981  0.7307 -2.7115  1.5380
  118OSM   C18S12359   0.900   4.571   4.107  0.3367 -0.1161  0.1073
  118OSM   H18S12360   0.818   4.598   4.176  0.3755  0.6678 -0.1361
  118OSM   H18T12361   0.907   4.647   4.026  1.6990 -0.9571 -0.6002
  118OSM   H18U12362   0.995   4.587   4.163  0.6721  0.9687 -0.7221
  118OSM    C1F12363  -0.140   4.169   5.370  0.2206  0.3265  0.8927
  118OSM     OF12364  -0.112   4.290   5.363  0.3086  0.0689 -0.0411
  118OSM    C2F12365  -0.267   4.109   5.323 -0.4663  0.0362  0.5292
  118OSM    H2F12366  -0.336   4.144   5.403 -0.5086  0.8963  0.1248
  118OSM    H2G12367  -0.256   3.999   5.312 -2.0234 -0.0584 -0.3232
  118OSM    C3F12368  -0.327   4.161   5.190  0.7516 -0.9038 -0.8951
  118OSM    H3F12369  -0.332   4.272   5.188 -0.5318 -0.9441 -0.8334
  118OSM    H3G12370  -0.434   4.131   5.189  0.6876 -0.6850 -0.5905
  118OSM    C4F12371  -0.266   4.119   5.051  0.1187  0.2248 -0.9068
  118OSM    H4F12372  -0.339   4.157   4.976 -1.4340 -0.2094  0.3256
  118OSM    H4G12373  -0.271   4.009   5.035 -0.9537 -0.2434  2.0099
  118OSM    C5F12374  -0.118   4.155   5.024  0.1161  0.5724 -0.4173
  118OSM    H5F12375  -0.055   4.161   5.115  1.1075 -0.4288 -1.0042
  118OSM    H5G12376  -0.120   4.258   4.984 -0.7586  1.0468  0.8199
  118OSM    C6F12377  -0.050   4.063   4.923 -1.0248 -0.2249  0.0405
  118OSM    H6F12378  -0.036   3.962   4.968 -1.7022 -0.7570 -0.9017
  118OSM    H6G12379   0.051   4.109   4.911  0.0836 -2.2193  1.1654
  118OSM    C7F12380  -0.115   4.061   4.781 -0.2281 -0.2871  0.2170
  118OSM    H7F12381  -0.160   4.161   4.758  0.8348 -0.4854 -3.1318
  118OSM    H7G12382  -0.185   3.974   4.783  0.6518 -1.0274 -0.6036
  118OSM    C8F12383  -0.013   4.024   4.667 -0.1902  0.0773  0.3755
  118OSM    H8F12384  -0.070   3.981   4.582  1.2679  0.7369 -0.9935
  118OSM    H8G12385   0.046   3.940   4.709 -0.0070 -1.1180 -2.0933
  118OSM    C9F12386   0.084   4.129   4.636 -0.0603 -0.1339  0.2426
  118OSM    H9F12387   0.131   4.173   4.725 -0.1762  2.4994 -0.9111
  118OSM   C10F12388   0.107   4.192   4.515 -0.4707 -0.3373 -0.5141
  118OSM   H10F12389   0.192   4.261   4.503 -0.8569 -0.1234 -2.3886
  118OSM   C11F12390   0.041   4.167   4.386  0.1505  0.2573 -0.0744
  118OSM   H11F12391   0.036   4.262   4.329 -2.3922 -1.1862 -2.5012
  118OSM   H11G12392  -0.063   4.131   4.401 -0.7601  1.6608 -2.4547
  118OSM   C12F12393   0.124   4.076   4.298 -0.2921  0.1835 -0.1022
  118OSM   H12F12394   0.072   4.053   4.203 -1.2548 -0.1540  0.4891
  118OSM   H12G12395   0.133   3.982   4.358 -1.3249  0.2882  0.2520
  118OSM   C13F12396   0.260   4.135   4.272  0.0700 -0.2569 -0.4865
  118OSM   H13F12397   0.320   4.129   4.366 -1.6856 -4.6068  0.6263
  118OSM   H13G12398   0.258   4.239   4.234 -1.5370  0.5247  1.5960
  118OSM   C14F12399   0.340   4.040   4.179  0.1189  0.2030  0.5308
  118OSM   H14F12400   0.289   4.025   4.081 -0.2694 -1.5136  0.9573
  118OSM   H14G12401   0.352   3.945   4.235 -0.4874 -1.0511 -1.3358
  118OSM   C15F12402   0.482   4.078   4.141  0.6843  0.0380  0.3162
  118OSM   H15F12403   0.545   4.078   4.232  0.0547 -2.9789  0.8498
  118OSM   H15G12404   0.467   4.183   4.105 -2.3979 -0.7858 -1.1990
  118OSM   C16F12405   0.535   3.976   4.034 -0.0106  0.7590  0.1272
  118OSM   H16F12406   0.486   3.998   3.937  0.9190  1.3918 -0.2198
  118OSM   H16G12407   0.504   3.873   4.059  0.5314  0.8508  1.2786
  118OSM   C17F12408   0.689   3.981   4.004 -0.3700  0.7175 -0.0726
  118OSM   H17F12409   0.742   3.982   4.101  0.9310 -3.2944 -0.5564
  118OSM   H17G12410   0.712   4.078   3.956 -3.7165  2.2345  1.1202
  118OSM   C18F12411   0.741   3.858   3.934  0.4156 -0.5493  0.0466
  118OSM   H18F12412   0.851   3.864   3.929  0.4085  1.6432  1.1329
  118OSM   H18G12413   0.697   3.840   3.833  2.0627  1.8612 -1.2022
  118OSM   H18H12414   0.712   3.773   3.999  1.6945  0.9021  2.6804
  119OSM      N12415   2.937   0.444   6.166 -0.0089 -0.4917  0.0368
  119OSM    C1512416   3.058   0.404   6.249  0.1959 -0.8262 -0.0922
  119OSM   H15A12417   3.131   0.356   6.186  0.7645 -0.5151  0.3156
  119OSM   H15B12418   3.040   0.333   6.329 -0.3038 -1.2560 -0.5777
  119OSM   H15C12419   3.117   0.486   6.287 -0.3301  0.4009 -1.8336
  119OSM    C1412420   2.860   0.323   6.118 -0.1944 -0.8245  0.4793
  119OSM   H14A12421   2.811   0.275   6.201 -1.6306 -3.3391 -1.6352
  119OSM   H14B12422   2.930   0.255   6.071 -0.1295  0.3195 -1.1917
  119OSM   H14C12423   2.785   0.348   6.043 -0.0116 -3.2694 -0.6277
  119OSM    C1312424   2.850   0.538   6.254 -0.0732 -0.1085 -0.6374
  119OSM   H13A12425   2.902   0.628   6.282 -1.5448  0.8804 -0.9521
  119OSM   H13B12426   2.828   0.499   6.352  1.2426  2.0576  0.5989
  119OSM   H13C12427   2.750   0.548   6.214 -0.7399  1.4152  1.2684
  119OSM    C1212428   2.992   0.526   6.047 -0.1639 -0.1797 -0.2256
  119OSM   H12A12429   3.046   0.615   6.076  0.0177 -0.2398 -0.3812
  119OSM   H12B12430   2.907   0.571   5.999 -2.2443 -3.6821 -0.1774
  119OSM    C1112431   3.071   0.454   5.944  0.1589  0.3223 -0.5525
  119OSM   H11A12432   3.093   0.516   5.854 -2.1388 -0.5746 -1.8016
  119OSM   H11B12433   3.006   0.373   5.905 -1.2874  0.8663  0.6390
  119OSM      P12434   3.309   0.496   6.022 -0.1880  0.2563  0.0806
  119OSM    O1312435   3.261   0.625   6.072  0.0788 -0.1384 -0.2055
  119OSM    O1412436   3.403   0.422   6.109 -0.4500 -0.3498 -0.0620
  119OSM    O1112437   3.378   0.513   5.880  0.3891  0.4168 -0.2031
  119OSM    O1212438   3.193   0.400   5.996 -0.6723 -0.0584  0.4793
  119OSM    C1S12439   3.448   0.404   5.812  0.8613 -0.8261 -0.5626
  119OSM    H1S12440   3.406   0.306   5.842  2.7300 -2.1824 -2.1363
  119OSM    H1T12441   3.552   0.401   5.851 -0.0360 -0.5684  2.0310
  119OSM     NF12442   3.500   0.287   5.604  0.1560 -0.2869  0.1908
  119OSM    HNF12443   3.587   0.295   5.555  0.4349 -2.4162  0.2540
  119OSM    C2S12444   3.450   0.415   5.658 -0.3475 -0.3873 -0.1119
  119OSM    H2S12445   3.345   0.424   5.622 -0.4205  2.2411  0.5841
  119OSM    C3S12446   3.516   0.552   5.612  0.4811  0.4286 -0.2647
  119OSM    H3S12447   3.625   0.561   5.631  0.5065 -0.9147  0.3158
  119OSM     O312448   3.454   0.667   5.677  0.6508 -0.2842 -0.3923
  119OSM    HO312449   3.416   0.620   5.752 -2.0550 -0.6893 -1.8808
  119OSM    C4S12450   3.510   0.562   5.468 -0.0390  1.5633  0.8049
  119OSM    H4S12451   3.603   0.517   5.431 -0.9199  0.5755 -0.3291
  119OSM    C5S12452   3.419   0.627   5.387 -0.5867  0.9813  0.4410
  119OSM    H5S12453   3.331   0.674   5.433 -1.4730 -1.3595  1.2544
  119OSM    C6S12454   3.431   0.641   5.233 -0.2874 -0.3802  0.3826
  119OSM    H6S12455   3.470   0.744   5.222 -1.8616  0.5809  2.9438
  119OSM    H6T12456   3.333   0.630   5.181 -1.1580 -1.8741  2.2015
  119OSM    C7S12457   3.520   0.546   5.157 -1.2020  0.7204  0.4913
  119OSM    H7S12458   3.502   0.438   5.176  1.4509 -0.1057 -1.1268
  119OSM    H7T12459   3.627   0.559   5.185 -0.1318 -0.3952 -2.6291
  119OSM    C8S12460   3.510   0.569   5.004 -0.4010 -0.4482  0.1734
  119OSM    H8S12461   3.514   0.677   4.977 -0.3849 -0.6914 -0.8232
  119OSM    H8T12462   3.412   0.535   4.964  0.9028 -1.3649 -2.4588
  119OSM    C9S12463   3.616   0.493   4.923 -0.1350 -0.1166 -0.2235
  119OSM    H9S12464   3.613   0.394   4.972  0.6027 -0.6601 -1.2381
  119OSM    H9T12465   3.715   0.542   4.932 -0.4140  0.0948  2.2645
  119OSM   C10S12466   3.572   0.485   4.771  0.8384 -0.5037 -0.0582
  119OSM   H10S12467   3.523   0.582   4.748 -3.3094 -2.4734 -0.2414
  119OSM   H10T12468   3.495   0.408   4.756  1.5467 -0.6548 -3.8824
  119OSM   C11S12469   3.686   0.458   4.676 -0.0644  0.3862  0.1426
  119OSM   H11S12470   3.747   0.370   4.705  2.0591  0.9413 -2.2796
  119OSM   H11T12471   3.762   0.539   4.677  0.5954 -0.1319 -2.2554
  119OSM   C12S12472   3.647   0.450   4.530  0.6662  0.6737  0.6673
  119OSM   H12S12473   3.735   0.475   4.466  1.3858 -1.9176  0.5172
  119OSM   H12T12474   3.571   0.524   4.498  0.2955 -0.4254 -1.1075
  119OSM   C13S12475   3.598   0.306   4.492 -0.0851 -0.3964  0.5716
  119OSM   H13S12476   3.492   0.329   4.471  0.5691  1.2697 -1.1897
  119OSM   H13T12477   3.614   0.234   4.575  2.1476  0.9021  1.3685
  119OSM   C14S12478   3.653   0.249   4.361  0.9270  0.1000  0.0241
  119OSM   H14S12479   3.763   0.239   4.354  1.0617 -1.0055  2.5942
  119OSM   H14T12480   3.633   0.321   4.280 -0.3504 -0.5072 -0.2331
  119OSM   C15S12481   3.592   0.114   4.336 -0.3612 -0.1639 -0.8544
  119OSM   H15S12482   3.484   0.117   4.362 -0.6778  0.9960 -2.1296
  119OSM   H15T12483   3.640   0.036   4.398 -0.1935  1.0343  0.6013
  119OSM   C16S12484   3.592   0.060   4.192 -0.3383 -0.1466 -0.3162
  119OSM   H16S12485   3.697   0.053   4.157 -0.0674 -1.3824  0.6794
  119OSM   H16T12486   3.537   0.133   4.127 -1.0158 -0.1143  0.2780
  119OSM   C17S12487   3.530  -0.081   4.166  0.0360  0.4509 -0.5532
  119OSM   H17S12488   3.585  -0.159   4.223  1.6475  1.1096 -1.1441
  119OSM   H17T12489   3.552  -0.111   4.062  1.5800 -0.4840 -0.0042
  119OSM   C18S12490   3.383  -0.095   4.207 -0.4926 -0.5250  0.0443
  119OSM   H18S12491   3.364  -0.134   4.309  2.2004 -0.8503  0.4986
  119OSM   H18T12492   3.326  -0.159   4.137 -1.7843 -0.1671  0.7328
  119OSM   H18U12493   3.334   0.005   4.213  1.1212  0.5020 -2.2873
  119OSM    C1F12494   3.432   0.174   5.609  0.0610  0.3890 -0.0625
  119OSM     OF12495   3.324   0.167   5.665 -0.2138 -0.1061  0.9317
  119OSM    C2F12496   3.493   0.050   5.554  0.7828 -0.3225 -0.3639
  119OSM    H2F12497   3.520  -0.022   5.634  0.4832 -0.3848 -0.3162
  119OSM    H2G12498   3.581   0.082   5.494  1.9080 -0.4467  1.1720
  119OSM    C3F12499   3.406  -0.037   5.462 -0.0823  0.3811  0.2548
  119OSM    H3F12500   3.328  -0.105   5.502  0.7893 -1.8187 -1.5484
  119OSM    H3G12501   3.475  -0.110   5.415 -0.9487 -0.1169 -0.2606
  119OSM    C4F12502   3.347   0.037   5.344  0.3151  0.2290  0.8781
  119OSM    H4F12503   3.417   0.064   5.263 -1.3618 -1.6442 -1.3101
  119OSM    H4G12504   3.314   0.140   5.371 -3.0105 -0.5103  0.0779
  119OSM    C5F12505   3.241  -0.046   5.272 -0.9456  0.4449  0.4257
  119OSM    H5F12506   3.151  -0.067   5.334 -3.9804 -3.2018 -4.4772
  119OSM    H5G12507   3.289  -0.144   5.250 -1.1777  0.0441  1.6523
  119OSM    C6F12508   3.205   0.010   5.132  0.3409  0.6050 -1.1594
  119OSM    H6F12509   3.152  -0.065   5.069  1.9832 -1.2070 -0.4766
  119OSM    H6G12510   3.304   0.023   5.084  0.5420 -0.0006 -0.9180
  119OSM    C7F12511   3.127   0.138   5.130  0.1453 -0.4293 -0.5214
  119OSM    H7F12512   3.161   0.216   5.202 -1.5677 -0.1292  0.0304
  119OSM    H7G12513   3.024   0.113   5.166  0.7250 -0.0748  1.5183
  119OSM    C8F12514   3.125   0.199   4.986 -0.3323  0.8788  0.3731
  119OSM    H8F12515   3.231   0.223   4.964 -0.2674 -1.5012 -2.6104
  119OSM    H8G12516   3.062   0.291   4.984 -2.6465 -0.6236 -0.8738
  119OSM    C9F12517   3.065   0.114   4.877  0.0336  0.2484  0.3052
  119OSM    H9F12518   2.981   0.048   4.903 -0.5731  0.9282  0.1237
  119OSM   C10F12519   3.108   0.115   4.751  1.4866 -0.7582  0.0178
  119OSM   H10F12520   3.060   0.049   4.677  0.4107 -0.4065  0.3980
  119OSM   C11F12521   3.223   0.191   4.692  0.1774  0.0394 -0.0299
  119OSM   H11F12522   3.244   0.137   4.597  1.2037 -0.4257  0.4461
  119OSM   H11G12523   3.313   0.181   4.756  0.8437 -2.0146 -1.1865
  119OSM   C12F12524   3.203   0.343   4.672  0.1520 -0.2583  0.0882
  119OSM   H12F12525   3.303   0.388   4.652  0.0297  0.4657  1.0319
  119OSM   H12G12526   3.163   0.391   4.764 -1.6506  1.0787 -1.3166
  119OSM   C13F12527   3.105   0.383   4.557  0.0420 -0.1490  0.0267
  119OSM   H13F12528   3.092   0.493   4.558 -0.2157 -0.1591 -0.8686
  119OSM   H13G12529   3.009   0.333   4.581 -1.0510  2.1971  0.8459
  119OSM   C14F12530   3.158   0.347   4.416  0.2729 -0.0950  1.0712
  119OSM   H14F12531   3.198   0.244   4.410  0.2217 -0.0629  0.0046
  119OSM   H14G12532   3.244   0.412   4.389 -1.2144  1.4597 -0.0890
  119OSM   C15F12533   3.040   0.356   4.311 -0.5614 -0.5370  0.0146
  119OSM   H15F12534   3.024   0.466   4.305  1.2578 -0.0966  1.7746
  119OSM   H15G12535   2.954   0.291   4.336 -0.1125 -0.8948  0.6501
  119OSM   C16F12536   3.097   0.317   4.177 -0.2988  0.5592  0.1709
  119OSM   H16F12537   3.122   0.209   4.179  1.3375  0.9104  2.0851
  119OSM   H16G12538   3.181   0.386   4.154 -2.2884  3.0852  0.0405
  119OSM   C17F12539   3.000   0.345   4.057  0.2535  0.3004 -0.2291
  119OSM   H17F12540   2.967   0.448   4.083  4.6258  1.4513  1.7111
  119OSM   H17G12541   2.915   0.274   4.067  0.9721 -0.5127  0.2668
  119OSM   C18F12542   3.060   0.330   3.920  0.8459  0.6221  1.2593
  119OSM   H18F12543   3.084   0.432   3.883 -1.0615  0.8820  0.6470
  119OSM   H18G12544   2.976   0.298   3.855  0.9282  1.4978  0.7098
  119OSM   H18H12545   3.146   0.259   3.917  1.1298  0.9612  1.3590
  120OSM      N12546   5.948   5.402   6.282  0.1672  0.1050 -0.0611
  120OSM    C1512547   6.032   5.465   6.396  0.3658 -0.5236 -0.2084
  120OSM   H15A12548   5.973   5.542   6.445 -1.5981  0.0811 -3.2198
  120OSM   H15B12549   6.127   5.505   6.365  0.2699 -0.3410 -0.2707
  120OSM   H15C12550   6.060   5.393   6.471 -0.3260 -0.2467  0.3357
  120OSM    C1412551   6.026   5.284   6.236 -0.0361 -0.4060  0.0592
  120OSM   H14A12552   6.125   5.313   6.205 -0.4488 -1.5333 -2.6090
  120OSM   H14B12553   5.968   5.238   6.158 -0.3593  3.5824 -2.3576
  120OSM   H14C12554   6.042   5.211   6.313 -2.2589  0.7504  1.7403
  120OSM    C1312555   5.821   5.362   6.343 -0.1494 -0.2393  0.5725
  120OSM   H13A12556   5.826   5.296   6.428  1.4988 -0.1604  0.5594
  120OSM   H13B12557   5.776   5.297   6.269 -1.7338  0.7306  0.6216
  120OSM   H13C12558   5.755   5.439   6.380 -0.2932 -1.5906  3.3233
  120OSM    C1212559   5.927   5.506   6.167 -0.0925 -0.2443  0.0814
  120OSM   H12A12560   5.906   5.604   6.205  2.2032  0.2767  0.1673
  120OSM   H12B12561   5.840   5.481   6.108 -2.7936  3.0642  2.3237
  120OSM    C1112562   6.055   5.532   6.077 -0.1316  0.4211 -0.1480
  120OSM   H11A12563   6.030   5.611   6.002  1.0690  0.9557  0.0028
  120OSM   H11B12564   6.073   5.450   6.004  2.5939 -0.3881  1.3126
  120OSM      P12565   6.307   5.531   6.123  0.0050 -0.1607  0.2198
  120OSM    O1312566   6.395   5.581   6.230 -0.9314 -0.1816 -0.2245
  120OSM    O1412567   6.305   5.384   6.095  0.3486  0.1781 -0.7533
  120OSM    O1112568   6.314   5.615   5.983  0.6360 -0.3185  1.0111
  120OSM    O1212569   6.163   5.574   6.163 -0.0030  0.1967 -0.5425
  120OSM    C1S12570   6.433   5.603   5.909 -0.4055 -0.3321  0.0708
  120OSM    H1S12571   6.500   5.525   5.950  1.1575  0.4344 -0.9242
  120OSM    H1T12572   6.497   5.693   5.926 -1.7715  0.8192 -0.6309
  120OSM     NF12573   6.510   5.590   5.671  0.0878 -0.0921  0.0964
  120OSM    HNF12574   6.522   5.687   5.652 -3.5230  0.5964  0.5150
  120OSM    C2S12575   6.397   5.588   5.763  0.3425 -0.1084  0.1200
  120OSM    H2S12576   6.348   5.489   5.749  0.1199 -0.0551  0.5132
  120OSM    C3S12577   6.285   5.689   5.725 -0.3757 -0.0899  0.6818
  120OSM    H3S12578   6.291   5.785   5.780 -0.9981  0.7895 -0.7172
  120OSM     O312579   6.153   5.654   5.758 -0.0106 -0.1898  0.7581
  120OSM    HO312580   6.166   5.606   5.839  2.6750 -0.4524  0.2399
  120OSM    C4S12581   6.282   5.706   5.581  0.7901 -0.8986  0.4106
  120OSM    H4S12582   6.261   5.615   5.522 -1.2884 -1.1377  1.4275
  120OSM    C5S12583   6.313   5.822   5.513 -0.3159  0.3914 -0.6351
  120OSM    H5S12584   6.346   5.912   5.567  1.4355  0.0056 -1.0154
  120OSM    C6S12585   6.303   5.838   5.365  0.6371  0.6467  0.5061
  120OSM    H6S12586   6.400   5.828   5.312  0.6654  2.7583  0.0905
  120OSM    H6T12587   6.272   5.944   5.354  0.1015  0.4762  0.3127
  120OSM    C7S12588   6.187   5.756   5.294 -0.1358  0.1999 -0.7777
  120OSM    H7S12589   6.088   5.778   5.340 -2.1399 -1.1353 -4.0808
  120OSM    H7T12590   6.202   5.646   5.300 -1.1725 -0.1693 -3.5011
  120OSM    C8S12591   6.163   5.807   5.155 -0.6050  0.0826 -0.0261
  120OSM    H8S12592   6.256   5.810   5.095 -1.3269 -0.6637 -1.2321
  120OSM    H8T12593   6.123   5.910   5.167 -0.7351 -0.2609  3.5682
  120OSM    C9S12594   6.055   5.734   5.075 -1.0276 -0.1257  0.1715
  120OSM    H9S12595   5.954   5.772   5.102 -0.4030  3.0733 -1.5006
  120OSM    H9T12596   6.062   5.624   5.075  0.8692 -0.1131 -2.8147
  120OSM   C10S12597   6.051   5.771   4.922  0.1836 -0.5068 -0.1726
  120OSM   H10S12598   6.145   5.746   4.869 -0.0373  0.5821 -1.1299
  120OSM   H10T12599   6.055   5.882   4.927  3.4332 -0.5643  0.5738
  120OSM   C11S12600   5.933   5.719   4.840 -0.0922 -0.3686  0.6653
  120OSM   H11S12601   5.842   5.740   4.899  1.1176 -0.8362  2.8133
  120OSM   H11T12602   5.934   5.607   4.837 -2.8296 -0.4792  1.5894
  120OSM   C12S12603   5.917   5.769   4.691  0.1312 -0.1991  0.1043
  120OSM   H12S12604   5.887   5.876   4.693 -0.5725 -0.4056  1.1451
  120OSM   H12T12605   5.841   5.716   4.630  1.8945 -0.2953 -2.1553
  120OSM   C13S12606   6.047   5.765   4.605 -0.4934 -0.5297  0.3475
  120OSM   H13S12607   6.104   5.671   4.618  0.8684  0.0367 -1.1826
  120OSM   H13T12608   6.120   5.846   4.625 -0.9716 -0.1158  0.4582
  120OSM   C14S12609   6.022   5.772   4.459 -0.2463 -0.1895  0.4311
  120OSM   H14S12610   5.968   5.867   4.441  1.0764  1.0254  2.4030
  120OSM   H14T12611   5.963   5.682   4.432  1.6590 -1.3938  0.0561
  120OSM   C15S12612   6.155   5.769   4.386  0.6915  0.1253  0.7045
  120OSM   H15S12613   6.200   5.668   4.389 -0.0684 -0.2259  0.5840
  120OSM   H15T12614   6.234   5.832   4.433  0.0062  0.8965  0.8501
  120OSM   C16S12615   6.144   5.785   4.233  0.3923 -0.4307 -0.3024
  120OSM   H16S12616   6.067   5.862   4.209  0.0433 -1.0307 -1.1691
  120OSM   H16T12617   6.100   5.692   4.191  0.5563 -0.9836  0.7213
  120OSM   C17S12618   6.272   5.835   4.168 -0.6259 -0.3381 -0.5437
  120OSM   H17S12619   6.310   5.924   4.222 -0.9825 -0.5447  0.0577
  120OSM   H17T12620   6.245   5.858   4.062  0.6953 -0.8220 -1.0129
  120OSM   C18S12621   6.377   5.723   4.148 -0.2034 -0.7130 -0.4063
  120OSM   H18S12622   6.455   5.752   4.074 -1.5825 -0.7438 -1.9173
  120OSM   H18T12623   6.326   5.627   4.123 -0.5747 -0.8575  0.8221
  120OSM   H18U12624   6.425   5.704   4.247 -1.3880 -0.8872  0.1511
  120OSM    C1F12625   6.613   5.511   5.658  0.1010  0.6037 -0.6533
  120OSM     OF12626   6.601   5.403   5.708  0.1699 -0.1947  0.6749
  120OSM    C2F12627   6.735   5.555   5.578  0.5418  0.5016  0.2559
  120OSM    H2F12628   6.821   5.557   5.648  0.5356 -2.8912  0.5689
  120OSM    H2G12629   6.716   5.659   5.547 -0.2066  0.6124  1.0375
  120OSM    C3F12630   6.753   5.457   5.464  0.4647 -0.4858  0.3857
  120OSM    H3F12631   6.757   5.352   5.499  0.2362 -0.5573  0.1966
  120OSM    H3G12632   6.850   5.472   5.411 -0.0306 -1.6641 -0.8837
  120OSM    C4F12633   6.631   5.472   5.365 -0.9417 -0.1009 -0.1772
  120OSM    H4F12634   6.540   5.435   5.417 -1.9621  2.5747  0.0650
  120OSM    H4G12635   6.660   5.396   5.289 -0.7485 -1.6899  1.4432
  120OSM    C5F12636   6.627   5.608   5.295  0.8643  0.2363  0.2870
  120OSM    H5F12637   6.729   5.621   5.252  0.3354 -0.0853 -1.1168
  120OSM    H5G12638   6.608   5.687   5.371  0.5694 -0.4935  0.9897
  120OSM    C6F12639   6.515   5.615   5.185  0.2632  0.5122 -0.1877
  120OSM    H6F12640   6.505   5.713   5.132 -1.6915  1.7498  2.2930
  120OSM    H6G12641   6.414   5.603   5.229 -0.4466 -1.1067 -2.1094
  120OSM    C7F12642   6.539   5.510   5.070  0.1599 -0.4519  0.5014
  120OSM    H7F12643   6.551   5.405   5.105  1.7349 -0.1775  0.8500
  120OSM    H7G12644   6.637   5.538   5.026  1.3586 -0.5415  2.9717
  120OSM    C8F12645   6.424   5.520   4.972  0.4309 -0.3090  0.1145
  120OSM    H8F12646   6.436   5.620   4.924  1.1463 -0.8170 -0.8046
  120OSM    H8G12647   6.331   5.521   5.031  0.6088 -1.1738  0.4197
  120OSM    C9F12648   6.422   5.404   4.877  0.3350  0.2310 -0.3314
  120OSM    H9F12649   6.516   5.380   4.826 -1.5284 -1.1416 -3.3969
  120OSM   C10F12650   6.319   5.320   4.868  0.6911  0.1771  0.1502
  120OSM   H10F12651   6.308   5.248   4.785 -2.1993  1.7141 -0.9380
  120OSM   C11F12652   6.184   5.314   4.941  0.0002  0.0127  0.2633
  120OSM   H11F12653   6.120   5.247   4.879  0.3609  0.2485 -0.3639
  120OSM   H11G12654   6.136   5.415   4.934 -0.5511 -0.3345 -1.4637
  120OSM   C12F12655   6.180   5.257   5.085  0.3338 -0.2397 -0.1701
  120OSM   H12F12656   6.230   5.328   5.154 -2.5242 -0.6452  2.5103
  120OSM   H12G12657   6.234   5.161   5.095 -0.7895 -0.7139  1.8833
  120OSM   C13F12658   6.029   5.226   5.143 -0.0722 -0.6121 -0.1487
  120OSM   H13F12659   6.031   5.127   5.194  2.3032 -0.0641  0.9356
  120OSM   H13G12660   5.969   5.202   5.053 -0.2811 -1.0502  0.1061
  120OSM   C14F12661   5.947   5.344   5.212  0.2112 -0.8470  0.3058
  120OSM   H14F12662   5.840   5.340   5.182  0.5084 -1.6102 -0.7007
  120OSM   H14G12663   5.980   5.444   5.175 -0.3821 -0.1732  1.5128
  120OSM   C15F12664   5.948   5.350   5.364 -0.4083  0.3053 -0.0727
  120OSM   H15F12665   6.057   5.358   5.385 -0.2779 -0.9466 -0.2368
  120OSM   H15G12666   5.910   5.256   5.409  1.2902 -1.5571 -2.3057
  120OSM   C16F12667   5.881   5.473   5.423  0.5474 -0.0753 -0.1622
  120OSM   H16F12668   5.775   5.471   5.392  0.7598  0.5252 -0.9484
  120OSM   H16G12669   5.930   5.567   5.391  1.0009 -0.3824 -0.3981
  120OSM   C17F12670   5.880   5.469   5.577 -0.6985  0.2044  1.3254
  120OSM   H17F12671   5.984   5.477   5.616 -0.6280 -2.3967  1.8520
  120OSM   H17G12672   5.827   5.378   5.613 -1.2989  0.3799  0.8949
  120OSM   C18F12673   5.807   5.587   5.632 -0.2193 -0.0845  0.3187
  120OSM   H18F12674   5.842   5.678   5.578  2.1389  0.6270  2.8143
  120OSM   H18G12675   5.828   5.597   5.741  2.4673 -0.4658 -0.1078
  120OSM   H18H12676   5.700   5.565   5.613  0.1861 -0.1947 -2.1643
  121OSM      N12677   5.906   6.867   5.945  0.1753 -0.8307  0.4599
  121OSM    C1512678   5.905   6.996   6.020 -0.1911 -0.4381  0.1126
  121OSM   H15A12679   5.812   7.009   6.073 -0.7218 -1.5565 -0.4945
  121OSM   H15B12680   5.926   7.080   5.954  0.5999  0.6649  1.7082
  121OSM   H15C12681   5.987   6.999   6.090 -1.0993  0.3438  1.1776
  121OSM    C1412682   6.045   6.819   5.915  0.3499 -0.4974  0.2770
  121OSM   H14A12683   6.099   6.883   5.846  1.4722 -0.2488  1.3618
  121OSM   H14B12684   6.041   6.723   5.867 -3.1790 -0.3090 -0.1020
  121OSM   H14C12685   6.089   6.805   6.012  0.0610 -0.9639  0.3450
  121OSM    C1312686   5.844   6.762   6.027 -0.0976 -0.0133  0.0447
  121OSM   H13A12687   5.886   6.767   6.126 -1.4458  1.2474  0.6039
  121OSM   H13B12688   5.859   6.665   5.984  0.3902 -0.3240  0.9019
  121OSM   H13C12689   5.738   6.781   6.037 -0.1892 -0.3670 -0.2465
  121OSM    C1212690   5.835   6.886   5.816 -0.7486  0.3339 -0.5426
  121OSM   H12A12691   5.741   6.936   5.835 -1.4522 -1.4899  0.9998
  121OSM   H12B12692   5.804   6.790   5.778 -0.8624  0.1503  0.0058
  121OSM    C1112693   5.900   6.975   5.701 -0.8986  0.1958 -0.5458
  121OSM   H11A12694   5.846   6.963   5.605 -0.0795  0.9464 -1.1116
  121OSM   H11B12695   6.004   6.940   5.684 -0.9993  0.0466 -0.8565
  121OSM      P12696   5.776   7.204   5.769  0.1873 -0.2634 -0.5334
  121OSM    O1312697   5.661   7.111   5.795 -0.3626  0.1639 -0.8367
  121OSM    O1412698   5.807   7.294   5.881 -0.2851  0.0759  0.5820
  121OSM    O1112699   5.747   7.279   5.639  1.4178 -0.0341  0.1350
  121OSM    O1212700   5.902   7.117   5.736  0.7852 -0.2386  0.0688
  121OSM    C1S12701   5.748   7.427   5.643 -0.0707  0.2922  0.5211
  121OSM    H1S12702   5.835   7.470   5.697  0.9390 -1.4892  0.3904
  121OSM    H1T12703   5.659   7.462   5.698  0.5921 -1.1396  2.6006
  121OSM     NF12704   5.776   7.625   5.478  0.3152  0.5082 -0.5700
  121OSM    HNF12705   5.710   7.687   5.437  0.9080  2.3584  1.0893
  121OSM    C2S12706   5.744   7.478   5.494  0.3166 -0.9535  0.1584
  121OSM    H2S12707   5.831   7.421   5.454  0.1421 -0.8928 -0.3038
  121OSM    C3S12708   5.616   7.437   5.421  0.1426  0.0886 -0.3249
  121OSM    H3S12709   5.531   7.499   5.457  0.6218  0.8484 -0.4677
  121OSM     O312710   5.575   7.306   5.438  0.9245  0.9149 -0.8682
  121OSM    HO312711   5.639   7.259   5.491 -1.1864 -2.5496 -1.0719
  121OSM    C4S12712   5.632   7.465   5.274 -0.4168  0.0458 -0.0237
  121OSM    H4S12713   5.570   7.549   5.237  0.0270 -0.1654 -1.3094
  121OSM    C5S12714   5.713   7.420   5.182 -0.6900  0.4528  0.1807
  121OSM    H5S12715   5.791   7.346   5.207 -1.8223 -0.0302  2.5258
  121OSM    C6S12716   5.722   7.455   5.035  1.2439 -0.4910 -0.3744
  121OSM    H6S12717   5.758   7.369   4.974  0.4420  0.7071 -2.6423
  121OSM    H6T12718   5.792   7.540   5.021 -0.8790  1.5602  0.7899
  121OSM    C7S12719   5.594   7.517   4.984  0.4177  0.7233  0.0023
  121OSM    H7S12720   5.563   7.607   5.042 -1.7469 -0.9243  1.5835
  121OSM    H7T12721   5.512   7.443   4.989  1.1414 -0.0330  1.4892
  121OSM    C8S12722   5.616   7.561   4.839  0.0260 -0.9268 -0.4202
  121OSM    H8S12723   5.655   7.478   4.777 -1.3679 -1.2207 -0.9505
  121OSM    H8T12724   5.689   7.643   4.825  0.9358 -1.6668 -0.0664
  121OSM    C9S12725   5.483   7.619   4.771 -0.4131  0.0814  1.0044
  121OSM    H9S12726   5.473   7.712   4.831  0.2045  0.1051  1.0716
  121OSM    H9T12727   5.391   7.560   4.790  0.0767 -1.4499 -1.0694
  121OSM   C10S12728   5.500   7.653   4.623 -0.1746  0.4453 -0.0876
  121OSM   H10S12729   5.527   7.563   4.564 -2.1120 -0.2540  0.0088
  121OSM   H10T12730   5.572   7.736   4.608  0.7868 -0.2718  0.3948
  121OSM   C11S12731   5.370   7.728   4.580 -0.0373  0.3135  0.1894
  121OSM   H11S12732   5.363   7.816   4.648  0.8888 -0.9740  2.0352
  121OSM   H11T12733   5.278   7.674   4.610  0.7762 -0.4376  1.3884
  121OSM   C12S12734   5.361   7.764   4.431  0.5624  0.4476  0.2876
  121OSM   H12S12735   5.267   7.822   4.423  0.6357  0.5700  0.3081
  121OSM   H12T12736   5.359   7.669   4.374  1.8422  0.4569  0.2049
  121OSM   C13S12737   5.468   7.848   4.373 -1.1145 -0.0779 -0.8073
  121OSM   H13S12738   5.563   7.790   4.373  0.5601  2.4038  1.6212
  121OSM   H13T12739   5.468   7.937   4.438  1.4977  2.0741 -3.4381
  121OSM   C14S12740   5.441   7.880   4.229 -0.5589 -0.3185 -0.2050
  121OSM   H14S12741   5.335   7.914   4.232  0.0115  1.7157 -1.8414
  121OSM   H14T12742   5.448   7.784   4.172 -1.3362 -0.3548 -0.2493
  121OSM   C15S12743   5.536   7.989   4.177 -0.1217 -0.4709 -0.0768
  121OSM   H15S12744   5.639   7.969   4.213 -0.2787 -4.1620 -1.1874
  121OSM   H15T12745   5.506   8.091   4.209  0.8633  0.4230 -1.8363
  121OSM   C16S12746   5.553   7.984   4.024  0.3864  0.1253  0.1789
  121OSM   H16S12747   5.451   7.980   3.981  0.6351  1.4526 -0.5934
  121OSM   H16T12748   5.611   7.897   3.988  0.5201 -1.1087  3.1113
  121OSM   C17S12749   5.613   8.115   3.963  0.1318 -0.9292  0.0241
  121OSM   H17S12750   5.536   8.193   3.981 -1.1256 -1.0589 -3.8193
  121OSM   H17T12751   5.622   8.087   3.856  1.1620 -2.3960  0.4606
  121OSM   C18S12752   5.744   8.155   4.027 -0.3219 -0.3615  0.2839
  121OSM   H18S12753   5.780   8.249   3.979 -0.5304  0.1662  1.1336
  121OSM   H18T12754   5.808   8.065   4.016 -0.8010 -0.5080 -1.4425
  121OSM   H18U12755   5.732   8.175   4.136 -1.3463  0.6372  0.0026
  121OSM    C1F12756   5.898   7.674   5.499  0.1217  0.1255 -0.0067
  121OSM     OF12757   5.984   7.612   5.559 -0.0970 -0.1926 -0.2206
  121OSM    C2F12758   5.910   7.823   5.462  0.5199 -0.4794  0.3567
  121OSM    H2F12759   5.960   7.879   5.544 -2.1633  1.2630  0.9190
  121OSM    H2G12760   5.806   7.854   5.439  1.0959  0.3490 -1.3486
  121OSM    C3F12761   5.983   7.857   5.332 -0.1573 -0.0659 -0.0507
  121OSM    H3F12762   6.088   7.823   5.346 -0.1031  0.5883  1.3676
  121OSM    H3G12763   5.975   7.965   5.309  0.6774 -0.2707 -1.4387
  121OSM    C4F12764   5.927   7.801   5.196 -0.1979  0.4728 -0.6639
  121OSM    H4F12765   5.818   7.823   5.197 -0.3229  0.3311  2.8567
  121OSM    H4G12766   5.930   7.690   5.205 -1.4539  0.3934 -1.0682
  121OSM    C5F12767   5.997   7.860   5.072  0.2305 -0.8036  0.3650
  121OSM    H5F12768   6.105   7.838   5.064  1.0758  2.5389  1.3368
  121OSM    H5G12769   5.983   7.969   5.058 -0.0627 -0.8729  0.0835
  121OSM    C6F12770   5.927   7.799   4.949  0.4033 -0.1980  0.8692
  121OSM    H6F12771   5.819   7.820   4.935  0.4321  0.5273  1.6577
  121OSM    H6G12772   5.933   7.689   4.968 -0.6879 -0.2904  0.7141
  121OSM    C7F12773   5.992   7.830   4.817 -0.1030 -0.8304  0.7433
  121OSM    H7F12774   6.093   7.784   4.817  0.2356 -0.1007  0.1126
  121OSM    H7G12775   6.001   7.939   4.798 -0.8470 -0.9339 -0.2748
  121OSM    C8F12776   5.933   7.779   4.682  0.5384  0.2028  0.9776
  121OSM    H8F12777   5.975   7.837   4.597  0.2492  2.4249  2.3009
  121OSM    H8G12778   5.826   7.802   4.699  0.3722 -0.0940  0.3662
  121OSM    C9F12779   5.956   7.628   4.667  0.2409  0.2473 -0.6728
  121OSM    H9F12780   6.022   7.583   4.742  0.0069  1.5212  0.3325
  121OSM   C10F12781   5.899   7.551   4.569  0.3051  0.3730 -0.0246
  121OSM   H10F12782   5.938   7.449   4.553  0.9813  0.8713 -1.7990
  121OSM   C11F12783   5.809   7.596   4.455  0.4391 -0.5747 -0.1183
  121OSM   H11F12784   5.754   7.680   4.501  2.1420  0.6772 -0.2477
  121OSM   H11G12785   5.737   7.516   4.426 -0.3172  0.3681 -0.9080
  121OSM   C12F12786   5.892   7.664   4.344 -0.2153  0.1179 -0.1940
  121OSM   H12F12787   5.942   7.579   4.293 -0.2261 -1.3338  2.0869
  121OSM   H12G12788   5.974   7.721   4.393 -1.0669  0.1021  1.2956
  121OSM   C13F12789   5.806   7.739   4.240  0.3880 -0.4294  0.5172
  121OSM   H13F12790   5.776   7.835   4.288 -0.8270  0.9751 -2.7744
  121OSM   H13G12791   5.717   7.678   4.213  1.7746 -2.6936  0.8493
  121OSM   C14F12792   5.887   7.789   4.113  0.1018  0.2655 -0.4110
  121OSM   H14F12793   5.822   7.844   4.042 -0.9200  1.2640  1.2124
  121OSM   H14G12794   5.914   7.688   4.075  1.0726  0.1191  0.6166
  121OSM   C15F12795   6.022   7.861   4.136 -0.0735 -0.6926  0.4586
  121OSM   H15F12796   6.077   7.802   4.212  1.6951 -0.4138 -0.5374
  121OSM   H15G12797   5.988   7.954   4.186  0.9317  1.0077 -1.8353
  121OSM   C16F12798   6.122   7.882   4.018  0.8838  0.0579  0.1110
  121OSM   H16F12799   6.147   7.783   3.975  2.6372  1.1153 -1.4363
  121OSM   H16G12800   6.224   7.908   4.053  0.9119 -0.2092  0.2288
  121OSM   C17F12801   6.076   7.983   3.903  0.1999 -0.3312  0.0298
  121OSM   H17F12802   6.053   8.080   3.952 -0.0751  0.4245 -1.5183
  121OSM   H17G12803   5.984   7.951   3.851  0.5493 -0.2855 -0.6258
  121OSM   C18F12804   6.188   8.005   3.798 -0.3086  0.7156  0.6324
  121OSM   H18F12805   6.197   7.928   3.719  1.8965  1.5128  0.0341
  121OSM   H18G12806   6.292   8.006   3.837  0.8446 -0.9142 -2.0892
  121OSM   H18H12807   6.160   8.100   3.749 -2.6009 -0.5115 -0.5983
  122OSM      N12808   0.882   6.025   6.046  0.6598 -0.7410 -1.0057
  122OSM    C1512809   0.794   6.087   6.146 -0.4964  0.2406 -0.3091
  122OSM   H15A12810   0.706   6.030   6.170 -0.9999  1.4270  0.7597
  122OSM   H15B12811   0.767   6.188   6.119  1.4741  0.6414 -0.9753
  122OSM   H15C12812   0.839   6.088   6.245 -0.1750  3.8845 -0.3691
  122OSM    C1412813   1.007   6.111   6.029 -0.5023 -0.0814  0.4558
  122OSM   H14A12814   0.978   6.210   5.996 -1.4609 -1.2275 -2.5269
  122OSM   H14B12815   1.081   6.080   5.957 -0.1309  1.7035  0.0153
  122OSM   H14C12816   1.056   6.121   6.125  1.3912  1.7017 -0.6194
  122OSM    C1312817   0.928   5.889   6.094 -0.2277 -0.1627  0.5302
  122OSM   H13A12818   0.965   5.885   6.196 -0.1658  1.3044  0.5953
  122OSM   H13B12819   1.008   5.863   6.027 -1.6213 -0.5342 -1.0528
  122OSM   H13C12820   0.863   5.805   6.075  1.9648 -1.8921  0.3251
  122OSM    C1212821   0.805   6.020   5.919 -0.0481  0.0706  0.5606
  122OSM   H12A12822   0.717   5.960   5.940  0.8032 -2.1311 -1.6298
  122OSM   H12B12823   0.868   5.961   5.854  0.5712  0.2753  0.9661
  122OSM    C1112824   0.754   6.153   5.854  0.2642 -0.3504  0.0544
  122OSM   H11A12825   0.734   6.128   5.748  0.2020 -2.3636  0.4972
  122OSM   H11B12826   0.834   6.230   5.858  0.9244 -0.7617 -2.8458
  122OSM      P12827   0.498   6.132   5.910  0.0536 -0.2349  0.1344
  122OSM    O1312828   0.507   5.993   5.963  0.3359 -0.2527 -0.0198
  122OSM    O1412829   0.392   6.224   5.973 -0.0891  0.5162  0.5329
  122OSM    O1112830   0.481   6.124   5.755  0.3293 -0.0333  0.2247
  122OSM    O1212831   0.641   6.200   5.930  0.2528 -0.7531  0.2865
  122OSM    C1S12832   0.486   6.242   5.663 -0.1998  0.4204 -0.3391
  122OSM    H1S12833   0.579   6.303   5.667 -0.2806  0.4958  0.7945
  122OSM    H1T12834   0.396   6.301   5.688 -0.0935 -0.6441  3.1502
  122OSM     NF12835   0.458   6.320   5.431 -0.0233 -0.0469 -0.1161
  122OSM    HNF12836   0.368   6.362   5.423  0.4191  0.9938  0.2411
  122OSM    C2S12837   0.463   6.195   5.515 -0.4901 -0.4080  0.1270
  122OSM    H2S12838   0.554   6.138   5.487  0.2526  1.1217 -0.7133
  122OSM    C3S12839   0.352   6.093   5.492  0.0927 -0.1097  0.1858
  122OSM    H3S12840   0.249   6.129   5.515 -0.3257 -0.1152 -1.5363
  122OSM     O312841   0.366   5.972   5.567  0.4735  0.4271  0.2799
  122OSM    HO312842   0.433   5.997   5.631  0.6758 -0.2863  0.3509
  122OSM    C4S12843   0.340   6.065   5.340 -0.1207  0.2159  0.5130
  122OSM    H4S12844   0.277   6.134   5.281 -1.0238  0.8885  2.1963
  122OSM    C5S12845   0.384   5.957   5.271 -0.3771 -0.3042  0.1835
  122OSM    H5S12846   0.444   5.878   5.320 -0.3337  0.0615  0.7359
  122OSM    C6S12847   0.359   5.944   5.117  0.1476  0.1638  1.0700
  122OSM    H6S12848   0.252   5.943   5.090  0.6108  3.4969 -1.6315
  122OSM    H6T12849   0.402   5.848   5.081  1.3255  0.7826  0.7719
  122OSM    C7S12850   0.419   6.070   5.045  0.1205 -0.3402 -0.0196
  122OSM    H7S12851   0.519   6.097   5.083  1.4086 -3.2888 -1.0148
  122OSM    H7T12852   0.350   6.155   5.065  1.1212  0.0517  2.0576
  122OSM    C8S12853   0.425   6.051   4.888 -0.1910  0.1462  0.1315
  122OSM    H8S12854   0.319   6.032   4.861 -1.0065  1.1952  2.3188
  122OSM    H8T12855   0.483   5.959   4.865 -0.8989  0.2926 -2.5816
  122OSM    C9S12856   0.485   6.157   4.800  0.5156  0.4627 -0.6096
  122OSM    H9S12857   0.590   6.173   4.832 -0.1092  2.1777  0.7906
  122OSM    H9T12858   0.427   6.247   4.828 -0.5826 -0.0401 -1.1910
  122OSM   C10S12859   0.469   6.133   4.653 -0.0665  0.0027  0.7761
  122OSM   H10S12860   0.365   6.102   4.628  0.1118 -0.4857  0.6402
  122OSM   H10T12861   0.537   6.048   4.634  1.6392  1.2694  0.9583
  122OSM   C11S12862   0.512   6.255   4.570 -0.5790  0.5637  0.0299
  122OSM   H11S12863   0.606   6.285   4.621 -0.0810 -0.1756 -0.4353
  122OSM   H11T12864   0.434   6.328   4.599  0.3275  1.8448 -0.6311
  122OSM   C12S12865   0.510   6.220   4.424  0.1798 -0.3855 -0.1760
  122OSM   H12S12866   0.414   6.187   4.379  1.8582 -0.7678 -3.8266
  122OSM   H12T12867   0.585   6.138   4.415  0.4627 -0.2048  0.4990
  122OSM   C13S12868   0.574   6.328   4.336  0.1240 -0.1087  1.3142
  122OSM   H13S12869   0.666   6.372   4.380  2.1823  0.2736 -2.8310
  122OSM   H13T12870   0.504   6.412   4.317  0.8588  0.5309  1.3598
  122OSM   C14S12871   0.641   6.282   4.199 -0.0235  0.0506  0.0791
  122OSM   H14S12872   0.560   6.228   4.145 -1.2053 -0.1033  1.9151
  122OSM   H14T12873   0.722   6.207   4.214  1.5392  1.4702 -0.9535
  122OSM   C15S12874   0.699   6.400   4.115  0.1279 -0.2673  0.5647
  122OSM   H15S12875   0.718   6.363   4.012  0.0667  0.1367  0.4062
  122OSM   H15T12876   0.796   6.425   4.164  1.1014 -1.6707 -0.5414
  122OSM   C16S12877   0.612   6.526   4.105  0.1621 -0.2603 -0.0763
  122OSM   H16S12878   0.594   6.566   4.206  1.1424  0.0658 -0.0212
  122OSM   H16T12879   0.521   6.508   4.042  0.5774  1.6397 -1.2944
  122OSM   C17S12880   0.687   6.640   4.025  0.0307  0.5237  0.2354
  122OSM   H17S12881   0.792   6.646   4.062  0.1270  0.9404 -0.0903
  122OSM   H17T12882   0.632   6.736   4.034 -1.3820 -0.3079  0.8799
  122OSM   C18S12883   0.698   6.609   3.874 -0.1455  0.4806 -0.0001
  122OSM   H18S12884   0.806   6.623   3.851 -0.2095 -0.6485 -1.0647
  122OSM   H18T12885   0.637   6.685   3.821  0.4401  1.8142  1.1530
  122OSM   H18U12886   0.672   6.503   3.853  2.4347 -0.0186 -1.1318
  122OSM    C1F12887   0.563   6.392   5.401 -0.3710 -0.4249  0.7570
  122OSM     OF12888   0.679   6.347   5.427 -0.3838  0.0951 -1.1414
  122OSM    C2F12889   0.537   6.532   5.354  0.4767 -0.0852  0.5362
  122OSM    H2F12890   0.609   6.596   5.410  3.9982 -2.7051 -0.5817
  122OSM    H2G12891   0.431   6.548   5.383  1.0098  0.3468  2.3408
  122OSM    C3F12892   0.552   6.541   5.203 -0.4784  0.3452  0.5041
  122OSM    H3F12893   0.514   6.453   5.147  0.4711 -1.3320  2.3940
  122OSM    H3G12894   0.662   6.550   5.190 -0.6465  3.8448  0.6018
  122OSM    C4F12895   0.491   6.670   5.134 -0.1582  0.8237  0.0263
  122OSM    H4F12896   0.523   6.673   5.027  1.7906 -1.8604  0.4180
  122OSM    H4G12897   0.535   6.762   5.177  1.8151  0.7566 -1.6723
  122OSM    C5F12898   0.338   6.678   5.147 -0.0784 -0.9852 -0.3719
  122OSM    H5F12899   0.303   6.776   5.107  0.9836 -0.5524 -0.2822
  122OSM    H5G12900   0.306   6.682   5.253  1.0943 -0.7797 -0.0145
  122OSM    C6F12901   0.260   6.560   5.084  0.4722  0.0119  0.2599
  122OSM    H6F12902   0.152   6.584   5.089 -0.0323 -2.1147  0.4651
  122OSM    H6G12903   0.271   6.468   5.145 -3.9581 -0.7588  0.2017
  122OSM    C7F12904   0.293   6.528   4.930 -0.2310 -0.6306 -0.0847
  122OSM    H7F12905   0.252   6.427   4.908  1.8903 -1.7607  0.7817
  122OSM    H7G12906   0.404   6.523   4.925 -0.2142 -2.7579  1.1008
  122OSM    C8F12907   0.235   6.625   4.822  0.2131 -0.1465 -0.7519
  122OSM    H8F12908   0.290   6.720   4.844  0.6709 -0.9136  1.7235
  122OSM    H8G12909   0.125   6.635   4.833  0.1798 -1.7649  0.8234
  122OSM    C9F12910   0.266   6.558   4.688  0.2171  0.0028  0.6075
  122OSM    H9F12911   0.220   6.459   4.672 -2.2105  1.5063 -3.0819
  122OSM   C10F12912   0.314   6.606   4.575  0.0696  0.3687  0.0469
  122OSM   H10F12913   0.320   6.530   4.495 -1.9641  1.2639 -1.0044
  122OSM   C11F12914   0.362   6.746   4.553  0.3938  0.6622  0.0789
  122OSM   H11F12915   0.472   6.743   4.544  0.3442  0.2751 -0.4512
  122OSM   H11G12916   0.339   6.814   4.638  2.2633  0.8483  0.4712
  122OSM   C12F12917   0.309   6.802   4.415  0.2049  0.1998  0.0134
  122OSM   H12F12918   0.324   6.912   4.419  1.0323  0.1270 -0.8171
  122OSM   H12G12919   0.204   6.768   4.402  1.1272 -2.5249 -0.9786
  122OSM   C13F12920   0.375   6.746   4.296  0.4689  0.5605  0.0100
  122OSM   H13F12921   0.365   6.636   4.284  0.9381  0.4869  0.2587
  122OSM   H13G12922   0.482   6.772   4.312  1.1623 -1.2000 -1.3509
  122OSM   C14F12923   0.336   6.803   4.159 -0.5588  0.0915  0.1065
  122OSM   H14F12924   0.226   6.786   4.156 -1.0589  2.7574  0.5218
  122OSM   H14G12925   0.363   6.735   4.076  0.7498  1.7135 -0.8567
  122OSM   C15F12926   0.375   6.949   4.133  0.0471 -0.5580 -0.2820
  122OSM   H15F12927   0.482   6.973   4.155 -0.1368 -0.8164  0.9608
  122OSM   H15G12928   0.328   7.013   4.210  1.7516  1.6956 -1.0068
  122OSM   C16F12929   0.330   6.992   3.993 -0.6922  0.3644 -0.3416
  122OSM   H16F12930   0.344   7.102   3.991  1.5709  0.1340  0.0529
  122OSM   H16G12931   0.222   6.970   3.981 -0.4416 -0.9269 -0.3292
  122OSM   C17F12932   0.414   6.931   3.871 -0.3496 -0.2714  0.7708
  122OSM   H17F12933   0.398   6.822   3.867 -0.3991 -0.2809  1.1594
  122OSM   H17G12934   0.520   6.954   3.896 -0.4671  1.2930 -0.0604
  122OSM   C18F12935   0.365   6.991   3.744  0.1018 -0.0266 -0.4588
  122OSM   H18F12936   0.441   6.971   3.665  0.7863  0.7309 -0.0097
  122OSM   H18G12937   0.342   7.098   3.761  1.1698 -0.0534  1.3753
  122OSM   H18H12938   0.273   6.936   3.713  0.8970  0.2273 -3.6904
  123OSM      N12939   3.341   4.504   1.629  0.2561  0.0985  0.1541
  123OSM    C1512940   3.418   4.614   1.677 -0.4462 -0.5349 -1.1964
  123OSM   H15A12941   3.508   4.579   1.725  0.0852  1.9066 -0.2624
  123OSM   H15B12942   3.366   4.665   1.756  0.6533  0.3616 -1.0146
  123OSM   H15C12943   3.447   4.690   1.606  2.8343  0.3004  0.8500
  123OSM    C1412944   3.218   4.564   1.561  0.3468  0.3177  0.4560
  123OSM   H14A12945   3.242   4.633   1.482  0.9726  0.8337  1.0872
  123OSM   H14B12946   3.164   4.622   1.634  0.3025  0.9025 -0.0381
  123OSM   H14C12947   3.157   4.481   1.530  1.9094 -0.2909 -1.1274
  123OSM    C1312948   3.420   4.432   1.526 -0.3112 -0.4056  1.0329
  123OSM   H13A12949   3.422   4.496   1.439 -1.2207  0.3441  1.5407
  123OSM   H13B12950   3.378   4.338   1.493  0.3315 -0.1570 -0.5442
  123OSM   H13C12951   3.518   4.413   1.566  0.0615 -0.5873  0.0360
  123OSM    C1212952   3.308   4.409   1.741 -0.3427 -0.3990  0.0565
  123OSM   H12A12953   3.258   4.321   1.703 -0.9568 -0.3231  0.6739
  123OSM   H12B12954   3.236   4.450   1.810 -1.4345 -0.2808 -1.1171
  123OSM    C1112955   3.422   4.353   1.823  0.8443  0.3993 -1.0600
  123OSM   H11A12956   3.365   4.307   1.906  0.5747  0.8905 -0.9710
  123OSM   H11B12957   3.484   4.435   1.866 -0.8607  0.3435  1.7328
  123OSM      P12958   3.463   4.127   1.701  0.0070 -0.0625  0.0025
  123OSM    O1312959   3.353   4.143   1.604 -0.2162 -0.5684  0.3146
  123OSM    O1412960   3.582   4.058   1.655  0.5013 -0.2983  0.8622
  123OSM    O1112961   3.408   4.054   1.826 -0.5421  0.2327 -1.2993
  123OSM    O1212962   3.512   4.270   1.749  0.1212  0.4559  0.3629
  123OSM    C1S12963   3.482   4.049   1.948  0.4650  0.1216 -0.2784
  123OSM    H1S12964   3.541   4.141   1.965 -0.9368  1.0751 -0.4574
  123OSM    H1T12965   3.549   3.960   1.948  0.7538  0.3303 -1.1684
  123OSM     NF12966   3.475   4.037   2.190 -0.0459  0.6663 -0.4014
  123OSM    HNF12967   3.512   3.951   2.225 -2.3442  0.0910  0.7687
  123OSM    C2S12968   3.393   4.026   2.073  0.1681  0.6915 -0.0807
  123OSM    H2S12969   3.315   4.106   2.072 -0.4043  0.1371 -0.4089
  123OSM    C3S12970   3.324   3.886   2.057 -0.2013  0.0981  0.2651
  123OSM    H3S12971   3.396   3.812   2.016 -1.0029 -1.2112  1.1396
  123OSM     O312972   3.224   3.883   1.955 -0.1298 -0.7404 -0.4662
  123OSM    HO312973   3.277   3.924   1.887 -0.5904 -0.9060 -0.9342
  123OSM    C4S12974   3.265   3.841   2.185  0.5782  0.4782  1.6034
  123OSM    H4S12975   3.168   3.889   2.206 -0.7221 -0.7491 -1.1292
  123OSM    C5S12976   3.317   3.735   2.259  0.1709 -0.0678 -0.2154
  123OSM    H5S12977   3.399   3.668   2.228  0.0268 -1.5882  2.4488
  123OSM    C6S12978   3.253   3.682   2.383  0.3972  0.0532  0.1068
  123OSM    H6S12979   3.291   3.579   2.403  1.0833  0.3341  0.2451
  123OSM    H6T12980   3.148   3.658   2.355  0.6233  1.3743 -2.0997
  123OSM    C7S12981   3.247   3.782   2.505  0.0406 -0.4205  0.2578
  123OSM    H7S12982   3.177   3.756   2.587 -1.4649 -0.9655 -1.1473
  123OSM    H7T12983   3.224   3.886   2.474  0.4839 -1.0738 -2.5301
  123OSM    C8S12984   3.388   3.794   2.571  0.1373 -0.2856  0.2793
  123OSM    H8S12985   3.459   3.810   2.487 -1.0300  0.5093 -0.5801
  123OSM    H8T12986   3.423   3.699   2.618  0.2508 -0.0860  0.6028
  123OSM    C9S12987   3.399   3.899   2.682 -0.4820 -0.4788 -0.4159
  123OSM    H9S12988   3.326   3.979   2.657 -2.1938 -1.0830  2.2409
  123OSM    H9T12989   3.501   3.942   2.686  0.0550 -1.6288 -1.1864
  123OSM   C10S12990   3.366   3.842   2.820  0.0248 -0.2186  0.6433
  123OSM   H10S12991   3.444   3.766   2.844  0.0674 -0.7745 -1.1063
  123OSM   H10T12992   3.269   3.788   2.818 -0.0145 -0.1427  0.4754
  123OSM   C11S12993   3.388   3.942   2.928  0.5517 -0.5692 -0.0567
  123OSM   H11S12994   3.300   4.010   2.925  1.6296  0.8884 -0.0219
  123OSM   H11T12995   3.474   4.006   2.897  0.9135 -0.0270  1.9155
  123OSM   C12S12996   3.415   3.876   3.061 -0.1364 -1.1562 -0.3874
  123OSM   H12S12997   3.507   3.815   3.061 -0.4251 -1.6294 -1.9099
  123OSM   H12T12998   3.332   3.805   3.079  1.1755 -2.8639 -0.8732
  123OSM   C13S12999   3.415   3.980   3.180 -0.5076 -0.5084 -0.7464
  123OSM   H13S13000   3.331   4.052   3.165  0.1522 -0.0714 -2.6198
  123OSM   H13T13001   3.504   4.044   3.164 -1.4019  1.0278  0.1421
  123OSM   C14S13002   3.408   3.913   3.322  0.3647  0.2927 -0.9371
  123OSM   H14S13003   3.310   3.862   3.318  0.3224  0.4467 -2.5686
  123OSM   H14T13004   3.401   3.994   3.398  1.0044 -1.6622  1.3216
  123OSM   C15S13005   3.522   3.826   3.362 -0.6917  0.2542 -0.2614
  123OSM   H15S13006   3.571   3.792   3.268 -1.7115 -1.4412 -0.2211
  123OSM   H15T13007   3.499   3.735   3.421  0.2993 -1.0777 -1.8233
  123OSM   C16S13008   3.634   3.912   3.421 -0.4269  0.3367 -0.2746
  123OSM   H16S13009   3.592   3.978   3.500 -1.5213  0.2871 -0.8116
  123OSM   H16T13010   3.664   3.985   3.343 -0.5298  1.7784  0.9992
  123OSM   C17S13011   3.757   3.825   3.474  0.1479 -0.4805  0.5718
  123OSM   H17S13012   3.809   3.772   3.392 -0.7047 -0.7468  0.1984
  123OSM   H17T13013   3.726   3.753   3.553  0.9087  0.1731  1.4910
  123OSM   C18S13014   3.843   3.929   3.555 -0.3767 -0.1136  0.0445
  123OSM   H18S13015   3.789   3.971   3.643 -0.5140  2.0104 -1.0030
  123OSM   H18T13016   3.877   4.015   3.494 -2.4340  0.4477 -0.3805
  123OSM   H18U13017   3.933   3.881   3.599  0.2126  1.8948  1.1627
  123OSM    C1F13018   3.515   4.157   2.232  0.0143  0.3358  0.0470
  123OSM     OF13019   3.467   4.264   2.184  0.1820  0.1620  0.2273
  123OSM    C2F13020   3.631   4.174   2.330 -0.0947  0.4559  0.2512
  123OSM    H2F13021   3.691   4.263   2.302  0.4931  0.2531  0.8633
  123OSM    H2G13022   3.702   4.090   2.321 -1.5486 -0.7853 -0.0327
  123OSM    C3F13023   3.575   4.189   2.472  0.3618 -0.5613 -0.9179
  123OSM    H3F13024   3.499   4.115   2.503 -1.0156  1.3787  0.5495
  123OSM    H3G13025   3.515   4.282   2.477 -0.2087 -0.9309  4.5349
  123OSM    C4F13026   3.679   4.193   2.593  0.1297 -0.1161  0.0950
  123OSM    H4F13027   3.637   4.209   2.695 -1.6362  0.9478 -0.7448
  123OSM    H4G13028   3.750   4.276   2.574 -1.6395  1.0461 -1.9713
  123OSM    C5F13029   3.756   4.062   2.590  0.2084  0.2599 -0.0459
  123OSM    H5F13030   3.803   4.072   2.490 -0.0296  0.6156 -0.1250
  123OSM    H5G13031   3.683   3.979   2.599 -0.5796  0.9038 -0.3830
  123OSM    C6F13032   3.859   4.047   2.699  0.1445 -0.0200  0.1287
  123OSM    H6F13033   3.934   4.128   2.691 -1.1867  1.2710  0.3289
  123OSM    H6G13034   3.917   3.953   2.682  0.6710  0.5254 -1.1367
  123OSM    C7F13035   3.808   4.014   2.834  0.2793  0.4786  0.0171
  123OSM    H7F13036   3.717   3.950   2.828  0.0289  0.5436  2.1573
  123OSM    H7G13037   3.792   4.100   2.902  0.2662 -0.2315  0.9312
  123OSM    C8F13038   3.913   3.931   2.915  0.2809 -0.3902  0.0414
  123OSM    H8F13039   4.013   3.977   2.901  0.3421 -0.2788  0.7981
  123OSM    H8G13040   3.923   3.829   2.873 -0.3084 -0.3351 -0.2425
  123OSM    C9F13041   3.881   3.924   3.062 -0.2814  0.4252  0.2547
  123OSM    H9F13042   3.786   3.972   3.089  0.1311  1.0681  0.5929
  123OSM   C10F13043   3.951   3.877   3.162 -0.1671 -0.5794  0.8311
  123OSM   H10F13044   3.915   3.889   3.266 -2.4534 -1.5222  0.2152
  123OSM   C11F13045   4.096   3.822   3.154  0.9206  0.6125 -0.1548
  123OSM   H11F13046   4.128   3.800   3.050  2.1945 -1.3405  0.5929
  123OSM   H11G13047   4.094   3.727   3.211 -1.1897  0.7638  0.0873
  123OSM   C12F13048   4.201   3.913   3.214 -0.1944  0.3766 -0.8183
  123OSM   H12F13049   4.172   4.015   3.180 -2.3651 -0.7104 -2.5050
  123OSM   H12G13050   4.294   3.892   3.157 -0.0190 -0.5039 -0.2221
  123OSM   C13F13051   4.219   3.920   3.367 -0.4740 -0.7562  0.3127
  123OSM   H13F13052   4.219   3.819   3.415 -0.2637 -0.3871  1.1015
  123OSM   H13G13053   4.126   3.977   3.389 -0.0120  0.0622  0.1917
  123OSM   C14F13054   4.336   3.994   3.421  0.1610  0.7161 -0.0112
  123OSM   H14F13055   4.310   4.102   3.423 -0.3627  0.6478 -1.6964
  123OSM   H14G13056   4.424   3.983   3.355  0.4759 -0.4567  0.5676
  123OSM   C15F13057   4.389   3.937   3.557 -0.6974 -0.4206  0.7682
  123OSM   H15F13058   4.482   3.988   3.591 -1.2384 -0.0795  1.7639
  123OSM   H15G13059   4.420   3.835   3.529  2.7698  0.1825  1.9485
  123OSM   C16F13060   4.292   3.912   3.667  0.5045 -0.0955 -0.4222
  123OSM   H16F13061   4.206   3.856   3.623  0.7260 -0.1396 -0.8056
  123OSM   H16G13062   4.253   4.010   3.700  0.5832  0.3636 -1.6267
  123OSM   C17F13063   4.357   3.828   3.784  0.3661  0.6732  0.6594
  123OSM   H17F13064   4.422   3.753   3.735 -0.6439  0.9487 -1.1915
  123OSM   H17G13065   4.285   3.769   3.844  1.1387 -0.8724  0.1239
  123OSM   C18F13066   4.434   3.922   3.872 -0.0107  0.2957  0.0463
  123OSM   H18F13067   4.493   3.994   3.811  0.5091 -1.6894 -1.9485
  123OSM   H18G13068   4.499   3.872   3.946 -0.0120 -0.1413 -0.2455
  123OSM   H18H13069   4.362   3.983   3.931 -0.9397  1.2968 -1.9887
  124OSM      N13070   2.753   4.649   1.559  0.5332 -0.2358 -0.7979
  124OSM    C1513071   2.735   4.502   1.548 -0.3747 -0.4576 -0.5572
  124OSM   H15A13072   2.826   4.443   1.557  0.0026 -0.5735 -3.9969
  124OSM   H15B13073   2.700   4.475   1.450  0.1920 -0.4392 -0.7674
  124OSM   H15C13074   2.674   4.477   1.633  0.6143  2.6640  1.2723
  124OSM    C1413075   2.762   4.673   1.706  0.4948 -0.1074 -1.0406
  124OSM   H14A13076   2.723   4.772   1.727  3.0052  0.3840  1.8181
  124OSM   H14B13077   2.865   4.666   1.734  0.1201 -0.4989  0.2865
  124OSM   H14C13078   2.699   4.609   1.765  0.8491  0.5884  0.1189
  124OSM    C1313079   2.869   4.685   1.476 -0.3521  0.0599 -0.6355
  124OSM   H13A13080   2.958   4.631   1.504 -0.5364  0.3823  0.6219
  124OSM   H13B13081   2.893   4.790   1.481  1.4197 -0.3868  1.6661
  124OSM   H13C13082   2.844   4.641   1.380  0.0954 -2.5528  0.3727
  124OSM    C1213083   2.629   4.721   1.501 -0.5556 -0.3229  0.4125
  124OSM   H12A13084   2.546   4.701   1.567 -1.6107  1.5530 -0.2617
  124OSM   H12B13085   2.610   4.692   1.399 -4.3623  2.1829  0.1899
  124OSM    C1113086   2.627   4.876   1.502 -0.1834 -0.2026  0.3469
  124OSM   H11A13087   2.532   4.915   1.457  0.7052 -0.1120 -1.5468
  124OSM   H11B13088   2.711   4.914   1.440 -0.5898 -2.0088 -1.3980
  124OSM      P13089   2.519   4.944   1.728 -0.2415  0.1871  0.1635
  124OSM    O1313090   2.451   5.076   1.718 -0.6658  0.1662  0.5838
  124OSM    O1413091   2.436   4.827   1.713 -0.3946  0.0944 -0.1558
  124OSM    O1113092   2.587   4.945   1.867 -0.0646 -0.2116 -0.7042
  124OSM    O1213093   2.637   4.933   1.637 -0.0085 -0.8345 -0.3944
  124OSM    C1S13094   2.696   5.037   1.895 -0.6124  1.0605 -0.7281
  124OSM    H1S13095   2.680   5.143   1.866 -0.0524  1.6001  0.7996
  124OSM    H1T13096   2.784   5.005   1.836 -0.5995 -0.0413 -0.1394
  124OSM     NF13097   2.843   5.117   2.074  0.2703 -0.7227 -0.2432
  124OSM    HNF13098   2.930   5.067   2.072  0.4477 -0.5223  1.2640
  124OSM    C2S13099   2.726   5.029   2.050 -0.0609  0.3925 -0.0823
  124OSM    H2S13100   2.639   5.077   2.100  0.2665  1.8842 -0.8893
  124OSM    C3S13101   2.748   4.879   2.090  0.9668 -0.6226 -0.5488
  124OSM    H3S13102   2.822   4.838   2.018 -0.8746 -0.6707 -2.5353
  124OSM     O313103   2.634   4.798   2.063  0.3226  0.6706 -0.0166
  124OSM    HO313104   2.585   4.852   2.001  0.9499  1.0091 -0.2231
  124OSM    C4S13105   2.792   4.861   2.234  1.0607 -0.6056 -0.6983
  124OSM    H4S13106   2.744   4.938   2.297 -1.4672 -1.6620 -1.2055
  124OSM    C5S13107   2.886   4.773   2.279 -0.2259 -0.3465  0.4871
  124OSM    H5S13108   2.928   4.699   2.208  0.0385 -0.0351  0.3176
  124OSM    C6S13109   2.928   4.763   2.421 -0.1221 -0.2241  0.8271
  124OSM    H6S13110   3.034   4.798   2.414 -0.6560  1.5846  1.2806
  124OSM    H6T13111   2.927   4.662   2.466 -0.0660  0.5649  2.7128
  124OSM    C7S13112   2.866   4.844   2.533  0.7093  0.4129 -0.6869
  124OSM    H7S13113   2.760   4.811   2.541  0.9610 -0.1550  0.6170
  124OSM    H7T13114   2.872   4.953   2.516  0.4492  0.6070  0.3675
  124OSM    C8S13115   2.928   4.810   2.674  0.5053 -0.1702  0.3784
  124OSM    H8S13116   2.901   4.704   2.693 -3.1995  0.8566  1.5550
  124OSM    H8T13117   2.877   4.868   2.753 -1.6474  0.6491 -1.5160
  124OSM    C9S13118   3.080   4.828   2.680  0.1086 -0.0410  0.4823
  124OSM    H9S13119   3.107   4.914   2.615  0.3109 -1.3450 -1.2660
  124OSM    H9T13120   3.129   4.739   2.633  1.4493  1.1632 -0.5017
  124OSM   C10S13121   3.140   4.844   2.817  0.7814 -0.1434  0.3227
  124OSM   H10S13122   3.091   4.774   2.888  0.1152  0.7047  0.7254
  124OSM   H10T13123   3.104   4.944   2.851 -1.6433 -1.0962  0.7726
  124OSM   C11S13124   3.293   4.834   2.835 -0.5941  0.3727  0.2471
  124OSM   H11S13125   3.349   4.897   2.763  1.7650 -2.4757 -0.6337
  124OSM   H11T13126   3.313   4.727   2.813  0.8772  0.3044  1.7077
  124OSM   C12S13127   3.343   4.859   2.971  0.2739 -0.1377 -0.6374
  124OSM   H12S13128   3.282   4.806   3.047  0.8894  0.3402  0.2085
  124OSM   H12T13129   3.317   4.963   3.000  0.4248  0.3081 -2.0001
  124OSM   C13S13130   3.486   4.817   2.987 -0.7856 -0.1752 -0.3886
  124OSM   H13S13131   3.549   4.849   2.901  0.6943 -2.4336 -0.2489
  124OSM   H13T13132   3.475   4.708   3.008 -1.2845  0.2126  1.5868
  124OSM   C14S13133   3.547   4.883   3.112  0.0901  0.3808 -0.4448
  124OSM   H14S13134   3.536   4.992   3.097  1.3579  0.6179  0.1951
  124OSM   H14T13135   3.653   4.850   3.102 -0.5047 -1.7347 -0.2165
  124OSM   C15S13136   3.492   4.833   3.244  0.2461  0.2864 -0.4806
  124OSM   H15S13137   3.521   4.727   3.260  1.1692  0.7462  1.0536
  124OSM   H15T13138   3.383   4.852   3.233  0.1166  0.2768  0.7262
  124OSM   C16S13139   3.557   4.903   3.362 -0.2977 -0.3678  0.2207
  124OSM   H16S13140   3.501   4.998   3.370  0.7458  0.1861  1.2243
  124OSM   H16T13141   3.666   4.925   3.354 -0.0207 -1.3702  0.9889
  124OSM   C17S13142   3.549   4.823   3.497 -0.0097  0.2726 -0.5146
  124OSM   H17S13143   3.604   4.728   3.478 -0.2100  0.6159 -3.2981
  124OSM   H17T13144   3.442   4.795   3.514 -0.2347  1.1103 -0.5127
  124OSM   C18S13145   3.598   4.898   3.615  0.1769  0.1466 -1.0304
  124OSM   H18S13146   3.708   4.902   3.622  0.0541  0.1366  2.7409
  124OSM   H18T13147   3.569   4.846   3.708  2.2664 -2.2786 -1.6442
  124OSM   H18U13148   3.552   4.999   3.621  0.8359  0.3802  3.2904
  124OSM    C1F13149   2.831   5.246   2.082  0.8590 -1.1086  0.0883
  124OSM     OF13150   2.715   5.299   2.073 -0.4238  0.1169  0.7547
  124OSM    C2F13151   2.952   5.332   2.092  0.0974 -0.1332 -0.2920
  124OSM    H2F13152   2.920   5.428   2.138  0.6677  0.2123 -0.5963
  124OSM    H2G13153   2.998   5.344   1.991 -1.4363 -3.1685 -1.4899
  124OSM    C3F13154   3.065   5.270   2.180 -0.2321  0.4360  0.2179
  124OSM    H3F13155   3.159   5.326   2.197  0.1866 -0.1548 -0.0827
  124OSM    H3G13156   3.109   5.179   2.135  1.7845  1.5319 -0.1104
  124OSM    C4F13157   3.016   5.221   2.318  0.7320  0.7217 -0.3420
  124OSM    H4F13158   3.106   5.189   2.375  0.4207  0.6337  0.1044
  124OSM    H4G13159   2.954   5.131   2.303  1.6948  0.1706 -1.1238
  124OSM    C5F13160   2.931   5.315   2.406  0.3152 -0.4882  0.4186
  124OSM    H5F13161   2.838   5.347   2.355  0.3009  0.5204  1.0269
  124OSM    H5G13162   2.996   5.403   2.428 -2.3332  1.1410  2.3522
  124OSM    C6F13163   2.880   5.242   2.540 -0.5064  0.4025  0.9847
  124OSM    H6F13164   2.970   5.217   2.601 -2.2072 -1.7275  2.7719
  124OSM    H6G13165   2.822   5.154   2.507 -1.2848  1.9665 -2.2089
  124OSM    C7F13166   2.811   5.334   2.643 -0.4144 -0.1709  0.2147
  124OSM    H7F13167   2.711   5.361   2.601 -0.3025 -0.8499 -0.4924
  124OSM    H7G13168   2.870   5.428   2.642 -1.2447  0.4203 -3.0087
  124OSM    C8F13169   2.790   5.276   2.784  0.5763 -0.0891 -1.1504
  124OSM    H8F13170   2.748   5.173   2.783 -2.9189  1.1611  0.7792
  124OSM    H8G13171   2.715   5.346   2.827 -0.8241 -1.5667 -1.0844
  124OSM    C9F13172   2.910   5.287   2.872  0.2524 -0.0183 -0.0256
  124OSM    H9F13173   3.000   5.340   2.838 -0.8863  1.5955 -0.6769
  124OSM   C10F13174   2.914   5.238   2.996  0.2947  0.5583  0.6039
  124OSM   H10F13175   3.011   5.239   3.047 -0.7187 -2.5807  2.8771
  124OSM   C11F13176   2.804   5.167   3.061  0.0369  0.1240  0.1193
  124OSM   H11F13177   2.829   5.059   3.065 -0.4323  0.0420  0.8855
  124OSM   H11G13178   2.709   5.182   3.005  1.3695  0.6566 -2.1502
  124OSM   C12F13179   2.786   5.210   3.201 -0.4025 -0.4838 -0.1770
  124OSM   H12F13180   2.889   5.211   3.243 -0.1339 -2.7487 -0.6408
  124OSM   H12G13181   2.731   5.138   3.265 -0.2185  0.6949  1.3646
  124OSM   C13F13182   2.712   5.344   3.219  0.0819  0.3053  0.0337
  124OSM   H13F13183   2.603   5.334   3.203  0.2385  0.3188 -1.1227
  124OSM   H13G13184   2.742   5.425   3.149 -0.6555  0.6834  0.1452
  124OSM   C14F13185   2.717   5.390   3.367  0.4263  0.0426  0.2135
  124OSM   H14F13186   2.812   5.445   3.382  0.1196  1.2364 -1.8994
  124OSM   H14G13187   2.709   5.292   3.419  2.5809 -0.6118 -0.5530
  124OSM   C15F13188   2.609   5.488   3.415  0.0188  0.1818 -0.1365
  124OSM   H15F13189   2.502   5.470   3.391  0.3775  1.0448 -2.7280
  124OSM   H15G13190   2.642   5.583   3.367  1.8949 -0.1181  0.4830
  124OSM   C16F13191   2.624   5.506   3.561 -0.6953 -0.1884 -0.2280
  124OSM   H16F13192   2.578   5.603   3.589  2.0859  1.1992 -0.1163
  124OSM   H16G13193   2.731   5.514   3.591  0.2768 -0.7011 -3.2299
  124OSM   C17F13194   2.552   5.396   3.652 -0.1322 -0.3023 -0.2561
  124OSM   H17F13195   2.601   5.298   3.630 -2.2782 -1.2888 -0.9794
  124OSM   H17G13196   2.444   5.376   3.635  0.1807 -1.1611 -1.3985
  124OSM   C18F13197   2.572   5.427   3.794  0.5859 -0.0284 -0.2654
  124OSM   H18F13198   2.680   5.428   3.822  1.0677 -2.4357 -1.6776
  124OSM   H18G13199   2.523   5.346   3.853 -1.5492 -0.6144 -2.6611
  124OSM   H18H13200   2.513   5.516   3.820 -1.7627 -1.3739 -0.7334
  125OSM      N13201   4.081   2.941   1.741  0.2292  0.0376 -0.1581
  125OSM    C1513202   3.975   3.039   1.691  0.1911 -0.4817  0.3557
  125OSM   H15A13203   3.965   3.035   1.584  1.0965  0.4052  0.2268
  125OSM   H15B13204   4.006   3.139   1.719  0.2418 -0.0651 -1.1236
  125OSM   H15C13205   3.875   3.012   1.722 -0.5471  1.8179  0.1390
  125OSM    C1413206   4.065   2.806   1.675 -0.0046  0.0993 -0.1696
  125OSM   H14A13207   4.059   2.816   1.568 -1.4191  0.8109 -0.0519
  125OSM   H14B13208   3.973   2.759   1.707  0.1451 -0.6201 -0.7623
  125OSM   H14C13209   4.138   2.733   1.708 -2.2403 -2.2373 -0.0370
  125OSM    C1313210   4.214   2.991   1.691 -0.0130  0.0763  0.4940
  125OSM   H13A13211   4.208   3.011   1.585  0.9599 -2.1123 -0.0264
  125OSM   H13B13212   4.294   2.921   1.712  1.1164  0.8619 -0.9662
  125OSM   H13C13213   4.234   3.089   1.733  1.9328  0.4955 -1.2432
  125OSM    C1213214   4.087   2.929   1.891 -0.3041 -0.1148 -0.0511
  125OSM   H12A13215   4.104   3.026   1.935  2.5661 -1.4346  2.0007
  125OSM   H12B13216   4.167   2.868   1.928 -0.5734 -1.6901 -1.9296
  125OSM    C1113217   3.952   2.897   1.956  0.8039  0.1587  0.1285
  125OSM   H11A13218   3.887   2.984   1.933  1.0734  0.5743  0.8913
  125OSM   H11B13219   3.976   2.883   2.064  3.0456 -0.0767 -0.3670
  125OSM      P13220   3.740   2.748   1.918  0.2372  0.1925 -0.0595
  125OSM    O1313221   3.659   2.865   1.876 -0.6158 -0.2789 -0.7030
  125OSM    O1413222   3.708   2.618   1.861  0.1572 -0.1099  0.0371
  125OSM    O1113223   3.730   2.726   2.069  0.5396 -0.8048 -0.3972
  125OSM    O1213224   3.897   2.774   1.904 -0.0589 -0.0073 -0.7463
  125OSM    C1S13225   3.610   2.753   2.139 -0.5720 -0.1502  0.3220
  125OSM    H1S13226   3.522   2.722   2.079 -0.0687 -1.9480  0.4609
  125OSM    H1T13227   3.587   2.861   2.152 -0.2418 -0.0540  0.1246
  125OSM     NF13228   3.476   2.684   2.323 -0.9970  0.2748  0.8289
  125OSM    HNF13229   3.437   2.758   2.378 -0.4756  0.5945  0.7756
  125OSM    C2S13230   3.616   2.686   2.278 -0.4420  0.3379  0.7710
  125OSM    H2S13231   3.662   2.588   2.254  0.3220  0.9100 -0.1372
  125OSM    C3S13232   3.718   2.755   2.377 -0.5164  0.8674  0.1472
  125OSM    H3S13233   3.670   2.849   2.415 -3.4625 -0.6362  0.4449
  125OSM     O313234   3.845   2.786   2.314  0.0978 -0.0039 -0.4885
  125OSM    HO313235   3.829   2.777   2.220  1.4430  1.4228 -0.8875
  125OSM    C4S13236   3.732   2.666   2.499 -0.8091  0.1148 -0.0679
  125OSM    H4S13237   3.637   2.667   2.555 -2.4299 -4.0769 -2.3006
  125OSM    C5S13238   3.833   2.585   2.543 -0.2700  0.0662 -0.2683
  125OSM    H5S13239   3.927   2.593   2.488  0.3916  2.3677  1.0771
  125OSM    C6S13240   3.804   2.503   2.663  0.1929 -0.3028 -0.1378
  125OSM    H6S13241   3.831   2.397   2.643 -2.2701 -1.1736  0.6730
  125OSM    H6T13242   3.696   2.488   2.687 -0.4547  1.1043 -1.9571
  125OSM    C7S13243   3.866   2.553   2.794  0.6238  0.6146  0.1033
  125OSM    H7S13244   3.799   2.640   2.809  2.8841  2.5149 -0.3088
  125OSM    H7T13245   3.967   2.598   2.781 -0.1796  2.9344  1.2583
  125OSM    C8S13246   3.867   2.475   2.919  0.1263 -0.0381 -0.1055
  125OSM    H8S13247   3.762   2.447   2.945 -0.6536  3.1531  0.6142
  125OSM    H8T13248   3.903   2.538   3.002  0.2170  1.6922 -1.3888
  125OSM    C9S13249   3.955   2.351   2.896 -0.9745 -0.1643 -0.1941
  125OSM    H9S13250   4.060   2.379   2.878 -0.8480 -1.9019 -2.6157
  125OSM    H9T13251   3.923   2.283   2.814 -2.1650 -0.1695  0.2446
  125OSM   C10S13252   3.943   2.250   3.009  0.2599 -0.4359 -0.0329
  125OSM   H10S13253   3.976   2.148   2.979 -1.8799 -1.3672  0.5913
  125OSM   H10T13254   3.834   2.236   3.029 -0.3538  1.3147 -1.8053
  125OSM   C11S13255   4.025   2.289   3.133 -0.5488  0.1339  0.1133
  125OSM   H11S13256   4.056   2.394   3.113 -0.0731 -0.0363 -0.0647
  125OSM   H11T13257   4.120   2.230   3.138 -0.2518  0.4353 -1.3924
  125OSM   C12S13258   3.957   2.292   3.276 -0.3205  0.1217 -0.2460
  125OSM   H12S13259   3.953   2.188   3.314  0.7340  0.3610  0.5879
  125OSM   H12T13260   3.854   2.332   3.265 -0.1302  0.3065 -1.4332
  125OSM   C13S13261   4.045   2.356   3.377 -0.1358 -0.1201  0.5121
  125OSM   H13S13262   4.042   2.464   3.353 -2.0989  0.0476  1.2929
  125OSM   H13T13263   4.153   2.328   3.378  0.1150  0.7755 -0.3839
  125OSM   C14S13264   3.995   2.337   3.520  0.0633  0.0937  0.3896
  125OSM   H14S13265   4.000   2.233   3.559 -0.3513 -0.5123 -1.1041
  125OSM   H14T13266   3.893   2.380   3.518  0.6078  1.4115  0.1198
  125OSM   C15S13267   4.061   2.443   3.613  0.3355 -0.5554 -0.0829
  125OSM   H15S13268   4.032   2.542   3.572  0.9305  1.5618  4.1323
  125OSM   H15T13269   4.172   2.441   3.609  0.5234 -0.1740  2.9928
  125OSM   C16S13270   4.010   2.435   3.759 -0.7537 -0.2601  0.2137
  125OSM   H16S13271   4.071   2.499   3.826  0.1526  0.0728 -0.9003
  125OSM   H16T13272   4.029   2.331   3.791  0.5796  0.5198  2.1359
  125OSM   C17S13273   3.859   2.460   3.770  1.0202  0.1678  0.6904
  125OSM   H17S13274   3.818   2.362   3.736  1.0624 -0.1448  1.5221
  125OSM   H17T13275   3.823   2.534   3.695 -1.6667  0.7346  2.4341
  125OSM   C18S13276   3.799   2.491   3.909  0.2794 -0.5006  0.3268
  125OSM   H18S13277   3.690   2.491   3.888  0.1851  1.9705  0.5542
  125OSM   H18T13278   3.847   2.583   3.948  1.9836 -1.1146 -0.2369
  125OSM   H18U13279   3.817   2.411   3.984  0.1682  0.6012  1.5579
  125OSM    C1F13280   3.395   2.601   2.264  0.3534  0.2533  0.0869
  125OSM     OF13281   3.430   2.511   2.188  0.2338  0.4707  0.4189
  125OSM    C2F13282   3.251   2.611   2.300 -0.8339  0.2425  0.2646
  125OSM    H2F13283   3.196   2.519   2.270  1.3068 -0.6530 -1.1588
  125OSM    H2G13284   3.205   2.700   2.252 -0.2458 -0.4133 -1.6155
  125OSM    C3F13285   3.237   2.629   2.464  0.4880 -0.0944  0.1031
  125OSM    H3F13286   3.131   2.649   2.490  0.2933 -0.0615 -0.6896
  125OSM    H3G13287   3.290   2.722   2.492 -0.1338 -0.4596  2.7230
  125OSM    C4F13288   3.287   2.503   2.542 -0.1230 -0.2090 -0.3514
  125OSM    H4F13289   3.391   2.489   2.507  0.7261  3.8871  0.0833
  125OSM    H4G13290   3.220   2.421   2.509  0.8575 -0.7016 -1.1992
  125OSM    C5F13291   3.279   2.523   2.697 -0.1513 -0.7099  0.2055
  125OSM    H5F13292   3.278   2.428   2.754 -1.5331 -0.5084  0.5682
  125OSM    H5G13293   3.184   2.579   2.716  0.6018  0.9888 -0.7323
  125OSM    C6F13294   3.407   2.607   2.739  0.1690 -0.1580  0.1375
  125OSM    H6F13295   3.398   2.710   2.698 -2.2001 -0.8055 -1.1924
  125OSM    H6G13296   3.504   2.567   2.703  0.5915  0.8175  0.1394
  125OSM    C7F13297   3.412   2.623   2.896 -0.5198 -0.1716 -1.3061
  125OSM    H7F13298   3.446   2.527   2.940 -0.2754  1.3206  2.0942
  125OSM    H7G13299   3.312   2.647   2.938  0.0995  0.5593 -0.1775
  125OSM    C8F13300   3.503   2.742   2.935  0.4736 -0.1642 -0.7644
  125OSM    H8F13301   3.604   2.739   2.889  0.5792  1.7658 -0.7525
  125OSM    H8G13302   3.526   2.721   3.042  1.1494 -0.8795 -1.0419
  125OSM    C9F13303   3.435   2.882   2.916 -0.9480  0.5686 -0.8131
  125OSM    H9F13304   3.401   2.911   2.816 -1.5528  3.9397  0.2121
  125OSM   C10F13305   3.438   2.986   3.003  0.5454 -0.0562 -0.0361
  125OSM   H10F13306   3.376   3.072   2.975  0.5982  0.6726  1.9240
  125OSM   C11F13307   3.496   2.993   3.144  0.0278  0.3655 -0.0654
  125OSM   H11F13308   3.555   3.086   3.155 -0.5781  0.5262  2.4334
  125OSM   H11G13309   3.561   2.909   3.177 -0.5802 -0.7792 -1.6258
  125OSM   C12F13310   3.373   3.001   3.232 -0.5138  0.4284 -0.0514
  125OSM   H12F13311   3.327   2.901   3.240  1.6367 -0.5242  1.5801
  125OSM   H12G13312   3.306   3.080   3.192  2.9413  3.0140 -1.3579
  125OSM   C13F13313   3.412   3.032   3.377 -0.3061  0.6221  0.6284
  125OSM   H13F13314   3.440   3.138   3.388 -0.1635  0.6552 -0.0470
  125OSM   H13G13315   3.496   2.966   3.409 -2.4279 -2.2937  0.6355
  125OSM   C14F13316   3.293   3.018   3.470  0.0393  0.0938 -0.8523
  125OSM   H14F13317   3.261   2.912   3.463 -0.5695  0.2626 -0.7431
  125OSM   H14G13318   3.210   3.071   3.419 -0.2547 -0.3455 -0.8391
  125OSM   C15F13319   3.312   3.062   3.614  0.3179 -0.1789  0.1115
  125OSM   H15F13320   3.219   3.060   3.675  0.9556  0.5442  1.1333
  125OSM   H15G13321   3.340   3.169   3.615  0.7618 -0.2560  2.2862
  125OSM   C16F13322   3.422   2.987   3.684 -0.0400  0.8046 -0.7462
  125OSM   H16F13323   3.436   3.025   3.788 -0.2241  1.9361 -1.1298
  125OSM   H16G13324   3.517   2.964   3.631  0.5949 -1.0062  1.0496
  125OSM   C17F13325   3.381   2.838   3.720 -0.3353 -0.0570  0.3943
  125OSM   H17F13326   3.271   2.828   3.733 -0.1807  0.2121  2.1031
  125OSM   H17G13327   3.428   2.799   3.812 -2.0684 -0.1992  1.2585
  125OSM   C18F13328   3.417   2.739   3.615 -0.0258  0.8125  0.5714
  125OSM   H18F13329   3.384   2.764   3.512 -2.4333  0.0376  1.0822
  125OSM   H18G13330   3.363   2.643   3.631 -1.2741  1.2330 -0.8536
  125OSM   H18H13331   3.525   2.720   3.600 -0.0979  1.1850 -0.5521
  126OSM      N13332   1.924   2.312   2.002  0.6026 -0.1842 -0.7203
  126OSM    C1513333   1.819   2.254   1.917 -0.0684 -0.3156 -0.1168
  126OSM   H15A13334   1.792   2.326   1.841  0.7918 -0.5409 -0.6554
  126OSM   H15B13335   1.726   2.234   1.968  0.5507  0.2638  1.3171
  126OSM   H15C13336   1.854   2.163   1.872 -2.1269 -1.3157  0.2053
  126OSM    C1413337   1.868   2.424   2.085 -1.1407  1.0080 -0.0225
  126OSM   H14A13338   1.823   2.369   2.166  1.3078  1.7872  1.9801
  126OSM   H14B13339   1.799   2.485   2.029 -2.2553 -0.7681 -0.6725
  126OSM   H14C13340   1.954   2.476   2.124 -0.8264  1.0645 -0.7738
  126OSM    C1313341   1.987   2.205   2.097  0.3521 -0.6295  0.2121
  126OSM   H13A13342   2.071   2.253   2.146  0.6243  1.0355 -1.7604
  126OSM   H13B13343   2.025   2.122   2.041  1.3719  0.2169 -0.3856
  126OSM   H13C13344   1.912   2.170   2.166 -1.2176 -0.1411 -1.1727
  126OSM    C1213345   2.031   2.372   1.906 -0.0102  0.4574  0.4559
  126OSM   H12A13346   1.982   2.412   1.819 -1.1440  0.5753  1.1322
  126OSM   H12B13347   2.093   2.288   1.877 -0.5701 -0.1506  0.9990
  126OSM    C1113348   2.121   2.481   1.966  0.2283  0.4506 -0.6168
  126OSM   H11A13349   2.056   2.566   1.996  2.1544  1.0547  2.2742
  126OSM   H11B13350   2.183   2.522   1.883  2.0449 -1.9324 -0.5547
  126OSM      P13351   2.337   2.351   2.049 -0.2117  0.0755  0.2654
  126OSM    O1313352   2.314   2.215   2.003  0.9824  0.5913  0.4674
  126OSM    O1413353   2.422   2.433   1.958 -0.3978 -0.3765 -0.5449
  126OSM    O1113354   2.401   2.343   2.192  0.2690  0.2811 -0.1443
  126OSM    O1213355   2.201   2.431   2.077 -0.2157 -0.0633  0.1185
  126OSM    C1S13356   2.423   2.460   2.269  0.5286 -0.2277 -0.6008
  126OSM    H1S13357   2.445   2.549   2.207  2.3028  0.1930  0.5704
  126OSM    H1T13358   2.511   2.444   2.335 -1.0971  0.3922  1.8658
  126OSM     NF13359   2.336   2.616   2.442 -0.5803  0.3478  0.0644
  126OSM    HNF13360   2.368   2.599   2.535 -2.4488  1.9929  1.0980
  126OSM    C2S13361   2.299   2.495   2.364 -0.5458  0.5634  0.8965
  126OSM    H2S13362   2.212   2.523   2.301 -1.4867 -0.0092  1.9132
  126OSM    C3S13363   2.252   2.375   2.450 -0.3996  0.4416 -0.4361
  126OSM    H3S13364   2.317   2.360   2.538 -2.6533 -2.4222  0.8789
  126OSM     O313365   2.277   2.250   2.390 -0.0740 -0.2716 -0.1458
  126OSM    HO313366   2.315   2.280   2.307 -1.1193  3.1048  0.4318
  126OSM    C4S13367   2.118   2.395   2.507  0.2979 -0.2456  0.5465
  126OSM    H4S13368   2.110   2.459   2.596 -0.8170 -0.1900  0.4208
  126OSM    C5S13369   2.012   2.356   2.446  0.6242 -0.7622  1.0843
  126OSM    H5S13370   2.021   2.282   2.365  2.7374 -0.3886  0.9295
  126OSM    C6S13371   1.876   2.391   2.501 -0.3919 -0.1220 -0.2504
  126OSM    H6S13372   1.821   2.297   2.521 -1.8814  1.0231  1.2713
  126OSM    H6T13373   1.812   2.440   2.424 -1.2771 -0.5033  0.2393
  126OSM    C7S13374   1.862   2.492   2.619  0.1236 -0.2685  0.6948
  126OSM    H7S13375   1.755   2.517   2.607  0.6641  0.6576 -4.3775
  126OSM    H7T13376   1.921   2.585   2.604 -2.0578  1.2546  1.1771
  126OSM    C8S13377   1.888   2.436   2.761  0.4348  0.0263 -0.1682
  126OSM    H8S13378   1.978   2.371   2.759  0.0763 -0.5864  1.9739
  126OSM    H8T13379   1.805   2.371   2.796  0.3875 -0.9482 -1.9679
  126OSM    C9S13380   1.916   2.557   2.859  0.2860  0.4656 -0.2586
  126OSM    H9S13381   1.820   2.610   2.880  0.2209  1.0481 -1.8759
  126OSM    H9T13382   1.979   2.631   2.805  0.1401  0.4627 -0.4359
  126OSM   C10S13383   2.004   2.528   2.982 -0.0326 -0.6413  0.4985
  126OSM   H10S13384   2.109   2.507   2.952 -0.5670 -0.1070 -1.9358
  126OSM   H10T13385   1.968   2.444   3.045 -0.1434 -2.0065 -1.3017
  126OSM   C11S13386   2.016   2.657   3.073  0.5572 -0.1891  0.6771
  126OSM   H11S13387   1.915   2.685   3.110 -0.0963 -3.0827  1.3577
  126OSM   H11T13388   2.056   2.742   3.014  1.2851 -1.4585 -0.7249
  126OSM   C12S13389   2.086   2.623   3.214 -0.4264 -0.3463  0.3388
  126OSM   H12S13390   2.195   2.603   3.207 -0.3320 -0.1477  1.1431
  126OSM   H12T13391   2.030   2.543   3.265 -1.2373  1.0498  1.7463
  126OSM   C13S13392   2.062   2.740   3.319  0.1560  0.3453  0.2193
  126OSM   H13S13393   2.116   2.698   3.407  1.9364  0.5079 -0.7569
  126OSM   H13T13394   1.953   2.746   3.342  0.3775 -0.6928  1.7244
  126OSM   C14S13395   2.131   2.871   3.287 -0.2912 -0.3040 -0.0929
  126OSM   H14S13396   2.066   2.916   3.208 -2.6184 -0.5810  1.5625
  126OSM   H14T13397   2.226   2.848   3.235 -0.8891  1.0182 -1.8693
  126OSM   C15S13398   2.149   2.971   3.403  0.7288  0.3046  0.5662
  126OSM   H15S13399   2.054   2.977   3.460  0.1771 -3.1884  0.2226
  126OSM   H15T13400   2.184   3.070   3.368  1.1006 -0.4020 -1.1372
  126OSM   C16S13401   2.242   2.932   3.515 -0.0375  0.3898 -0.0871
  126OSM   H16S13402   2.348   2.914   3.487  1.0526  2.7814  2.1516
  126OSM   H16T13403   2.196   2.840   3.559 -0.3140  0.6062  0.0766
  126OSM   C17S13404   2.252   3.037   3.625 -0.1770  1.0850  0.0783
  126OSM   H17S13405   2.152   3.064   3.666 -1.0102  1.3464 -2.0013
  126OSM   H17T13406   2.301   3.126   3.582 -1.2188  1.7306  0.1967
  126OSM   C18S13407   2.352   2.978   3.731 -0.1284 -0.8140  0.6942
  126OSM   H18S13408   2.331   2.879   3.775  0.0635 -0.8193  0.7778
  126OSM   H18T13409   2.354   3.052   3.814  0.8214 -0.5533  0.4528
  126OSM   H18U13410   2.458   2.972   3.697  0.0213  1.5650  0.5051
  126OSM    C1F13411   2.347   2.741   2.386 -0.1752  0.3104  0.1534
  126OSM     OF13412   2.340   2.757   2.264  0.1200  0.1522  0.0022
  126OSM    C2F13413   2.365   2.853   2.483 -0.0266 -0.0620 -0.2204
  126OSM    H2F13414   2.455   2.821   2.540  0.9596 -0.0235 -1.7014
  126OSM    H2G13415   2.278   2.837   2.551  0.7515  0.1307  0.8586
  126OSM    C3F13416   2.376   2.989   2.417 -0.4309  0.3350 -0.3205
  126OSM    H3F13417   2.280   3.001   2.362 -0.3491  0.0892 -0.5184
  126OSM    H3G13418   2.453   2.984   2.337 -0.2877 -1.1715 -0.1144
  126OSM    C4F13419   2.412   3.112   2.504  0.0070  0.3299  0.2004
  126OSM    H4F13420   2.343   3.128   2.590 -0.2500 -2.4167  0.6125
  126OSM    H4G13421   2.406   3.209   2.451 -0.8648  0.2313  0.1032
  126OSM    C5F13422   2.560   3.091   2.558  0.5386  0.0749  0.8874
  126OSM    H5F13423   2.620   3.082   2.465  0.1102 -0.1416  0.6338
  126OSM    H5G13424   2.575   2.993   2.608  1.5244 -0.1209  0.2448
  126OSM    C6F13425   2.628   3.217   2.618 -0.1592 -0.4913  0.4549
  126OSM    H6F13426   2.620   3.308   2.553  0.6046  0.4390  1.6225
  126OSM    H6G13427   2.735   3.191   2.623  0.8099  2.8738  0.0321
  126OSM    C7F13428   2.584   3.253   2.762 -0.3406 -0.5173 -0.0895
  126OSM    H7F13429   2.591   3.167   2.832  0.4971 -1.2539 -1.0495
  126OSM    H7G13430   2.475   3.272   2.748  0.0277  1.0199 -1.1297
  126OSM    C8F13431   2.643   3.379   2.831  0.3932 -0.3410 -0.2349
  126OSM    H8F13432   2.585   3.400   2.923 -0.8554 -0.3485 -1.0006
  126OSM    H8G13433   2.631   3.466   2.762 -1.0215 -0.5163 -0.2242
  126OSM    C9F13434   2.794   3.368   2.852 -0.1246  0.0744 -0.0788
  126OSM    H9F13435   2.847   3.322   2.767 -0.7701 -0.3553 -0.2518
  126OSM   C10F13436   2.867   3.405   2.963  0.1356 -0.7202 -0.6262
  126OSM   H10F13437   2.971   3.371   2.964  0.6558  0.7204  2.1000
  126OSM   C11F13438   2.811   3.458   3.090 -0.5616 -0.2813 -0.2262
  126OSM   H11F13439   2.862   3.413   3.178 -2.9086  0.2266  1.4841
  126OSM   H11G13440   2.705   3.425   3.097 -0.1363 -1.4086  1.5126
  126OSM   C12F13441   2.819   3.612   3.112 -0.2311 -0.2663  0.4579
  126OSM   H12F13442   2.767   3.651   3.022  0.3336  0.0639  0.2714
  126OSM   H12G13443   2.926   3.639   3.125 -0.4657 -0.0612  2.1939
  126OSM   C13F13444   2.732   3.664   3.233 -0.3006  0.3138  0.2374
  126OSM   H13F13445   2.645   3.599   3.256 -0.9444  0.5002 -1.4964
  126OSM   H13G13446   2.691   3.763   3.204  3.9504  1.9466 -1.0867
  126OSM   C14F13447   2.820   3.690   3.352  0.7263  0.4001 -0.8747
  126OSM   H14F13448   2.905   3.760   3.339  0.6087  1.2127  2.0211
  126OSM   H14G13449   2.856   3.592   3.392  0.8784  0.5167 -0.7237
  126OSM   C15F13450   2.736   3.752   3.469  0.4034 -0.3918 -0.4427
  126OSM   H15F13451   2.671   3.674   3.513  1.6758  0.6718  3.7986
  126OSM   H15G13452   2.669   3.829   3.425 -1.5101 -2.0872 -0.6381
  126OSM   C16F13453   2.810   3.824   3.585  0.5669 -0.5386 -0.0142
  126OSM   H16F13454   2.847   3.922   3.549 -0.9974 -0.2048 -0.7895
  126OSM   H16G13455   2.905   3.777   3.620  0.7923  0.6201  0.9748
  126OSM   C17F13456   2.716   3.845   3.703  0.1494 -0.3087 -0.2165
  126OSM   H17F13457   2.627   3.902   3.669  1.0022  1.0650 -0.2262
  126OSM   H17G13458   2.766   3.906   3.781 -1.3877  0.7745 -0.0273
  126OSM   C18F13459   2.665   3.718   3.773  0.7085  0.5135 -1.5455
  126OSM   H18F13460   2.751   3.656   3.807  0.1513 -0.3261 -1.6373
  126OSM   H18G13461   2.595   3.661   3.708  0.7095 -0.0376 -1.0635
  126OSM   H18H13462   2.606   3.746   3.863 -1.1025  0.2847 -2.6056
  127OSM      N13463   1.708   4.744   1.596 -0.9018  0.1515 -0.3204
  127OSM    C1513464   1.697   4.607   1.532 -0.1365  0.3447  0.0427
  127OSM   H15A13465   1.598   4.568   1.551 -0.5393  1.3136  0.0108
  127OSM   H15B13466   1.767   4.538   1.576  0.4436  0.0418 -1.2937
  127OSM   H15C13467   1.721   4.598   1.427 -1.3148 -2.7509 -0.0567
  127OSM    C1413468   1.632   4.737   1.724  0.0830 -0.4419  0.2276
  127OSM   H14A13469   1.528   4.724   1.697 -0.7506 -0.7485  3.2151
  127OSM   H14B13470   1.637   4.828   1.781 -0.2380  0.2773 -0.8696
  127OSM   H14C13471   1.666   4.653   1.784 -0.0799 -1.5660 -1.1985
  127OSM    C1313472   1.850   4.770   1.632  0.3402 -0.4093 -0.6328
  127OSM   H13A13473   1.857   4.874   1.662 -1.0489  0.1087 -1.9812
  127OSM   H13B13474   1.904   4.760   1.538  3.0611 -1.0260  0.8978
  127OSM   H13C13475   1.890   4.703   1.706  0.6903  1.3357  0.8231
  127OSM    C1213476   1.647   4.850   1.508 -0.9064  0.1173 -0.7008
  127OSM   H12A13477   1.543   4.823   1.504 -1.0139  0.6576 -1.9028
  127OSM   H12B13478   1.694   4.855   1.411 -1.1495 -0.6067 -0.8618
  127OSM    C1113479   1.644   4.999   1.561 -0.5742 -0.7663 -0.5931
  127OSM   H11A13480   1.606   4.994   1.666  2.7846 -2.1889  0.7010
  127OSM   H11B13481   1.576   5.059   1.498 -0.5334  0.8041  0.7877
  127OSM      P13482   1.795   5.197   1.624  0.0119 -0.2152  0.0084
  127OSM    O1313483   1.926   5.242   1.566  0.0799 -0.4478  0.3523
  127OSM    O1413484   1.676   5.283   1.605  0.6148 -0.3597 -0.1607
  127OSM    O1113485   1.810   5.151   1.775  0.0033 -0.2575 -0.3132
  127OSM    O1213486   1.768   5.053   1.558  0.3760 -1.3651  0.4706
  127OSM    C1S13487   1.929   5.079   1.824 -0.0006  0.5013 -0.7017
  127OSM    H1S13488   2.023   5.137   1.809 -0.2007  1.5117  1.5528
  127OSM    H1T13489   1.944   4.985   1.766  0.3132 -0.4419  0.8453
  127OSM     NF13490   2.036   4.972   2.012 -0.4682 -0.3100 -0.8111
  127OSM    HNF13491   2.041   4.873   2.002 -0.8064 -0.6973  1.9044
  127OSM    C2S13492   1.912   5.040   1.971  0.2053 -0.4582 -0.5142
  127OSM    H2S13493   1.887   5.136   2.022 -0.8854 -0.6431 -0.6778
  127OSM    C3S13494   1.784   4.952   1.992  1.5053 -0.4154 -0.4425
  127OSM    H3S13495   1.797   4.852   1.946  0.2446 -0.7707 -0.0733
  127OSM     O313496   1.669   4.995   1.917 -0.2910  0.3610 -0.1026
  127OSM    HO313497   1.702   5.066   1.862 -1.3319  0.2775 -0.8444
  127OSM    C4S13498   1.748   4.933   2.133 -0.1216  0.0384 -0.2190
  127OSM    H4S13499   1.777   4.834   2.171 -0.3754 -0.7227 -1.9480
  127OSM    C5S13500   1.695   5.022   2.222  0.4395 -0.1221 -0.5795
  127OSM    H5S13501   1.690   5.130   2.199 -1.2311  0.4756  2.1254
  127OSM    C6S13502   1.660   4.994   2.362  0.2436  0.0774  0.3663
  127OSM    H6S13503   1.657   4.885   2.381  1.9036 -0.5284 -2.2205
  127OSM    H6T13504   1.555   5.023   2.381 -0.5598 -2.1437 -0.3875
  127OSM    C7S13505   1.762   5.054   2.462 -1.0196 -0.2029 -0.0116
  127OSM    H7S13506   1.732   5.028   2.566  0.5068  1.2639  0.8346
  127OSM    H7T13507   1.765   5.165   2.462 -1.5782 -0.1485  2.3447
  127OSM    C8S13508   1.910   5.006   2.455  0.0507  0.4139  0.2742
  127OSM    H8S13509   1.948   5.039   2.356  0.9588 -0.3896  0.3467
  127OSM    H8T13510   1.918   4.896   2.472  0.0783  0.4505  0.5020
  127OSM    C9S13511   2.001   5.081   2.556 -0.5740 -0.2788 -0.6220
  127OSM    H9S13512   1.981   5.190   2.541 -1.2222 -0.3420 -0.2215
  127OSM    H9T13513   2.103   5.060   2.518 -0.5860  1.6762 -1.9465
  127OSM   C10S13514   1.998   5.046   2.704  0.2709  0.4558  0.4241
  127OSM   H10S13515   2.004   4.935   2.702 -2.0352  0.2121 -3.3035
  127OSM   H10T13516   1.905   5.071   2.759 -0.4184 -0.5038 -0.2625
  127OSM   C11S13517   2.128   5.092   2.771 -0.3610 -0.5614  0.0332
  127OSM   H11S13518   2.103   5.199   2.784 -3.0032 -1.2948  1.9268
  127OSM   H11T13519   2.222   5.075   2.715 -0.4984  1.5296 -0.9428
  127OSM   C12S13520   2.134   5.026   2.907 -0.5375  0.0287  0.0887
  127OSM   H12S13521   2.171   4.923   2.889 -0.9847  0.1042 -1.3833
  127OSM   H12T13522   2.043   5.025   2.971  0.5697  0.7572  1.7331
  127OSM   C13S13523   2.235   5.101   2.998  0.3129  0.0757 -0.0530
  127OSM   H13S13524   2.204   5.208   2.996  0.5544  0.1539  0.3999
  127OSM   H13T13525   2.331   5.117   2.945 -0.8178  0.3255 -2.1697
  127OSM   C14S13526   2.262   5.060   3.146 -0.4337  0.3621 -0.1892
  127OSM   H14S13527   2.300   4.956   3.137 -1.9363 -0.3265  1.0399
  127OSM   H14T13528   2.172   5.051   3.210 -2.3521  0.3616 -2.7371
  127OSM   C15S13529   2.365   5.152   3.217  0.8314 -0.5484 -0.1684
  127OSM   H15S13530   2.327   5.255   3.235  1.1398 -0.1533 -1.6320
  127OSM   H15T13531   2.451   5.166   3.147  1.8338 -1.0859  0.9133
  127OSM   C16S13532   2.412   5.093   3.355  0.7624 -0.0493  0.2715
  127OSM   H16S13533   2.491   5.158   3.398  0.8296 -0.4733  0.8009
  127OSM   H16T13534   2.460   4.994   3.339 -0.1975 -0.9699  2.6220
  127OSM   C17S13535   2.295   5.086   3.463 -0.0245  0.3251 -0.2496
  127OSM   H17S13536   2.203   5.042   3.418 -2.0422  2.3817  1.5917
  127OSM   H17T13537   2.273   5.194   3.474 -1.3083  0.1133 -0.6186
  127OSM   C18S13538   2.344   5.028   3.596 -0.2188 -0.4426  0.6356
  127OSM   H18S13539   2.426   5.092   3.636  0.5124 -0.5515 -0.6550
  127OSM   H18T13540   2.372   4.922   3.580  0.3214 -0.0144 -1.5018
  127OSM   H18U13541   2.261   5.022   3.670  0.6357 -0.5300  1.6123
  127OSM    C1F13542   2.147   5.050   2.035  0.5874 -0.0125 -0.5141
  127OSM     OF13543   2.129   5.170   2.061 -0.1261 -0.6478  0.1268
  127OSM    C2F13544   2.277   4.978   2.037  0.2410  0.8417 -0.0386
  127OSM    H2F13545   2.356   5.032   1.981 -0.1967  0.6430 -0.8802
  127OSM    H2G13546   2.272   4.891   1.967  0.6797  1.6540 -1.1019
  127OSM    C3F13547   2.330   4.948   2.178 -0.3314 -0.3984  0.2816
  127OSM    H3F13548   2.425   4.890   2.180 -0.5635 -0.9002 -1.3744
  127OSM    H3G13549   2.261   4.890   2.243 -0.9607 -0.5229 -0.4792
  127OSM    C4F13550   2.354   5.078   2.262 -0.0051 -0.5052  0.1012
  127OSM    H4F13551   2.259   5.131   2.281 -0.0175  0.0409 -1.3429
  127OSM    H4G13552   2.415   5.159   2.215 -1.1961  1.5659  1.9439
  127OSM    C5F13553   2.438   5.053   2.390  0.1993 -0.5148  0.4108
  127OSM    H5F13554   2.416   5.146   2.448  0.9547 -0.0318 -0.0562
  127OSM    H5G13555   2.544   5.054   2.357  0.0816  2.9375 -0.2413
  127OSM    C6F13556   2.408   4.917   2.463 -0.2118 -0.1765 -0.1870
  127OSM    H6F13557   2.431   4.832   2.396 -3.8302 -1.5552  0.1093
  127OSM    H6G13558   2.297   4.911   2.471 -0.2162  0.4546  0.2902
  127OSM    C7F13559   2.466   4.903   2.606 -0.7535 -0.6697 -0.1540
  127OSM    H7F13560   2.406   4.958   2.682 -2.7715 -1.9519 -0.7451
  127OSM    H7G13561   2.568   4.947   2.604 -1.1624  0.2860 -0.5163
  127OSM    C8F13562   2.483   4.759   2.666 -0.1612  0.8232 -0.2303
  127OSM    H8F13563   2.533   4.764   2.765 -0.8933 -0.5934  0.2269
  127OSM    H8G13564   2.551   4.701   2.600  0.4078  1.1378  0.0754
  127OSM    C9F13565   2.351   4.696   2.694 -0.1139 -0.5756  0.0711
  127OSM    H9F13566   2.293   4.672   2.603  0.0934 -2.8220  0.4811
  127OSM   C10F13567   2.301   4.668   2.814 -0.3520 -0.2001  0.4419
  127OSM   H10F13568   2.205   4.615   2.807 -0.2649 -0.5133  1.3914
  127OSM   C11F13569   2.366   4.681   2.949  0.7871 -0.5621 -0.1638
  127OSM   H11F13570   2.313   4.756   3.011 -0.2367 -0.5050 -1.0733
  127OSM   H11G13571   2.471   4.716   2.942  0.9039 -1.1799 -2.4920
  127OSM   C12F13572   2.377   4.544   3.013  0.4090 -0.0113  0.6448
  127OSM   H12F13573   2.462   4.494   2.962  0.5328  0.5129  0.3278
  127OSM   H12G13574   2.286   4.482   3.006  0.7591 -0.3072 -1.8868
  127OSM   C13F13575   2.401   4.561   3.166  0.3405  0.3441 -0.1504
  127OSM   H13F13576   2.474   4.643   3.183 -1.1634  1.6771  0.0560
  127OSM   H13G13577   2.445   4.465   3.200 -1.9218 -0.2213  1.4160
  127OSM   C14F13578   2.272   4.596   3.241  0.3667 -0.4363  0.1331
  127OSM   H14F13579   2.180   4.542   3.210 -0.7435  0.2129  2.1237
  127OSM   H14G13580   2.246   4.701   3.218  0.1818 -0.2577  1.1296
  127OSM   C15F13581   2.297   4.601   3.398 -0.0244 -0.1411  0.0789
  127OSM   H15F13582   2.373   4.680   3.420  1.9237 -2.0709  0.6863
  127OSM   H15G13583   2.326   4.496   3.422 -2.7325 -1.1319 -0.6400
  127OSM   C16F13584   2.181   4.628   3.496 -0.0775 -1.3596 -0.0283
  127OSM   H16F13585   2.104   4.555   3.464  0.8235 -2.2554 -0.2085
  127OSM   H16G13586   2.144   4.732   3.484  0.6453 -0.8208  1.9561
  127OSM   C17F13587   2.221   4.613   3.642 -0.1983 -0.1137 -0.0930
  127OSM   H17F13588   2.281   4.699   3.679  0.1833 -0.4830  0.1611
  127OSM   H17G13589   2.285   4.527   3.671  0.3367  0.6009  0.8970
  127OSM   C18F13590   2.107   4.610   3.743 -0.1713 -0.2107  1.3787
  127OSM   H18F13591   2.040   4.521   3.742  1.3802 -1.4907 -1.8143
  127OSM   H18G13592   2.053   4.707   3.743  0.5000  0.1670  0.6295
  127OSM   H18H13593   2.154   4.615   3.844 -3.0643 -0.3514  2.8404
  128OSM      N13594   1.644   4.168   2.006 -0.6283  0.2545  0.1480
  128OSM    C1513595   1.537   4.271   2.006  0.7644  0.7414  0.0566
  128OSM   H15A13596   1.488   4.293   2.099 -0.9337  0.7499 -0.8002
  128OSM   H15B13597   1.456   4.244   1.939 -1.3227 -1.2934  3.1207
  128OSM   H15C13598   1.586   4.358   1.965  3.2471 -1.0963 -1.1712
  128OSM    C1413599   1.737   4.203   2.121  0.2558 -0.4714  0.0054
  128OSM   H14A13600   1.774   4.305   2.118  2.0411 -1.0447 -3.7200
  128OSM   H14B13601   1.819   4.133   2.125  0.3406 -0.5290 -1.8146
  128OSM   H14C13602   1.683   4.196   2.214  0.3697 -1.4860  0.0057
  128OSM    C1313603   1.593   4.026   2.030  0.9801  0.2821  0.0223
  128OSM   H13A13604   1.530   3.995   1.949  2.4518 -1.3303 -0.5676
  128OSM   H13B13605   1.544   4.023   2.126 -1.2580 -0.4336 -1.1001
  128OSM   H13C13606   1.678   3.962   2.049 -1.3897 -2.8187  0.9015
  128OSM    C1213607   1.716   4.174   1.875  0.0323 -0.1565 -0.5159
  128OSM   H12A13608   1.636   4.161   1.803 -0.0713  0.0806 -0.4430
  128OSM   H12B13609   1.778   4.088   1.855 -2.6124 -1.4164 -4.4147
  128OSM    C1113610   1.780   4.307   1.821  0.1618  0.5658 -0.5920
  128OSM   H11A13611   1.704   4.386   1.809  0.8388  1.3271 -0.0103
  128OSM   H11B13612   1.819   4.268   1.725 -0.6494 -0.3506 -0.5630
  128OSM      P13613   2.030   4.276   1.906 -0.2209  0.3265 -0.1004
  128OSM    O1313614   2.030   4.139   1.850  0.1475  0.4500 -0.1591
  128OSM    O1413615   2.127   4.373   1.854  0.7789 -0.4539 -0.9152
  128OSM    O1113616   2.051   4.255   2.063 -0.3532 -0.3009 -0.0621
  128OSM    O1213617   1.888   4.349   1.902 -0.3894 -0.3628 -0.5015
  128OSM    C1S13618   2.041   4.367   2.153 -0.7537 -0.0642  0.1981
  128OSM    H1S13619   1.951   4.429   2.133 -0.7679  0.8437  2.7493
  128OSM    H1T13620   2.135   4.424   2.140 -1.4102  0.9307 -0.3263
  128OSM     NF13621   1.995   4.440   2.368  0.0383 -0.0088  0.0384
  128OSM    HNF13622   2.074   4.500   2.364  0.2838 -0.3807 -0.9262
  128OSM    C2S13623   2.029   4.320   2.297  0.2233  0.2689 -0.6007
  128OSM    H2S13624   1.947   4.244   2.298 -0.3399  0.8443  1.2195
  128OSM    C3S13625   2.160   4.243   2.334 -0.6828 -0.5849  0.8040
  128OSM    H3S13626   2.239   4.316   2.307 -2.5511  1.7781  1.4521
  128OSM     O313627   2.177   4.123   2.257  0.4654 -0.2385  0.6025
  128OSM    HO313628   2.153   4.145   2.167 -0.6332  1.4114  1.2535
  128OSM    C4S13629   2.173   4.220   2.486 -0.1106 -0.1565  0.1789
  128OSM    H4S13630   2.211   4.308   2.540  0.4337 -0.1513 -0.2106
  128OSM    C5S13631   2.143   4.110   2.558  0.5186 -0.0065  0.4035
  128OSM    H5S13632   2.089   4.029   2.507  2.1969  0.1279 -1.7174
  128OSM    C6S13633   2.162   4.097   2.702 -0.3534 -0.1526  0.6165
  128OSM    H6S13634   2.167   3.987   2.716 -0.6544 -0.5322 -1.7201
  128OSM    H6T13635   2.067   4.133   2.744 -2.7701 -2.5568 -2.2461
  128OSM    C7S13636   2.289   4.162   2.755  0.3324  0.1384  0.8508
  128OSM    H7S13637   2.306   4.271   2.739  0.9378  0.0067  0.5904
  128OSM    H7T13638   2.381   4.119   2.711  0.5556  0.8222  0.6231
  128OSM    C8S13639   2.302   4.135   2.909 -1.1922  0.2743 -0.2431
  128OSM    H8S13640   2.247   4.041   2.930 -0.8368 -0.2734 -1.6527
  128OSM    H8T13641   2.257   4.218   2.966  1.5671  0.9927  1.0659
  128OSM    C9S13642   2.446   4.108   2.946  0.1451 -0.4358 -0.4980
  128OSM    H9S13643   2.503   4.201   2.925 -0.2937  0.1651  0.8568
  128OSM    H9T13644   2.489   4.019   2.894 -0.4664  0.2856 -2.3155
  128OSM   C10S13645   2.455   4.074   3.101 -0.5977 -0.9359  0.2120
  128OSM   H10S13646   2.556   4.028   3.106 -1.0680 -2.0221  0.0146
  128OSM   H10T13647   2.383   3.993   3.124  1.4210 -2.6729  0.7426
  128OSM   C11S13648   2.431   4.199   3.190 -0.0120  0.5531  0.4748
  128OSM   H11S13649   2.336   4.252   3.168  0.5593  0.4820 -2.5401
  128OSM   H11T13650   2.517   4.263   3.163 -0.0471  0.9265  1.2209
  128OSM   C12S13651   2.431   4.163   3.339  0.5124 -0.0525  0.1255
  128OSM   H12S13652   2.440   4.251   3.407  0.0344  0.1037 -0.0113
  128OSM   H12T13653   2.516   4.095   3.359  0.1586 -0.1017  1.5847
  128OSM   C13S13654   2.299   4.105   3.377  0.0129 -0.0374  0.5141
  128OSM   H13S13655   2.284   4.003   3.336 -0.6439  0.2146  0.1116
  128OSM   H13T13656   2.220   4.164   3.325 -0.0062  0.0562  0.6503
  128OSM   C14S13657   2.276   4.103   3.533  0.2819 -0.6842  0.3251
  128OSM   H14S13658   2.330   4.185   3.584  0.2879 -1.9763  2.5184
  128OSM   H14T13659   2.327   4.014   3.575 -0.8599 -0.3754  2.4935
  128OSM   C15S13660   2.131   4.093   3.580 -0.1572  0.3536  0.2159
  128OSM   H15S13661   2.128   4.034   3.674 -0.2555  0.4974  0.3047
  128OSM   H15T13662   2.073   4.040   3.501  0.3652 -1.9893  1.3185
  128OSM   C16S13663   2.077   4.235   3.598 -0.3904 -0.1342  0.6808
  128OSM   H16S13664   2.083   4.284   3.498 -1.2310  1.6123  1.4457
  128OSM   H16T13665   2.136   4.290   3.675  1.8187 -0.0688 -0.9518
  128OSM   C17S13666   1.926   4.237   3.633 -0.5035 -0.1933  0.5714
  128OSM   H17S13667   1.932   4.255   3.742  0.2332  1.9091  0.2400
  128OSM   H17T13668   1.880   4.137   3.617 -1.9854  0.4838  0.4890
  128OSM   C18S13669   1.853   4.361   3.572 -1.1419 -0.4547 -0.1715
  128OSM   H18S13670   1.867   4.450   3.637  0.1853  0.1559 -1.2406
  128OSM   H18T13671   1.745   4.337   3.579 -0.6650 -2.4469  1.5113
  128OSM   H18U13672   1.880   4.388   3.468 -1.0893 -1.0877 -0.3237
  128OSM    C1F13673   1.871   4.492   2.372  0.2126  0.0077 -0.4839
  128OSM     OF13674   1.779   4.431   2.325 -0.3862  0.1799 -0.4042
  128OSM    C2F13675   1.853   4.632   2.418 -0.9256  0.2083  0.3349
  128OSM    H2F13676   1.841   4.691   2.325  2.3136  0.3910 -0.0970
  128OSM    H2G13677   1.946   4.663   2.471 -2.1284  1.1185  2.0072
  128OSM    C3F13678   1.733   4.645   2.512  0.8123 -0.5102 -0.1033
  128OSM    H3F13679   1.645   4.605   2.458 -0.1474 -0.7445  1.5562
  128OSM    H3G13680   1.719   4.755   2.526 -1.4587 -0.9260  1.4344
  128OSM    C4F13681   1.752   4.594   2.656 -0.3210 -0.1122  0.1321
  128OSM    H4F13682   1.807   4.498   2.658 -1.1259 -0.5796  0.4989
  128OSM    H4G13683   1.650   4.583   2.699 -0.2357 -2.4918 -0.1589
  128OSM    C5F13684   1.833   4.693   2.738  0.0727  0.2677 -0.4116
  128OSM    H5F13685   1.786   4.793   2.726 -2.2565 -0.8100 -0.8326
  128OSM    H5G13686   1.938   4.692   2.702  0.0955 -1.1135 -0.3604
  128OSM    C6F13687   1.839   4.659   2.889 -0.1132 -0.1989 -0.4510
  128OSM    H6F13688   1.879   4.555   2.885  0.5649  0.0805 -1.1300
  128OSM    H6G13689   1.734   4.637   2.919  0.5102  0.9391  3.0200
  128OSM    C7F13690   1.919   4.751   2.969 -0.5975 -0.0605 -0.0329
  128OSM    H7F13691   1.894   4.853   2.932  1.9395  1.1673  1.2999
  128OSM    H7G13692   2.029   4.745   2.955 -0.8943  0.2123 -3.1667
  128OSM    C8F13693   1.874   4.751   3.116 -0.4122 -0.3956  0.1085
  128OSM    H8F13694   1.887   4.647   3.154  0.2475 -1.0178 -1.7381
  128OSM    H8G13695   1.765   4.772   3.119 -0.6367 -0.7758 -2.9273
  128OSM    C9F13696   1.957   4.838   3.208  0.1971  0.5112 -0.3066
  128OSM    H9F13697   2.052   4.863   3.159 -0.1702 -0.7666 -1.7452
  128OSM   C10F13698   1.927   4.877   3.332  0.0207 -0.9078  0.0868
  128OSM   H10F13699   1.998   4.944   3.382  1.6672 -2.4505 -0.0573
  128OSM   C11F13700   1.797   4.845   3.411 -0.0720  0.2378 -0.2486
  128OSM   H11F13701   1.725   4.797   3.341 -0.4561  2.5900 -1.6058
  128OSM   H11G13702   1.752   4.940   3.447 -0.3365 -1.4332  4.4099
  128OSM   C12F13703   1.815   4.765   3.541 -0.0553 -0.7591 -0.1302
  128OSM   H12F13704   1.896   4.690   3.531  0.5579 -0.3374  1.3338
  128OSM   H12G13705   1.717   4.715   3.559 -0.3022 -0.6492 -1.1057
  128OSM   C13F13706   1.857   4.854   3.668 -0.5218  0.7789  0.0843
  128OSM   H13F13707   1.874   4.782   3.751  0.8163 -0.0103 -0.8458
  128OSM   H13G13708   1.758   4.892   3.701 -0.5376  0.2215  0.7160
  128OSM   C14F13709   1.970   4.961   3.653  0.2635 -0.0922 -0.0062
  128OSM   H14F13710   1.950   5.034   3.572  1.7015  1.5160  1.0290
  128OSM   H14G13711   2.072   4.926   3.627  0.8800  1.1447  0.6951
  128OSM   C15F13712   1.994   5.048   3.776  0.6077  0.3301  0.1360
  128OSM   H15F13713   1.900   5.095   3.810 -0.0947 -0.5862 -0.4788
  128OSM   H15G13714   2.066   5.130   3.756 -1.5782  2.1649 -0.6013
  128OSM   C16F13715   2.052   4.977   3.900  0.4284  1.1502  0.0998
  128OSM   H16F13716   2.115   4.891   3.869 -0.2419  0.3431  0.9213
  128OSM   H16G13717   1.968   4.925   3.952  0.5670  2.1951  1.4182
  128OSM   C17F13718   2.119   5.064   4.005  0.3886  0.4601 -0.1150
  128OSM   H17F13719   2.152   5.001   4.091  1.9042  1.6780  0.2436
  128OSM   H17G13720   2.042   5.136   4.040  2.8465  3.2712 -0.1171
  128OSM   C18F13721   2.243   5.148   3.961 -0.1583 -0.1253 -0.2229
  128OSM   H18F13722   2.299   5.194   4.045  2.9147  0.2741 -2.3182
  128OSM   H18G13723   2.208   5.234   3.900  0.7785  0.7921  0.4983
  128OSM   H18H13724   2.328   5.094   3.914  0.4535 -0.1855  0.9104
  129OSM      N13725   4.593   2.096   1.774  0.1519 -0.7547 -0.1554
  129OSM    C1513726   4.498   2.211   1.777  0.5602  0.3870 -0.7309
  129OSM   H15A13727   4.538   2.289   1.840 -0.7069  0.2585  0.2753
  129OSM   H15B13728   4.399   2.183   1.810  0.1475  0.8437 -1.5551
  129OSM   H15C13729   4.475   2.258   1.683 -2.2709  2.0297  0.6483
  129OSM    C1413730   4.537   1.989   1.681 -0.7678  0.2210 -0.1136
  129OSM   H14A13731   4.450   1.945   1.727 -1.5641  0.9723 -0.8722
  129OSM   H14B13732   4.614   1.914   1.671 -2.3313 -1.4201 -0.4812
  129OSM   H14C13733   4.503   2.036   1.589 -0.6308 -0.5643 -0.5757
  129OSM    C1313734   4.719   2.154   1.709  0.0536  0.0432 -0.1197
  129OSM   H13A13735   4.792   2.076   1.690 -1.5393 -1.1964 -1.5093
  129OSM   H13B13736   4.764   2.225   1.776  0.3314 -1.2130  1.0751
  129OSM   H13C13737   4.699   2.199   1.613  0.9397  0.3001 -0.1933
  129OSM    C1213738   4.617   2.034   1.909 -0.0783  0.0825 -0.7929
  129OSM   H12A13739   4.530   1.981   1.945  1.7518 -0.1213  4.0726
  129OSM   H12B13740   4.621   2.117   1.979 -0.5648 -0.3225 -0.2777
  129OSM    C1113741   4.736   1.932   1.922  0.1304 -1.0546 -0.7792
  129OSM   H11A13742   4.745   1.921   2.032 -3.8871 -0.6533 -0.2507
  129OSM   H11B13743   4.825   1.980   1.875  0.7174  1.9405  2.9025
  129OSM      P13744   4.623   1.695   1.920  0.0173 -0.0302  0.1131
  129OSM    O1313745   4.530   1.631   1.834  0.0150  0.2537 -0.2948
  129OSM    O1413746   4.718   1.604   1.976  0.4323  0.5804  0.0522
  129OSM    O1113747   4.548   1.759   2.043  0.1725 -0.7086  0.2541
  129OSM    O1213748   4.706   1.808   1.856 -0.1316 -0.0812  0.2254
  129OSM    C1S13749   4.412   1.722   2.072 -0.3433  0.3437 -0.2647
  129OSM    H1S13750   4.398   1.612   2.073 -2.2698  0.5446  1.2427
  129OSM    H1T13751   4.334   1.759   2.002 -0.8094  3.3122  1.6121
  129OSM     NF13752   4.227   1.721   2.240 -0.1497  0.2066  0.8213
  129OSM    HNF13753   4.159   1.763   2.180 -0.5656 -1.4173  0.0715
  129OSM    C2S13754   4.360   1.761   2.216 -0.2061 -0.6427 -0.0191
  129OSM    H2S13755   4.429   1.718   2.291  1.0811 -0.0738 -0.8470
  129OSM    C3S13756   4.374   1.916   2.236  0.8700  0.3191  0.4415
  129OSM    H3S13757   4.290   1.954   2.175  0.3870 -2.0475 -0.4986
  129OSM     O313758   4.498   1.975   2.187  0.1029  0.0368  0.6184
  129OSM    HO313759   4.544   1.905   2.139  0.1224 -0.2216  1.0090
  129OSM    C4S13760   4.348   1.951   2.382 -1.3005  0.3728  0.0905
  129OSM    H4S13761   4.261   2.014   2.406 -0.8184  1.0733  0.0283
  129OSM    C5S13762   4.442   1.927   2.479 -0.3082  0.2418  0.2791
  129OSM    H5S13763   4.540   1.883   2.453 -0.3129 -1.2476  2.4959
  129OSM    C6S13764   4.421   1.964   2.626 -0.2099 -0.0044  0.6828
  129OSM    H6S13765   4.493   2.047   2.639  2.7189 -2.4515  1.0947
  129OSM    H6T13766   4.460   1.876   2.681  1.0545  1.1619  1.7148
  129OSM    C7S13767   4.278   1.996   2.667 -0.6979  0.4925 -0.4727
  129OSM    H7S13768   4.212   1.908   2.651  0.1631 -0.7724  2.3274
  129OSM    H7T13769   4.245   2.084   2.608  0.8979  1.1618 -0.4230
  129OSM    C8S13770   4.265   2.035   2.813  0.6894  0.2202 -0.0611
  129OSM    H8S13771   4.161   2.069   2.825  1.6281  3.3586  0.0414
  129OSM    H8T13772   4.317   2.132   2.830 -1.0820  1.5783 -1.8447
  129OSM    C9S13773   4.292   1.927   2.913 -0.9059 -0.2468 -0.8637
  129OSM    H9S13774   4.400   1.901   2.910 -1.3031 -2.2693  0.4343
  129OSM    H9T13775   4.240   1.834   2.881  3.9692 -3.4833 -0.4246
  129OSM   C10S13776   4.253   1.978   3.052 -0.1392  0.0574  0.2924
  129OSM   H10S13777   4.145   2.001   3.051 -0.5680 -1.7107  1.4073
  129OSM   H10T13778   4.304   2.075   3.071 -1.0234  0.7058 -0.5659
  129OSM   C11S13779   4.271   1.887   3.166  0.6143  0.3575 -1.3055
  129OSM   H11S13780   4.375   1.883   3.206  1.7429 -2.1653 -4.1056
  129OSM   H11T13781   4.246   1.782   3.138 -0.2991  0.1006  0.3780
  129OSM   C12S13782   4.176   1.933   3.279 -0.0261 -0.2906 -0.5828
  129OSM   H12S13783   4.069   1.936   3.246  0.2722 -1.7491 -1.7889
  129OSM   H12T13784   4.205   2.036   3.309 -1.4264  0.0370 -0.2541
  129OSM   C13S13785   4.196   1.839   3.395 -0.6324 -0.1273 -0.1546
  129OSM   H13S13786   4.304   1.817   3.408 -0.9244 -1.9115 -0.5793
  129OSM   H13T13787   4.131   1.749   3.389 -0.5763 -0.2140  0.4863
  129OSM   C14S13788   4.150   1.907   3.532 -0.5305  0.0100  0.6186
  129OSM   H14S13789   4.041   1.924   3.519 -0.4228 -1.0613 -2.6360
  129OSM   H14T13790   4.210   1.996   3.560  0.5637 -0.7253  0.6751
  129OSM   C15S13791   4.158   1.811   3.653 -1.1992 -0.5770  0.6075
  129OSM   H15S13792   4.257   1.763   3.642 -1.7729 -1.4946 -0.8035
  129OSM   H15T13793   4.090   1.723   3.656 -1.0602 -0.6815  0.6578
  129OSM   C16S13794   4.160   1.894   3.783 -0.0767  0.2365  0.0196
  129OSM   H16S13795   4.249   1.961   3.783 -1.4851  2.2128  0.5840
  129OSM   H16T13796   4.173   1.815   3.860 -0.5067 -0.0044 -0.1533
  129OSM   C17S13797   4.036   1.969   3.818  0.1465 -0.8061 -0.0120
  129OSM   H17S13798   3.945   1.907   3.828 -0.4502 -0.0170 -0.3884
  129OSM   H17T13799   4.013   2.038   3.734 -0.1727 -2.6448 -1.5025
  129OSM   C18S13800   4.055   2.051   3.943 -0.1142 -0.1801  1.0092
  129OSM   H18S13801   3.960   2.107   3.951  1.0461  1.8272  1.5023
  129OSM   H18T13802   4.141   2.121   3.943 -2.2706  2.6315  1.4007
  129OSM   H18U13803   4.049   1.977   4.026 -0.5950 -3.1534 -1.5046
  129OSM    C1F13804   4.201   1.596   2.283  0.0390 -0.3306 -0.2454
  129OSM     OF13805   4.293   1.519   2.309  0.1511  0.6737 -0.0534
  129OSM    C2F13806   4.065   1.539   2.275  0.3227 -0.3976 -0.3506
  129OSM    H2F13807   4.043   1.504   2.171  1.8084 -2.2953 -0.0875
  129OSM    H2G13808   3.998   1.627   2.283  1.2464  0.3076 -0.2135
  129OSM    C3F13809   4.030   1.426   2.371 -1.0844 -0.9035  0.2287
  129OSM    H3F13810   4.109   1.349   2.354 -0.8084 -1.0588  1.9970
  129OSM    H3G13811   3.938   1.382   2.326 -1.8043 -0.5242  1.3036
  129OSM    C4F13812   4.013   1.470   2.514 -0.5382  0.5095  0.5252
  129OSM    H4F13813   3.956   1.565   2.531  2.3774  2.3656  0.6314
  129OSM    H4G13814   4.117   1.478   2.552 -0.8766  1.8274  1.2483
  129OSM    C5F13815   3.932   1.362   2.582 -0.1174 -1.0296  0.9753
  129OSM    H5F13816   3.981   1.263   2.593 -0.4560 -1.0112  2.8916
  129OSM    H5G13817   3.840   1.335   2.526  0.7430  2.4772 -2.5954
  129OSM    C6F13818   3.894   1.399   2.730 -0.0463  0.2307 -0.1496
  129OSM    H6F13819   3.817   1.479   2.740 -0.1737 -0.0939  1.7778
  129OSM    H6G13820   3.987   1.431   2.781  0.7255 -0.8693 -0.8296
  129OSM    C7F13821   3.849   1.267   2.796 -0.0332  0.1070 -0.2792
  129OSM    H7F13822   3.927   1.189   2.780  0.9374  0.9455  0.2420
  129OSM    H7G13823   3.756   1.241   2.742 -1.7234 -0.2945  2.6255
  129OSM    C8F13824   3.820   1.290   2.949  0.1912  0.1214 -0.5113
  129OSM    H8F13825   3.753   1.206   2.979 -0.8291  0.8345 -0.7736
  129OSM    H8G13826   3.752   1.376   2.963 -2.2681 -1.8147  0.2715
  129OSM    C9F13827   3.940   1.295   3.036 -0.5994 -0.1856 -0.3221
  129OSM    H9F13828   4.019   1.357   2.993  0.0926 -1.9960 -1.7908
  129OSM   C10F13829   3.975   1.198   3.122 -0.5413 -0.0727 -0.0689
  129OSM   H10F13830   4.066   1.218   3.182 -1.1972  1.2260  0.5276
  129OSM   C11F13831   3.888   1.090   3.176  0.2624  0.4743  0.0473
  129OSM   H11F13832   3.945   0.994   3.170  1.0675  0.9817 -0.5762
  129OSM   H11G13833   3.800   1.059   3.117  1.4107 -0.5120 -1.2372
  129OSM   C12F13834   3.841   1.128   3.320 -0.5110  0.1636  0.9427
  129OSM   H12F13835   3.806   1.233   3.312  2.9670  1.4450  0.5110
  129OSM   H12G13836   3.931   1.126   3.386  0.1852  2.2763  0.1518
  129OSM   C13F13837   3.732   1.036   3.361  0.0538  0.5971  0.1908
  129OSM   H13F13838   3.762   0.930   3.347  0.3283  0.7424 -0.3587
  129OSM   H13G13839   3.642   1.061   3.302  0.6460  2.2073 -0.0983
  129OSM   C14F13840   3.692   1.049   3.511  0.4629 -0.9400 -0.3699
  129OSM   H14F13841   3.687   1.155   3.545 -0.4305 -1.1688  0.2273
  129OSM   H14G13842   3.772   0.992   3.564 -0.0846 -0.2496  1.2496
  129OSM   C15F13843   3.558   0.983   3.541 -0.1925 -0.4422 -0.6074
  129OSM   H15F13844   3.551   0.884   3.490 -0.3795 -0.5181 -0.4305
  129OSM   H15G13845   3.483   1.049   3.492  1.8753 -0.1402 -3.7271
  129OSM   C16F13846   3.546   0.943   3.688  0.2019 -0.1739 -0.3530
  129OSM   H16F13847   3.603   0.854   3.721 -0.6152 -1.0937 -1.3067
  129OSM   H16G13848   3.444   0.899   3.696  0.5228 -0.6002  2.0483
  129OSM   C17F13849   3.574   1.053   3.789 -0.4314  0.2175  0.1378
  129OSM   H17F13850   3.525   1.149   3.763 -0.3828 -0.4283 -2.6690
  129OSM   H17G13851   3.683   1.071   3.774 -0.1152 -0.6531  1.2191
  129OSM   C18F13852   3.559   0.999   3.936 -0.6588  0.1713  0.2270
  129OSM   H18F13853   3.620   0.908   3.951 -0.5848  0.2181  0.2120
  129OSM   H18G13854   3.450   0.983   3.953 -1.3659  1.3473 -2.6324
  129OSM   H18H13855   3.601   1.075   4.006 -1.7090  3.2428 -2.2155
  130OSM      N13856   4.077   5.919   1.728  0.0531  0.3894 -0.2620
  130OSM    C1513857   3.951   5.924   1.647  0.2526  0.2246 -0.0676
  130OSM   H15A13858   3.914   6.024   1.630 -0.6949 -0.1851 -0.4997
  130OSM   H15B13859   3.870   5.864   1.687 -0.2128  0.9248  0.0481
  130OSM   H15C13860   3.970   5.895   1.545 -0.3798  1.0628 -0.4399
  130OSM    C1413861   4.022   5.952   1.864  0.5887  0.0477 -0.1010
  130OSM   H14A13862   3.962   6.042   1.861 -3.1591 -2.2122  0.2444
  130OSM   H14B13863   4.102   5.971   1.933 -0.1967 -0.4027  0.9642
  130OSM   H14C13864   3.955   5.871   1.891  0.3353 -0.0608 -1.0159
  130OSM    C1313865   4.129   5.779   1.727  0.2904 -0.2436  0.6214
  130OSM   H13A13866   4.050   5.707   1.710  1.3989 -1.2133 -0.5754
  130OSM   H13B13867   4.182   5.748   1.816  0.1451  1.3939  1.3230
  130OSM   H13C13868   4.193   5.756   1.644  2.8272  2.3093  1.7066
  130OSM    C1213869   4.180   6.017   1.682 -0.9399 -0.5506 -0.0657
  130OSM   H12A13870   4.214   5.981   1.586 -0.4029 -0.2809  0.0212
  130OSM   H12B13871   4.268   6.017   1.743  2.3088  0.2272 -4.2595
  130OSM    C1113872   4.140   6.168   1.678  0.5447  0.0683 -0.3282
  130OSM   H11A13873   4.040   6.177   1.629 -0.0519 -2.1453  0.3288
  130OSM   H11B13874   4.213   6.232   1.626  1.2355  0.4411  1.0454
  130OSM      P13875   4.256   6.261   1.900  0.4255 -0.0900 -0.0684
  130OSM    O1313876   4.351   6.151   1.912  0.0129  0.0582 -0.4226
  130OSM    O1413877   4.313   6.385   1.847 -0.4356  0.2637 -0.0182
  130OSM    O1113878   4.189   6.295   2.044  0.2843  0.6029  0.3392
  130OSM    O1213879   4.124   6.220   1.813 -0.0636 -0.4323  0.0067
  130OSM    C1S13880   4.068   6.232   2.071  0.2792 -0.3493  0.5069
  130OSM    H1S13881   4.078   6.123   2.086 -1.1340 -0.5303  0.2555
  130OSM    H1T13882   3.991   6.226   1.991 -0.9726 -0.5063  1.6876
  130OSM     NF13883   3.886   6.209   2.244  0.0341 -0.4255 -0.0343
  130OSM    HNF13884   3.792   6.242   2.248  0.3022  0.5131 -1.0612
  130OSM    C2S13885   3.999   6.290   2.199 -0.3013  0.6810  0.3563
  130OSM    H2S13886   4.080   6.286   2.275 -1.6394  2.1584  1.9373
  130OSM    C3S13887   3.965   6.435   2.191 -0.0225  0.0962 -0.4194
  130OSM    H3S13888   3.871   6.440   2.132 -1.2722 -0.4166  1.4456
  130OSM     O313889   4.056   6.527   2.136 -0.0875 -0.2471  0.7753
  130OSM    HO313890   4.115   6.466   2.091 -1.7724 -1.2865 -0.1331
  130OSM    C4S13891   3.930   6.483   2.336 -0.2814  0.4500  0.9161
  130OSM    H4S13892   4.012   6.470   2.409  0.3809  3.9696  0.9586
  130OSM    C5S13893   3.806   6.514   2.377  0.0835  0.1797 -0.3910
  130OSM    H5S13894   3.727   6.520   2.300  0.8416 -0.7428 -1.2643
  130OSM    C6S13895   3.762   6.548   2.516 -0.1578  0.6554  0.2606
  130OSM    H6S13896   3.659   6.587   2.521 -0.5472 -0.4693  1.5435
  130OSM    H6T13897   3.824   6.633   2.553 -0.1003 -0.2063  2.2267
  130OSM    C7S13898   3.778   6.439   2.622  0.1392 -0.5989 -0.8046
  130OSM    H7S13899   3.882   6.403   2.632  0.3537  0.5587  1.9287
  130OSM    H7T13900   3.717   6.360   2.572  1.5007 -0.9311 -1.9998
  130OSM    C8S13901   3.705   6.464   2.752 -0.4086  0.1543 -0.8884
  130OSM    H8S13902   3.742   6.383   2.819 -1.9710 -0.7909 -1.1138
  130OSM    H8T13903   3.596   6.446   2.740 -1.0050  2.3922  0.5008
  130OSM    C9S13904   3.723   6.602   2.819 -0.1347 -0.0249 -0.2868
  130OSM    H9S13905   3.718   6.681   2.742  1.2837 -1.3064 -1.7728
  130OSM    H9T13906   3.828   6.600   2.855  0.6255  0.0258 -2.3910
  130OSM   C10S13907   3.619   6.628   2.938  0.1785  0.2180 -0.2444
  130OSM   H10S13908   3.515   6.632   2.897 -0.7065  0.0457  1.8542
  130OSM   H10T13909   3.640   6.733   2.970 -0.6313  0.1073  0.6965
  130OSM   C11S13910   3.614   6.513   3.056  0.2551 -0.1401 -0.2611
  130OSM   H11S13911   3.717   6.505   3.096 -0.1726 -2.3906  0.5051
  130OSM   H11T13912   3.591   6.413   3.015  1.8804 -0.2944 -0.8769
  130OSM   C12S13913   3.539   6.553   3.182  0.7072  0.3071  0.4794
  130OSM   H12S13914   3.432   6.567   3.157  1.1953  2.1539 -0.7318
  130OSM   H12T13915   3.579   6.649   3.220 -0.0850  1.3938 -1.3155
  130OSM   C13S13916   3.550   6.444   3.285  0.2123  0.2582 -0.1046
  130OSM   H13S13917   3.641   6.451   3.348 -0.4435  2.7232  0.6796
  130OSM   H13T13918   3.540   6.343   3.240  1.9826 -0.5264  1.1195
  130OSM   C14S13919   3.435   6.464   3.385  0.2383  0.3129 -1.1314
  130OSM   H14S13920   3.348   6.403   3.352  0.9299 -1.8814  0.8085
  130OSM   H14T13921   3.410   6.571   3.400 -2.0547 -0.3515  0.3250
  130OSM   C15S13922   3.466   6.409   3.525  0.1129 -0.6562 -0.2536
  130OSM   H15S13923   3.544   6.469   3.576 -0.3624  2.2610 -2.7020
  130OSM   H15T13924   3.495   6.301   3.527 -0.5091 -0.8160  1.3105
  130OSM   C16S13925   3.344   6.406   3.613 -0.9100 -0.4134  0.6362
  130OSM   H16S13926   3.264   6.346   3.564 -1.6456  0.9652  0.0820
  130OSM   H16T13927   3.318   6.513   3.625  1.5890  0.2997  0.0603
  130OSM   C17S13928   3.364   6.342   3.756  0.2407 -0.0736  0.4665
  130OSM   H17S13929   3.412   6.244   3.736 -0.6055 -0.3374 -0.3855
  130OSM   H17T13930   3.263   6.324   3.801  0.5209  1.2757  1.7034
  130OSM   C18S13931   3.445   6.436   3.847 -0.2164 -0.3493 -0.2750
  130OSM   H18S13932   3.542   6.468   3.804 -0.9530  1.1418 -0.8892
  130OSM   H18T13933   3.464   6.386   3.944 -2.6336  0.3723  0.6537
  130OSM   H18U13934   3.384   6.527   3.867  0.6123  0.0079  0.6585
  130OSM    C1F13935   3.893   6.089   2.291 -0.3403  0.5069  0.5105
  130OSM     OF13936   3.998   6.030   2.310 -0.1363  0.0184  0.7679
  130OSM    C2F13937   3.762   6.021   2.319 -0.3852  0.7306 -0.5427
  130OSM    H2F13938   3.759   5.930   2.255 -2.3349  0.0787  0.3927
  130OSM    H2G13939   3.679   6.093   2.309 -1.0989  0.2584  1.5223
  130OSM    C3F13940   3.757   5.964   2.465 -0.2884  1.0986 -0.1772
  130OSM    H3F13941   3.828   5.881   2.480 -0.7107  1.1765  2.8059
  130OSM    H3G13942   3.655   5.921   2.475  0.4389 -1.0816 -1.4982
  130OSM    C4F13943   3.790   6.066   2.567  0.2796 -0.6937 -0.6144
  130OSM    H4F13944   3.708   6.140   2.555 -0.1327 -0.9569  0.5201
  130OSM    H4G13945   3.883   6.126   2.556  0.2063 -0.4291  0.1375
  130OSM    C5F13946   3.791   6.012   2.715  0.2409  0.5316 -0.0204
  130OSM    H5F13947   3.893   5.971   2.729  0.4935  1.2897  0.4098
  130OSM    H5G13948   3.708   5.940   2.730  0.0232 -0.1385 -3.6521
  130OSM    C6F13949   3.762   6.115   2.823  1.0173 -0.1620 -0.3590
  130OSM    H6F13950   3.672   6.176   2.802  0.3372 -0.6891  0.9584
  130OSM    H6G13951   3.842   6.191   2.814 -0.4020  1.5855  1.2148
  130OSM    C7F13952   3.778   6.051   2.965  0.0863 -0.1688 -0.2793
  130OSM    H7F13953   3.868   5.986   2.957 -0.9178 -1.8125  1.1331
  130OSM    H7G13954   3.696   5.982   2.993 -0.0157 -0.3325 -0.9721
  130OSM    C8F13955   3.784   6.152   3.079  0.0258  0.8044 -0.3567
  130OSM    H8F13956   3.691   6.211   3.069 -0.0795  0.4158 -1.9362
  130OSM    H8G13957   3.866   6.219   3.043  0.5992  0.2613 -0.0774
  130OSM    C9F13958   3.804   6.099   3.218 -0.6708 -0.6109 -0.8490
  130OSM    H9F13959   3.783   5.993   3.239  1.5864 -0.7591  1.0140
  130OSM   C10F13960   3.863   6.162   3.321  0.2402 -0.3470 -0.8639
  130OSM   H10F13961   3.878   6.129   3.425 -0.8097  2.4360  0.2634
  130OSM   C11F13962   3.918   6.296   3.304 -0.0348 -0.0047 -0.6123
  130OSM   H11F13963   3.841   6.370   3.275  0.0633  0.0288 -0.7897
  130OSM   H11G13964   3.991   6.293   3.221  0.0872  0.1088 -0.5102
  130OSM   C12F13965   3.992   6.348   3.433  0.5157 -0.9558  0.0955
  130OSM   H12F13966   4.062   6.424   3.392 -1.0674 -0.7338 -2.3833
  130OSM   H12G13967   4.045   6.252   3.453 -0.0445 -1.9629 -2.7680
  130OSM   C13F13968   3.904   6.403   3.545  0.0802  0.1191  0.1599
  130OSM   H13F13969   3.844   6.313   3.571  0.0855 -0.3876 -1.4540
  130OSM   H13G13970   3.841   6.486   3.506 -0.5412 -0.9914 -1.2957
  130OSM   C14F13971   3.983   6.445   3.667 -0.5998 -0.2427 -0.8830
  130OSM   H14F13972   4.051   6.518   3.617  1.7453 -0.7188  1.3930
  130OSM   H14G13973   4.041   6.357   3.701 -0.4991 -0.4315 -1.5205
  130OSM   C15F13974   3.905   6.534   3.782 -0.2189  0.3697 -0.7950
  130OSM   H15F13975   3.834   6.479   3.847  1.6681 -3.1382 -1.4275
  130OSM   H15G13976   3.848   6.611   3.724 -2.4451 -1.0455 -0.6082
  130OSM   C16F13977   4.011   6.609   3.862  0.0330  0.1293  0.2305
  130OSM   H16F13978   4.037   6.684   3.784 -0.6713 -0.3822 -0.5075
  130OSM   H16G13979   4.100   6.549   3.891  1.1748  2.0506  0.9208
  130OSM   C17F13980   3.961   6.687   3.979  0.1508  0.4529 -0.2561
  130OSM   H17F13981   3.933   6.604   4.047  2.9567  0.4055  0.9908
  130OSM   H17G13982   3.868   6.741   3.951  0.0515 -0.6749 -2.2686
  130OSM   C18F13983   4.072   6.781   4.032 -0.1423  0.2612 -0.3325
  130OSM   H18F13984   4.045   6.838   4.123  0.3333 -0.1570  0.0796
  130OSM   H18G13985   4.101   6.853   3.952  0.8032 -0.2748 -0.5010
  130OSM   H18H13986   4.156   6.711   4.054  0.2330  0.5590 -0.7905
  131OSM      N13987   1.476   2.465   1.590  0.2658  0.8514 -0.0104
  131OSM    C1513988   1.509   2.316   1.577 -0.4028 -0.2235 -0.1231
  131OSM   H15A13989   1.427   2.252   1.609  0.6224 -0.4992  2.1768
  131OSM   H15B13990   1.593   2.297   1.642 -2.1907  1.1678  2.7859
  131OSM   H15C13991   1.536   2.290   1.476  0.1964 -1.2288  0.2802
  131OSM    C1413992   1.579   2.543   1.512 -0.4448  0.2165 -0.7090
  131OSM   H14A13993   1.598   2.495   1.416 -3.6728 -1.4658 -0.6535
  131OSM   H14B13994   1.669   2.540   1.572 -0.8765 -0.2160 -0.0775
  131OSM   H14C13995   1.560   2.646   1.486  0.2607  0.3914 -0.5489
  131OSM    C1313996   1.337   2.486   1.534  0.0638 -0.2059  0.2292
  131OSM   H13A13997   1.340   2.489   1.426  1.2462  0.6768  0.2672
  131OSM   H13B13998   1.289   2.580   1.558 -2.1308 -0.4204 -2.8101
  131OSM   H13C13999   1.272   2.412   1.577  1.6856 -1.2110  1.0353
  131OSM    C1214000   1.473   2.510   1.739 -0.2883 -0.0537 -0.3962
  131OSM   H12A14001   1.388   2.462   1.785 -0.1238  0.5487  0.5634
  131OSM   H12B14002   1.455   2.615   1.756  0.7641 -0.0755  1.0322
  131OSM    C1114003   1.592   2.462   1.821  0.7371  0.3534  0.7576
  131OSM   H11A14004   1.597   2.352   1.815  2.0998  0.2139  3.0290
  131OSM   H11B14005   1.583   2.476   1.931 -1.3575  0.1881  0.6515
  131OSM      P14006   1.761   2.663   1.811  0.2432  0.0130 -0.5835
  131OSM    O1314007   1.903   2.668   1.791 -0.5370  0.4104  0.6654
  131OSM    O1414008   1.686   2.760   1.737  0.2910  0.3010  0.0532
  131OSM    O1114009   1.736   2.674   1.970  0.6546 -0.1236  0.7975
  131OSM    O1214010   1.718   2.516   1.781 -0.3947 -0.1785  0.1613
  131OSM    C1S14011   1.645   2.773   2.021  0.1577  0.5134  0.8607
  131OSM    H1S14012   1.537   2.748   2.007  0.0009  1.9250 -0.7921
  131OSM    H1T14013   1.668   2.869   1.970 -1.4454 -0.6589 -2.3685
  131OSM     NF14014   1.600   2.911   2.232 -0.5568 -0.2686  0.6564
  131OSM    HNF14015   1.644   2.999   2.247  0.2879 -0.3644 -1.0522
  131OSM    C2S14016   1.693   2.810   2.171  0.1637  0.0119 -0.2179
  131OSM    H2S14017   1.688   2.723   2.240  2.1830 -0.3868 -0.5110
  131OSM    C3S14018   1.850   2.849   2.177  0.5956 -0.1948 -0.7141
  131OSM    H3S14019   1.861   2.952   2.137 -0.6444  0.9707  1.7066
  131OSM     O314020   1.939   2.763   2.108  1.0853 -0.5171 -0.1820
  131OSM    HO314021   1.880   2.723   2.044 -1.5011  1.6873  0.6164
  131OSM    C4S14022   1.897   2.869   2.319 -0.1344 -0.0548 -0.0714
  131OSM    H4S14023   1.881   2.976   2.339  1.3118 -0.0799  1.5019
  131OSM    C5S14024   1.939   2.791   2.423  0.4347 -0.5235 -0.0480
  131OSM    H5S14025   1.927   2.685   2.396 -0.3153 -0.3004 -0.6241
  131OSM    C6S14026   1.983   2.830   2.565  0.3294 -0.4747  0.1531
  131OSM    H6S14027   2.072   2.773   2.597  1.1929  0.1981 -0.9814
  131OSM    H6T14028   1.899   2.798   2.630  1.9330  1.4669  3.4424
  131OSM    C7S14029   2.020   2.981   2.595 -0.2835 -0.3834  0.2117
  131OSM    H7S14030   1.940   3.057   2.591  0.0853 -0.0492 -1.1140
  131OSM    H7T14031   2.101   3.005   2.523 -0.8894  0.0498 -0.3351
  131OSM    C8S14032   2.085   2.988   2.731  0.8744  0.2724 -0.4950
  131OSM    H8S14033   2.172   2.920   2.744  0.0314 -0.4739  1.8515
  131OSM    H8T14034   2.007   2.955   2.803  0.5985  1.9588  0.0159
  131OSM    C9S14035   2.113   3.129   2.784 -0.9553  0.5282  0.0789
  131OSM    H9S14036   2.009   3.165   2.802 -1.5643 -0.3510 -1.4717
  131OSM    H9T14037   2.161   3.190   2.704  3.3790 -1.2791  1.0097
  131OSM   C10S14038   2.195   3.123   2.916 -0.2429  0.2201  0.9473
  131OSM   H10S14039   2.296   3.088   2.887 -0.6403  0.1474 -0.4588
  131OSM   H10T14040   2.155   3.044   2.983  0.8759 -0.3357  0.9762
  131OSM   C11S14041   2.187   3.254   2.994 -0.7182  0.0254  0.3116
  131OSM   H11S14042   2.179   3.342   2.926  1.4198 -0.0403 -0.0736
  131OSM   H11T14043   2.279   3.275   3.052 -0.2553 -2.6066  0.6377
  131OSM   C12S14044   2.066   3.247   3.095 -0.7875  0.2950 -0.4477
  131OSM   H12S14045   2.100   3.167   3.165  1.1277  0.7939 -0.7606
  131OSM   H12T14046   1.974   3.219   3.040  0.2450 -0.9144 -1.6115
  131OSM   C13S14047   2.046   3.384   3.162  0.2987  0.3147  0.1330
  131OSM   H13S14048   2.027   3.468   3.091  0.8593  0.2225 -0.1302
  131OSM   H13T14049   2.137   3.403   3.222  0.8594  0.5778 -0.7787
  131OSM   C14S14050   1.937   3.378   3.264 -0.1043  0.4652  0.1901
  131OSM   H14S14051   1.835   3.363   3.222  0.5742  0.3975 -1.4936
  131OSM   H14T14052   1.934   3.482   3.303 -0.6716  1.8537 -3.1923
  131OSM   C15S14053   1.962   3.290   3.386  0.2782  0.6534 -0.0342
  131OSM   H15S14054   2.044   3.329   3.449  1.0492  1.6026 -1.5687
  131OSM   H15T14055   2.002   3.194   3.346  2.0606  1.2586  0.2111
  131OSM   C16S14056   1.834   3.278   3.468 -0.2564  0.2236  0.1986
  131OSM   H16S14057   1.753   3.246   3.399 -1.6262 -1.0110  2.2538
  131OSM   H16T14058   1.812   3.384   3.493 -1.0405 -0.3060  2.0024
  131OSM   C17S14059   1.834   3.179   3.591  0.2491  0.2907  0.7120
  131OSM   H17S14060   1.878   3.086   3.549  2.5410  0.7154  2.0292
  131OSM   H17T14061   1.726   3.155   3.606  0.0159  2.1797  2.4840
  131OSM   C18S14062   1.882   3.227   3.727  0.4987  0.5076  0.1179
  131OSM   H18S14063   1.986   3.267   3.720  0.8276 -0.3958 -0.2560
  131OSM   H18T14064   1.885   3.139   3.794  1.0998  0.2266 -0.2567
  131OSM   H18U14065   1.812   3.304   3.765 -0.6216 -0.0726 -0.7185
  131OSM    C1F14066   1.469   2.889   2.250  0.4261  0.9899 -0.4949
  131OSM     OF14067   1.412   2.787   2.202  0.3865  0.1242 -0.0677
  131OSM    C2F14068   1.389   2.996   2.320  0.3532 -0.5388  0.7590
  131OSM    H2F14069   1.293   3.003   2.265  1.0043  0.5369 -0.2705
  131OSM    H2G14070   1.444   3.091   2.310  0.5201 -0.8679 -2.2532
  131OSM    C3F14071   1.351   2.962   2.468  0.5711  0.1735 -0.3785
  131OSM    H3F14072   1.287   2.872   2.450 -1.4059  1.4207  0.0675
  131OSM    H3G14073   1.302   3.058   2.495 -0.6051 -0.4288 -0.3034
  131OSM    C4F14074   1.468   2.944   2.564 -0.5709  1.2826 -0.7918
  131OSM    H4F14075   1.496   3.050   2.582  0.0777  0.8332  1.0234
  131OSM    H4G14076   1.553   2.889   2.517 -0.5235  2.9184 -2.7736
  131OSM    C5F14077   1.426   2.876   2.690 -0.0967 -0.5597 -0.3625
  131OSM    H5F14078   1.396   2.770   2.678  0.5536 -0.7173 -0.6755
  131OSM    H5G14079   1.331   2.927   2.716 -0.1531 -0.8955  0.1036
  131OSM    C6F14080   1.508   2.898   2.813 -0.8625  0.0300  0.3190
  131OSM    H6F14081   1.464   2.853   2.904 -3.4182  0.2500 -0.7136
  131OSM    H6G14082   1.497   3.006   2.838  0.7592 -0.3138  2.9426
  131OSM    C7F14083   1.659   2.862   2.789  0.1400 -0.8888 -0.3817
  131OSM    H7F14084   1.695   2.910   2.695  1.1290 -1.0105 -0.0719
  131OSM    H7G14085   1.666   2.759   2.747 -0.1013 -1.6293  1.3341
  131OSM    C8F14086   1.748   2.885   2.914  0.6368  0.3581  0.4913
  131OSM    H8F14087   1.850   2.850   2.887  0.6995  0.0503  1.1113
  131OSM    H8G14088   1.710   2.827   3.001 -0.8445 -0.0427 -0.3763
  131OSM    C9F14089   1.757   3.029   2.963  0.3653 -0.1817  0.2729
  131OSM    H9F14090   1.779   3.100   2.882  1.4408  1.5110  1.9717
  131OSM   C10F14091   1.735   3.085   3.085  0.6498  0.2448  0.3690
  131OSM   H10F14092   1.751   3.193   3.097 -1.4959  0.3758  3.3311
  131OSM   C11F14093   1.696   3.013   3.211 -0.7678  0.0334  0.2016
  131OSM   H11F14094   1.717   3.076   3.300  0.9663  0.2193 -0.3047
  131OSM   H11G14095   1.755   2.921   3.228 -0.5070 -0.0173 -0.8837
  131OSM   C12F14096   1.545   2.993   3.231 -0.0234 -0.1516  0.1372
  131OSM   H12F14097   1.499   2.907   3.176 -1.2488  0.4433  0.1814
  131OSM   H12G14098   1.497   3.088   3.199  1.4368  0.3157 -0.7515
  131OSM   C13F14099   1.506   2.960   3.379 -0.5553  0.6104  0.1421
  131OSM   H13F14100   1.396   2.962   3.394 -0.6173  0.6846 -0.3059
  131OSM   H13G14101   1.544   3.035   3.452  1.7242 -0.9856  0.6945
  131OSM   C14F14102   1.569   2.823   3.426  0.3421 -0.3764  0.7138
  131OSM   H14F14103   1.671   2.805   3.385 -0.3613 -1.3939 -0.6298
  131OSM   H14G14104   1.510   2.737   3.391  1.0865 -0.4458 -0.4007
  131OSM   C15F14105   1.596   2.808   3.575  0.3762 -1.2317  1.0944
  131OSM   H15F14106   1.496   2.820   3.620  0.0602 -1.2770  0.4181
  131OSM   H15G14107   1.655   2.900   3.596  0.2940 -0.6224 -1.0454
  131OSM   C16F14108   1.650   2.672   3.612  1.0532  0.7593  0.2972
  131OSM   H16F14109   1.579   2.596   3.571  1.2071  0.4938  0.5156
  131OSM   H16G14110   1.646   2.671   3.723 -0.8177  0.6631  0.2567
  131OSM   C17F14111   1.794   2.635   3.563  0.2748 -0.5442 -0.2294
  131OSM   H17F14112   1.852   2.729   3.548  1.6859 -1.6747 -2.4307
  131OSM   H17G14113   1.785   2.593   3.460  0.5953  0.4529 -0.6815
  131OSM   C18F14114   1.872   2.540   3.644 -0.1301  0.6465 -0.4799
  131OSM   H18F14115   1.872   2.437   3.602  2.2759  0.1065  0.6425
  131OSM   H18G14116   1.839   2.526   3.749  0.6129 -0.2733 -0.3548
  131OSM   H18H14117   1.978   2.574   3.649  1.1750 -3.1046  0.4792
  132OSM      N14118   1.267   3.325   1.528  0.0820 -0.9183  0.1138
  132OSM    C1514119   1.288   3.192   1.456 -0.2690 -0.5663 -0.3099
  132OSM   H15A14120   1.395   3.181   1.464  0.1275  2.3451 -0.4505
  132OSM   H15B14121   1.273   3.200   1.349  0.0736 -0.8014 -0.3781
  132OSM   H15C14122   1.227   3.114   1.500 -1.9913  0.0445 -1.5004
  132OSM    C1414123   1.321   3.314   1.671  0.5794 -0.1985 -0.0769
  132OSM   H14A14124   1.256   3.258   1.737 -0.5790  0.2326 -0.8150
  132OSM   H14B14125   1.352   3.414   1.699  1.4501 -0.6815  0.7462
  132OSM   H14C14126   1.417   3.264   1.665  0.7408 -0.8599  4.3366
  132OSM    C1314127   1.334   3.439   1.459  0.4596  0.3132  0.5392
  132OSM   H13A14128   1.431   3.416   1.417 -1.3176 -3.4002 -2.1148
  132OSM   H13B14129   1.351   3.521   1.527  0.8496  1.2039 -0.6055
  132OSM   H13C14130   1.275   3.476   1.377 -0.1176 -2.4826 -0.4113
  132OSM    C1214131   1.117   3.339   1.526  0.2740  0.1284 -0.8268
  132OSM   H12A14132   1.089   3.366   1.425  2.5186  1.0643 -1.2673
  132OSM   H12B14133   1.098   3.432   1.579  0.6462 -0.7582  0.9331
  132OSM    C1114134   1.022   3.243   1.596 -0.1823 -0.1878 -0.0351
  132OSM   H11A14135   1.049   3.142   1.559  0.0796 -1.0047  2.2304
  132OSM   H11B14136   0.920   3.263   1.556  0.2362  0.8798 -0.6089
  132OSM      P14137   0.972   3.391   1.816 -0.1903  0.4106  0.0173
  132OSM    O1314138   1.065   3.407   1.926 -0.4395 -0.2089  1.5184
  132OSM    O1414139   0.959   3.499   1.720 -0.2668  0.5357 -0.1032
  132OSM    O1114140   0.829   3.360   1.874 -0.8721  0.4014 -0.0210
  132OSM    O1214141   1.022   3.263   1.738  0.3526 -0.1465  0.1414
  132OSM    C1S14142   0.816   3.240   1.958 -0.0797 -0.3746  0.4241
  132OSM    H1S14143   0.891   3.163   1.929 -0.7910 -0.6354 -0.7997
  132OSM    H1T14144   0.714   3.197   1.944 -1.2124  2.4361 -0.5753
  132OSM     NF14145   0.824   3.152   2.188 -0.1016  0.1040 -0.4150
  132OSM    HNF14146   0.743   3.136   2.244  0.8516 -1.9787  0.4673
  132OSM    C2S14147   0.825   3.269   2.109 -0.1850  0.1278 -0.2391
  132OSM    H2S14148   0.927   3.308   2.128 -0.5435  1.1373 -0.3387
  132OSM    C3S14149   0.719   3.381   2.147  0.0246 -0.2231  0.0238
  132OSM    H3S14150   0.618   3.334   2.141  0.3963 -1.0217 -0.1308
  132OSM     O314151   0.701   3.501   2.069  0.2336  0.7309 -0.7873
  132OSM    HO314152   0.750   3.470   1.992  1.1546 -0.6891  0.3147
  132OSM    C4S14153   0.735   3.416   2.295 -0.7645  0.8193  0.2961
  132OSM    H4S14154   0.702   3.334   2.359 -0.7499  1.1369  0.7140
  132OSM    C5S14155   0.799   3.525   2.346  0.9998 -0.2293 -0.1562
  132OSM    H5S14156   0.861   3.586   2.279  1.1744 -0.3931 -0.1459
  132OSM    C6S14157   0.816   3.557   2.492  0.3244 -0.7821 -0.0142
  132OSM    H6S14158   0.771   3.655   2.519  2.1428  0.3953 -0.9860
  132OSM    H6T14159   0.917   3.591   2.524 -0.2001  0.0836  0.7427
  132OSM    C7S14160   0.762   3.452   2.592 -0.1566 -0.2739 -0.1751
  132OSM    H7S14161   0.816   3.355   2.587 -0.7549 -0.5485 -1.9376
  132OSM    H7T14162   0.655   3.429   2.569 -0.5439  0.6329  0.6623
  132OSM    C8S14163   0.764   3.511   2.738 -0.7568  0.5394 -0.0297
  132OSM    H8S14164   0.717   3.441   2.810 -1.2028 -0.5162 -1.3077
  132OSM    H8T14165   0.695   3.597   2.728 -1.9593 -0.2546  1.0607
  132OSM    C9S14166   0.905   3.547   2.787  0.3109 -0.2930  0.0028
  132OSM    H9S14167   0.952   3.624   2.722 -0.8928  1.2129  0.8517
  132OSM    H9T14168   0.971   3.458   2.791  2.2602  1.0460 -0.4967
  132OSM   C10S14169   0.893   3.617   2.926 -0.0128  0.2179  0.0557
  132OSM   H10S14170   0.861   3.532   2.991 -0.2176  0.5727  0.4274
  132OSM   H10T14171   0.809   3.689   2.916 -0.8716 -0.5597  1.3389
  132OSM   C11S14172   1.024   3.674   2.993 -0.3755  0.2494 -0.1508
  132OSM   H11S14173   1.043   3.767   2.935  0.5827  0.0623 -0.1478
  132OSM   H11T14174   1.108   3.603   2.978  0.9251  1.8907 -0.9478
  132OSM   C12S14175   1.019   3.700   3.140 -0.2001  0.0520 -0.2646
  132OSM   H12S14176   0.931   3.765   3.157 -1.5184 -1.5448 -0.6842
  132OSM   H12T14177   1.106   3.761   3.172  0.4201  1.1449 -3.5471
  132OSM   C13S14178   1.008   3.579   3.235  0.2397 -0.5427 -0.5569
  132OSM   H13S14179   1.114   3.547   3.247  0.0488 -0.3965  2.1993
  132OSM   H13T14180   0.938   3.501   3.199  1.1718 -0.5994 -2.3738
  132OSM   C14S14181   0.964   3.624   3.381  0.8235  0.0091  0.7265
  132OSM   H14S14182   0.877   3.692   3.367 -1.0964 -2.2581  0.9517
  132OSM   H14T14183   1.052   3.672   3.429  1.6197  0.3903 -1.0215
  132OSM   C15S14184   0.931   3.491   3.463 -0.9220 -1.2373 -0.0031
  132OSM   H15S14185   1.013   3.428   3.423 -0.9058 -0.3377 -1.4641
  132OSM   H15T14186   0.836   3.447   3.426 -2.0292 -0.9110  2.2278
  132OSM   C16S14187   0.928   3.517   3.617  0.2926 -0.5690  0.2284
  132OSM   H16S14188   0.845   3.586   3.642  0.6413  0.1778 -0.6095
  132OSM   H16T14189   1.027   3.565   3.636  1.4499 -2.0150 -1.6644
  132OSM   C17S14190   0.946   3.385   3.696 -0.2079 -0.4774  0.4218
  132OSM   H17S14191   1.039   3.329   3.669  1.0818  1.6416  0.2190
  132OSM   H17T14192   0.857   3.323   3.675 -0.2390  0.1120 -1.3582
  132OSM   C18S14193   0.959   3.426   3.849 -0.3617  0.9034  0.2406
  132OSM   H18S14194   0.867   3.463   3.899 -0.7558  0.7752 -0.3725
  132OSM   H18T14195   1.036   3.507   3.848 -1.3001  1.8690 -2.1371
  132OSM   H18U14196   1.007   3.352   3.916  0.3095  0.4718 -0.6910
  132OSM    C1F14197   0.913   3.052   2.171 -0.4455 -0.3195 -0.1317
  132OSM     OF14198   1.012   3.066   2.101 -0.3412  0.2018  0.7984
  132OSM    C2F14199   0.883   2.928   2.248 -0.8037 -0.4328 -0.1615
  132OSM    H2F14200   0.918   2.840   2.190 -0.6298  0.0663 -0.8330
  132OSM    H2G14201   0.774   2.917   2.268 -0.8955 -0.5733 -0.7135
  132OSM    C3F14202   0.959   2.924   2.377 -0.6464 -0.2556 -0.8512
  132OSM    H3F14203   1.066   2.918   2.347 -0.7316 -1.5638 -0.9220
  132OSM    H3G14204   0.934   2.829   2.428 -1.4052  0.6800  0.5682
  132OSM    C4F14205   0.940   3.039   2.475 -0.5045  0.3311 -1.2319
  132OSM    H4F14206   0.832   3.065   2.467 -0.4000  1.4385  0.3835
  132OSM    H4G14207   0.998   3.130   2.447 -0.2129  0.8375  0.8178
  132OSM    C5F14208   0.976   2.995   2.621  0.8765 -0.6665  0.0162
  132OSM    H5F14209   1.066   2.929   2.617  1.0511 -0.3805 -2.0449
  132OSM    H5G14210   0.896   2.926   2.655  0.6074 -0.9007 -1.0577
  132OSM    C6F14211   0.985   3.103   2.729  0.0648  0.0971  0.3900
  132OSM    H6F14212   0.915   3.188   2.717 -0.7766 -0.8034 -1.7421
  132OSM    H6G14213   1.082   3.156   2.717 -0.6891  1.7365  1.2774
  132OSM    C7F14214   0.976   3.060   2.873  0.1403  0.3525 -0.0425
  132OSM    H7F14215   1.046   2.974   2.883 -1.1187 -0.5394  1.7792
  132OSM    H7G14216   0.873   3.019   2.884 -0.2882  0.8638 -1.9114
  132OSM    C8F14217   0.996   3.171   2.981 -0.1707 -0.1035  0.3620
  132OSM    H8F14218   0.912   3.179   3.053  1.7873 -0.2901  2.8070
  132OSM    H8G14219   0.993   3.263   2.919  2.3652 -0.1256  0.0751
  132OSM    C9F14220   1.131   3.168   3.046  0.0083  0.0753  0.1269
  132OSM    H9F14221   1.204   3.212   2.977 -0.8557  0.6539 -0.4348
  132OSM   C10F14222   1.161   3.151   3.171  0.0489  0.4903 -0.3593
  132OSM   H10F14223   1.268   3.150   3.195  0.0609  0.0252 -0.4135
  132OSM   C11F14224   1.065   3.117   3.283 -0.9237 -0.1643 -0.2939
  132OSM   H11F14225   0.983   3.054   3.242 -0.3201  0.8216 -3.2273
  132OSM   H11G14226   1.014   3.211   3.315  0.5239  0.7074 -0.4574
  132OSM   C12F14227   1.125   3.076   3.414  1.0291  1.1212  0.6637
  132OSM   H12F14228   1.168   2.974   3.418 -0.0823  0.1392 -4.7720
  132OSM   H12G14229   1.038   3.064   3.482  0.4503 -2.4015 -0.5081
  132OSM   C13F14230   1.226   3.172   3.474 -0.3670 -0.3453  0.1867
  132OSM   H13F14231   1.203   3.279   3.458 -1.0050 -0.5643 -0.3931
  132OSM   H13G14232   1.329   3.163   3.434 -0.0308 -0.3334  1.0206
  132OSM   C14F14233   1.246   3.145   3.623  0.0945  0.6066  0.2167
  132OSM   H14F14234   1.286   3.042   3.625  1.4725  1.0678 -1.0360
  132OSM   H14G14235   1.151   3.151   3.680 -0.9971 -3.1602 -0.9676
  132OSM   C15F14236   1.345   3.251   3.677 -0.5679  0.1916  0.4787
  132OSM   H15F14237   1.297   3.352   3.685  1.4103  1.5178 -2.4976
  132OSM   H15G14238   1.425   3.269   3.602 -0.0029 -0.8259  0.8244
  132OSM   C16F14239   1.400   3.205   3.814  0.0307  0.1008  0.1354
  132OSM   H16F14240   1.462   3.114   3.800 -1.3859 -0.8129 -0.4977
  132OSM   H16G14241   1.309   3.175   3.872  0.6147 -1.6828  0.1897
  132OSM   C17F14242   1.479   3.313   3.888 -0.0579 -0.2253  0.4066
  132OSM   H17F14243   1.411   3.400   3.899 -0.4718 -0.4866 -0.0527
  132OSM   H17G14244   1.570   3.348   3.834  1.2345 -2.2772  1.1246
  132OSM   C18F14245   1.523   3.261   4.026  0.0527 -0.1440 -0.8296
  132OSM   H18F14246   1.586   3.336   4.079 -0.0751 -2.1907  2.5360
  132OSM   H18G14247   1.584   3.168   4.022 -0.2516 -0.3196 -1.4296
  132OSM   H18H14248   1.435   3.242   4.091  0.6892  0.5026  0.2511
  133OSM      N14249   6.361   2.648   1.531  0.2134  0.4430  0.1158
  133OSM    C1514250   6.236   2.582   1.481  0.5535 -0.3470 -0.8807
  133OSM   H15A14251   6.156   2.650   1.509 -0.8010 -2.2155  0.0241
  133OSM   H15B14252   6.213   2.494   1.539 -0.8204  0.2254 -0.4924
  133OSM   H15C14253   6.219   2.568   1.376  0.6724 -0.3579 -0.8982
  133OSM    C1414254   6.468   2.541   1.552 -0.4155 -0.3345  0.3530
  133OSM   H14A14255   6.424   2.473   1.623  0.8914 -3.1587 -1.3862
  133OSM   H14B14256   6.556   2.585   1.597  0.3620 -1.5400  0.0567
  133OSM   H14C14257   6.485   2.486   1.461  4.0319 -0.1554  0.8192
  133OSM    C1314258   6.406   2.738   1.423 -0.5781  0.3153  1.1570
  133OSM   H13A14259   6.425   2.677   1.336 -0.8284 -0.0482  1.3539
  133OSM   H13B14260   6.508   2.764   1.445 -0.6539  0.2454  1.6112
  133OSM   H13C14261   6.344   2.825   1.409 -2.1873 -0.8884  0.3985
  133OSM    C1214262   6.333   2.722   1.662 -0.3092  0.2322  0.2224
  133OSM   H12A14263   6.302   2.649   1.735  0.3092  0.2716  0.5293
  133OSM   H12B14264   6.245   2.785   1.657 -0.8172 -0.3740  1.2074
  133OSM    C1114265   6.447   2.802   1.731  0.0526  0.1374  0.1791
  133OSM   H11A14266   6.413   2.864   1.817 -0.6030 -0.0625  0.0709
  133OSM   H11B14267   6.470   2.871   1.647 -0.3644 -0.6740 -0.6203
  133OSM      P14268   6.571   2.643   1.898 -0.1797  0.1982  0.2691
  133OSM    O1314269   6.586   2.500   1.874  0.0270 -0.5342 -0.1161
  133OSM    O1414270   6.676   2.707   1.988 -0.0210  0.0007 -0.1373
  133OSM    O1114271   6.438   2.672   1.973  0.0911  0.5891  0.1566
  133OSM    O1214272   6.565   2.728   1.763 -0.6471 -0.2914  0.3612
  133OSM    C1S14273   6.402   2.620   2.102 -1.3339  0.5290  0.5757
  133OSM    H1S14274   6.489   2.587   2.162 -2.2060 -1.9071  0.6193
  133OSM    H1T14275   6.343   2.528   2.081 -0.1178  0.3772 -2.8194
  133OSM     NF14276   6.307   2.669   2.315 -0.0106 -0.7624 -0.1959
  133OSM    HNF14277   6.222   2.629   2.348  0.3524 -0.5735  1.0151
  133OSM    C2S14278   6.321   2.722   2.185 -0.5342 -0.0885 -0.5089
  133OSM    H2S14279   6.377   2.817   2.198  0.1574 -0.7692  1.9355
  133OSM    C3S14280   6.191   2.761   2.110 -0.0495 -0.4810  0.2671
  133OSM    H3S14281   6.141   2.664   2.089 -0.3811 -0.3736  0.5452
  133OSM     O314282   6.211   2.820   1.982  0.3574 -0.3843  0.0013
  133OSM    HO314283   6.305   2.798   1.980  0.6004  0.6416 -0.2785
  133OSM    C4S14284   6.101   2.850   2.196 -0.1969 -1.2673 -0.5803
  133OSM    H4S14285   6.011   2.801   2.235 -1.9434  1.7922 -0.4265
  133OSM    C5S14286   6.116   2.983   2.226  0.1327  0.4076  0.1596
  133OSM    H5S14287   6.208   3.039   2.202  0.6370 -0.2065  0.6134
  133OSM    C6S14288   6.031   3.062   2.322  0.3366 -0.1864 -0.0974
  133OSM    H6S14289   5.942   3.005   2.355 -0.0346  1.4804  2.0038
  133OSM    H6T14290   5.993   3.153   2.270  0.6131 -0.0259 -0.0232
  133OSM    C7S14291   6.116   3.109   2.437 -0.0917 -0.3393  0.1949
  133OSM    H7S14292   6.185   3.184   2.392  1.4238 -0.8993  1.5178
  133OSM    H7T14293   6.168   3.027   2.489 -2.9588 -0.8759  2.4854
  133OSM    C8S14294   6.023   3.184   2.535 -0.2961  0.3179  0.0779
  133OSM    H8S14295   5.941   3.111   2.547  1.8858 -2.6714 -1.7389
  133OSM    H8T14296   5.984   3.272   2.479 -1.2107  0.2548  0.6023
  133OSM    C9S14297   6.066   3.199   2.683 -0.3018 -0.1661 -0.6466
  133OSM    H9S14298   6.152   3.270   2.677 -0.2490 -0.2734 -1.2549
  133OSM    H9T14299   6.117   3.110   2.724 -2.0980 -0.9527 -0.0073
  133OSM   C10S14300   5.969   3.246   2.789  0.0297 -0.2238  0.7413
  133OSM   H10S14301   5.880   3.179   2.790  1.6014 -2.4114  1.8071
  133OSM   H10T14302   5.951   3.350   2.756  2.5072  0.0921  0.2533
  133OSM   C11S14303   6.013   3.242   2.931 -0.0677 -0.3832  0.2230
  133OSM   H11S14304   6.096   3.314   2.947  0.0115 -0.4935  0.3089
  133OSM   H11T14305   6.053   3.140   2.951  0.7931 -0.8174 -3.0845
  133OSM   C12S14306   5.891   3.270   3.022 -0.0840 -0.1533 -0.1165
  133OSM   H12S14307   5.844   3.169   3.030 -0.6054  0.0100 -1.0912
  133OSM   H12T14308   5.819   3.345   2.984  1.1809  0.6053 -1.0886
  133OSM   C13S14309   5.927   3.325   3.152 -0.3600 -0.0226  0.1271
  133OSM   H13S14310   5.933   3.434   3.133  2.1017 -0.0155  0.6448
  133OSM   H13T14311   6.024   3.287   3.193  0.3922  1.2920 -0.3877
  133OSM   C14S14312   5.815   3.306   3.253 -0.4465 -0.5511 -0.1727
  133OSM   H14S14313   5.780   3.201   3.264 -1.3123 -0.3113 -0.6050
  133OSM   H14T14314   5.724   3.361   3.220 -2.2603 -2.5099  1.2983
  133OSM   C15S14315   5.844   3.361   3.395 -1.0040 -0.7484 -0.4205
  133OSM   H15S14316   5.858   3.470   3.385 -1.6167 -0.7217 -1.0940
  133OSM   H15T14317   5.935   3.308   3.431 -0.5749  0.2589 -0.0026
  133OSM   C16S14318   5.732   3.340   3.497  0.0495 -0.1723 -0.4329
  133OSM   H16S14319   5.688   3.238   3.492  1.1931 -0.6286 -2.0070
  133OSM   H16T14320   5.645   3.405   3.473 -1.9281 -2.5194 -0.0207
  133OSM   C17S14321   5.783   3.387   3.636 -0.3819  0.5724 -0.2178
  133OSM   H17S14322   5.864   3.460   3.615 -1.5045  2.1188  0.6430
  133OSM   H17T14323   5.821   3.301   3.695 -1.6523  0.2376  0.1652
  133OSM   C18S14324   5.673   3.451   3.716 -0.0261  0.0941  0.0751
  133OSM   H18S14325   5.620   3.529   3.657 -0.1243 -0.1117 -0.1102
  133OSM   H18T14326   5.709   3.504   3.806 -3.1620 -1.0387  2.1450
  133OSM   H18U14327   5.594   3.383   3.755  0.0056  0.5436  0.9321
  133OSM    C1F14328   6.408   2.671   2.399 -0.5852  0.5061 -0.2837
  133OSM     OF14329   6.504   2.743   2.381 -0.8341  0.4780  0.4856
  133OSM    C2F14330   6.396   2.584   2.522 -0.1927 -0.4123 -0.0966
  133OSM    H2F14331   6.467   2.500   2.506  1.6837  1.5834 -3.4343
  133OSM    H2G14332   6.292   2.544   2.530 -0.4460 -0.6512 -3.2793
  133OSM    C3F14333   6.425   2.655   2.656  0.1334 -0.0829 -0.6785
  133OSM    H3F14334   6.375   2.752   2.676 -0.0198 -0.2525 -0.2351
  133OSM    H3G14335   6.534   2.673   2.651  0.0857  0.3917 -0.1297
  133OSM    C4F14336   6.393   2.557   2.776 -0.2078 -0.4419  0.6836
  133OSM    H4F14337   6.463   2.473   2.759  0.7412  0.7150 -1.4978
  133OSM    H4G14338   6.288   2.525   2.762 -0.1430  0.0923 -1.3752
  133OSM    C5F14339   6.412   2.618   2.911 -0.2371 -0.1518 -0.1656
  133OSM    H5F14340   6.337   2.695   2.937 -0.1619  0.1587 -0.8379
  133OSM    H5G14341   6.509   2.673   2.906  0.9662 -2.1154  0.3289
  133OSM    C6F14342   6.412   2.520   3.033 -0.5282  0.6350  0.9518
  133OSM    H6F14343   6.470   2.431   3.000 -1.8921 -0.6045  1.7693
  133OSM    H6G14344   6.306   2.488   3.032 -0.5123  0.4284 -1.8267
  133OSM    C7F14345   6.451   2.600   3.159 -0.3088 -0.2054 -0.0597
  133OSM    H7F14346   6.391   2.693   3.172 -0.3673 -0.3436  0.6918
  133OSM    H7G14347   6.553   2.640   3.144 -0.3378 -0.5153 -1.1313
  133OSM    C8F14348   6.445   2.512   3.291  0.4796 -0.2389 -0.4677
  133OSM    H8F14349   6.507   2.420   3.281 -2.6197 -2.7052  1.3263
  133OSM    H8G14350   6.340   2.479   3.300  0.0763  1.0223 -0.4712
  133OSM    C9F14351   6.509   2.587   3.398 -0.5157  0.1512 -0.7634
  133OSM    H9F14352   6.605   2.632   3.368 -0.9858  0.0182 -2.5796
  133OSM   C10F14353   6.478   2.576   3.527 -0.6252  0.0568 -0.8893
  133OSM   H10F14354   6.532   2.623   3.610  0.1538 -2.3004  0.0298
  133OSM   C11F14355   6.361   2.500   3.583 -0.0510  0.0213 -0.4641
  133OSM   H11F14356   6.393   2.480   3.688 -1.1705  0.3117 -0.0606
  133OSM   H11G14357   6.355   2.403   3.529 -0.1555  0.9856 -2.2508
  133OSM   C12F14358   6.236   2.586   3.574 -0.2278  0.3631  0.4206
  133OSM   H12F14359   6.217   2.617   3.469  3.3836 -0.6019 -0.6647
  133OSM   H12G14360   6.254   2.681   3.629  0.2060  0.1825  0.5993
  133OSM   C13F14361   6.111   2.510   3.625  0.4909  0.3079  0.3675
  133OSM   H13F14362   6.118   2.408   3.580 -0.9140  0.5869 -0.5217
  133OSM   H13G14363   6.011   2.547   3.596 -0.2440  0.8201  3.2184
  133OSM   C14F14364   6.102   2.485   3.778 -0.0839  0.2980  0.8979
  133OSM   H14F14365   6.092   2.581   3.831 -1.9789  2.2002 -2.5206
  133OSM   H14G14366   6.200   2.442   3.808  0.1766 -0.5099 -0.9289
  133OSM   C15F14367   5.995   2.374   3.817  0.1307  0.6683 -0.8077
  133OSM   H15F14368   6.026   2.281   3.765  1.2955  0.7900 -0.3733
  133OSM   H15G14369   5.899   2.416   3.780 -0.6499 -0.4443 -0.0977
  133OSM   C16F14370   5.994   2.344   3.968  0.3972  0.2139  0.3143
  133OSM   H16F14371   5.984   2.445   4.014 -0.7746  0.3892 -0.2865
  133OSM   H16G14372   6.094   2.307   3.998  0.6674 -0.5167 -1.3754
  133OSM   C17F14373   5.883   2.251   4.013  0.2708 -0.8912  0.4111
  133OSM   H17F14374   5.897   2.156   3.958 -1.8592  0.8554 -3.6236
  133OSM   H17G14375   5.794   2.298   3.967  0.3889  0.0804  1.1482
  133OSM   C18F14376   5.859   2.233   4.165 -0.0335  0.0609  0.3191
  133OSM   H18F14377   5.940   2.161   4.188 -0.8983 -0.4698  1.7565
  133OSM   H18G14378   5.762   2.185   4.189 -0.7141  1.5500  0.7115
  133OSM   H18H14379   5.863   2.327   4.223 -0.8350  0.6646 -0.5588
  134OSM      N14380   5.403   4.926   1.493 -0.2971  0.0828  0.0677
  134OSM    C1514381   5.344   4.836   1.392 -0.0786  0.3861  0.7164
  134OSM   H15A14382   5.287   4.753   1.432  1.6469 -0.7603  0.9372
  134OSM   H15B14383   5.427   4.803   1.331 -0.2309  1.7389 -0.2640
  134OSM   H15C14384   5.278   4.882   1.321  0.3878  0.8207  0.5618
  134OSM    C1414385   5.491   5.032   1.439 -0.2029  0.0330 -0.4550
  134OSM   H14A14386   5.571   4.993   1.377  3.1669  1.0581  2.8458
  134OSM   H14B14387   5.534   5.086   1.522 -0.4750  1.5556 -1.2729
  134OSM   H14C14388   5.446   5.109   1.378  0.4903 -0.8985 -2.2261
  134OSM    C1314389   5.292   4.992   1.562 -0.0539  0.4455 -0.2325
  134OSM   H13A14390   5.215   4.923   1.593  0.7041 -0.8509 -1.1289
  134OSM   H13B14391   5.237   5.068   1.508 -0.6657  2.0160  2.4010
  134OSM   H13C14392   5.328   5.040   1.652 -2.0997  0.7961  0.4606
  134OSM    C1214393   5.479   4.839   1.587  0.8113 -0.1283  0.2946
  134OSM   H12A14394   5.548   4.784   1.524 -0.1343 -0.5262 -0.4123
  134OSM   H12B14395   5.411   4.769   1.632  0.8445  1.0507  2.2775
  134OSM    C1114396   5.555   4.905   1.707  0.1250 -0.4072  0.4942
  134OSM   H11A14397   5.628   4.979   1.668  0.4622  0.3655  2.4726
  134OSM   H11B14398   5.612   4.824   1.757  1.2331  0.4041  0.5849
  134OSM      P14399   5.384   4.917   1.903  0.2520  0.0178 -0.0646
  134OSM    O1314400   5.281   5.011   1.953  0.5379 -0.4751 -0.2238
  134OSM    O1414401   5.350   4.780   1.863 -0.5155 -0.0409  0.2151
  134OSM    O1114402   5.476   4.908   2.026  0.1079  0.2349  0.0852
  134OSM    O1214403   5.477   4.994   1.798 -0.0529  0.4249 -0.7383
  134OSM    C1S14404   5.588   4.990   2.058 -0.5718 -0.4423  0.1397
  134OSM    H1S14405   5.570   5.096   2.029 -0.9202 -0.6618 -0.4604
  134OSM    H1T14406   5.680   4.959   2.004 -0.4341  0.1153  0.0520
  134OSM     NF14407   5.695   5.096   2.267 -0.4247 -0.4803 -0.0431
  134OSM    HNF14408   5.780   5.068   2.311  0.3818 -2.2334 -2.4763
  134OSM    C2S14409   5.617   4.982   2.215 -0.1932 -0.0642  0.2455
  134OSM    H2S14410   5.516   4.983   2.261 -0.3011 -0.9047  0.0489
  134OSM    C3S14411   5.679   4.846   2.239  0.4355  0.3149  0.3163
  134OSM    H3S14412   5.777   4.848   2.187  0.4796  1.2918  0.4101
  134OSM     O314413   5.595   4.736   2.187  0.3745 -0.2821 -0.4883
  134OSM    HO314414   5.533   4.778   2.127  1.0161  0.8800 -0.3659
  134OSM    C4S14415   5.701   4.830   2.389  0.4204 -0.6440 -0.2998
  134OSM    H4S14416   5.773   4.906   2.422 -0.6261 -0.2175  1.1291
  134OSM    C5S14417   5.639   4.746   2.477 -0.4370  1.0188  0.0289
  134OSM    H5S14418   5.573   4.673   2.428  0.9073 -0.3847  0.2447
  134OSM    C6S14419   5.653   4.735   2.625  0.6837  0.1320 -0.8744
  134OSM    H6S14420   5.709   4.645   2.658  1.3717  0.7043 -0.4322
  134OSM    H6T14421   5.553   4.736   2.672  2.1713  0.2366  2.5932
  134OSM    C7S14422   5.722   4.865   2.680 -0.6471 -0.2681 -0.3587
  134OSM    H7S14423   5.673   4.962   2.655 -1.3964  0.1965  2.5773
  134OSM    H7T14424   5.826   4.876   2.643  0.5166 -0.3162  2.6738
  134OSM    C8S14425   5.727   4.865   2.834 -0.1959  0.6472 -0.7673
  134OSM    H8S14426   5.753   4.763   2.869 -1.3834 -0.0403 -1.7582
  134OSM    H8T14427   5.621   4.881   2.863 -0.2926 -0.5959 -0.3795
  134OSM    C9S14428   5.829   4.962   2.898  0.5641 -0.6277 -0.0138
  134OSM    H9S14429   5.807   5.063   2.859 -1.7747 -0.6858  1.0025
  134OSM    H9T14430   5.931   4.930   2.866  1.7975  2.8473 -0.0266
  134OSM   C10S14431   5.823   4.978   3.051  0.2851  0.5041 -0.6836
  134OSM   H10S14432   5.747   5.054   3.079  0.0402 -0.0342  0.1281
  134OSM   H10T14433   5.920   5.020   3.086 -0.8823  1.6913  1.3025
  134OSM   C11S14434   5.784   4.854   3.130  0.3610  0.1498  0.3462
  134OSM   H11S14435   5.846   4.765   3.106 -0.6401 -0.9214  1.5679
  134OSM   H11T14436   5.680   4.834   3.094 -0.2389 -0.6049  2.3333
  134OSM   C12S14437   5.782   4.863   3.285  0.1121  0.4035  0.3298
  134OSM   H12S14438   5.684   4.877   3.337  1.5490 -1.7689  3.9724
  134OSM   H12T14439   5.836   4.958   3.307 -1.3106  1.2824  0.1801
  134OSM   C13S14440   5.853   4.747   3.364 -0.2906  0.2384 -0.2117
  134OSM   H13S14441   5.952   4.731   3.316  1.5083  0.8753  3.0214
  134OSM   H13T14442   5.787   4.659   3.349  1.1231 -0.7467 -0.8310
  134OSM   C14S14443   5.874   4.764   3.516 -0.1400  0.2182 -0.5075
  134OSM   H14S14444   5.945   4.847   3.537 -2.5122  3.3677 -3.8021
  134OSM   H14T14445   5.890   4.661   3.555 -1.9217 -0.1228 -0.5578
  134OSM   C15S14446   5.744   4.820   3.587  0.6447 -0.0331  1.1896
  134OSM   H15S14447   5.655   4.769   3.543  0.7481  1.6362 -1.1482
  134OSM   H15T14448   5.728   4.924   3.552 -2.6800 -1.4152 -2.1473
  134OSM   C16S14449   5.746   4.818   3.744  0.2231  0.5688 -0.0524
  134OSM   H16S14450   5.652   4.855   3.791  0.0893 -0.9964  0.9954
  134OSM   H16T14451   5.834   4.872   3.783  0.4123 -0.7208  1.4165
  134OSM   C17S14452   5.742   4.673   3.795 -0.2067  0.1381  0.2983
  134OSM   H17S14453   5.835   4.618   3.768 -1.3240 -0.8727 -1.7168
  134OSM   H17T14454   5.651   4.633   3.745 -1.3063  2.2015  0.5477
  134OSM   C18S14455   5.724   4.672   3.947  0.6228  0.8218 -0.5340
  134OSM   H18S14456   5.811   4.706   4.008 -0.8921  1.0269  1.6612
  134OSM   H18T14457   5.703   4.566   3.970 -1.0466  1.2703  0.1628
  134OSM   H18U14458   5.635   4.733   3.974  0.5506  1.7566 -2.6577
  134OSM    C1F14459   5.658   5.228   2.250 -0.0712  0.2230  0.6556
  134OSM     OF14460   5.553   5.264   2.198 -0.3797  0.0419  0.2783
  134OSM    C2F14461   5.753   5.339   2.297 -0.7167 -0.0287 -0.2695
  134OSM    H2F14462   5.812   5.374   2.210  1.7750  0.8803  1.6566
  134OSM    H2G14463   5.826   5.295   2.368 -0.3424  1.9478  0.6142
  134OSM    C3F14464   5.683   5.459   2.363  0.1793  0.5866 -0.1786
  134OSM    H3F14465   5.622   5.516   2.290  0.9334  1.2138 -0.3311
  134OSM    H3G14466   5.764   5.523   2.403 -1.1291  1.7365  0.7120
  134OSM    C4F14467   5.591   5.422   2.484 -0.2374  0.2856  0.0584
  134OSM    H4F14468   5.508   5.355   2.454 -0.3902 -0.6529  2.3053
  134OSM    H4G14469   5.547   5.513   2.530  1.4304  2.2598 -2.0137
  134OSM    C5F14470   5.657   5.359   2.605 -0.4653 -0.7804  0.4711
  134OSM    H5F14471   5.757   5.405   2.616 -1.2196  0.9695  0.3802
  134OSM    H5G14472   5.688   5.257   2.574 -0.6572 -0.6222 -0.2698
  134OSM    C6F14473   5.583   5.367   2.736 -0.2604 -0.3215 -0.2649
  134OSM    H6F14474   5.492   5.303   2.738 -0.6136  0.0205  3.6462
  134OSM    H6G14475   5.541   5.466   2.762 -2.6554 -1.2922 -0.1934
  134OSM    C7F14476   5.667   5.333   2.864  0.0300  0.0158 -0.1151
  134OSM    H7F14477   5.754   5.403   2.861 -0.2659  0.3654 -1.2491
  134OSM    H7G14478   5.697   5.226   2.862  3.2671  0.8331 -0.7774
  134OSM    C8F14479   5.573   5.356   2.991 -0.8906 -0.1141  0.2736
  134OSM    H8F14480   5.546   5.463   3.007 -0.1528  0.1691 -0.2957
  134OSM    H8G14481   5.648   5.345   3.073  1.9522 -0.8747 -2.2256
  134OSM    C9F14482   5.460   5.266   3.007  0.0307  0.1936  0.0401
  134OSM    H9F14483   5.406   5.254   2.911  0.1501 -1.9497  0.2038
  134OSM   C10F14484   5.416   5.182   3.104  0.1835 -0.0764 -0.1700
  134OSM   H10F14485   5.317   5.136   3.089  0.9911 -1.8918 -0.2229
  134OSM   C11F14486   5.478   5.172   3.247 -0.1427  0.4763 -0.2597
  134OSM   H11F14487   5.538   5.264   3.257 -2.0125  1.8515 -1.0420
  134OSM   H11G14488   5.543   5.082   3.238 -1.5158 -0.6645  0.7383
  134OSM   C12F14489   5.380   5.171   3.359 -0.4801  0.2823 -0.5854
  134OSM   H12F14490   5.431   5.152   3.456 -0.7316 -0.3766 -0.5782
  134OSM   H12G14491   5.307   5.091   3.335  0.2470 -0.6896  0.3415
  134OSM   C13F14492   5.300   5.303   3.370  1.0061  0.6827 -0.1209
  134OSM   H13F14493   5.248   5.341   3.279 -1.0688  0.8076  1.0437
  134OSM   H13G14494   5.376   5.382   3.389  1.0641  1.6334 -3.6516
  134OSM   C14F14495   5.197   5.301   3.486 -0.3162  0.9006  1.2101
  134OSM   H14F14496   5.242   5.305   3.587  0.9120 -1.1968  0.7898
  134OSM   H14G14497   5.153   5.199   3.476  0.5857  0.2272  3.5281
  134OSM   C15F14498   5.099   5.416   3.485 -0.4873 -0.2111 -0.2087
  134OSM   H15F14499   5.039   5.403   3.392 -1.0789 -1.9095  0.3618
  134OSM   H15G14500   5.155   5.512   3.492  0.2880 -0.3375 -3.4283
  134OSM   C16F14501   4.987   5.404   3.593  0.1458  0.4089 -0.8035
  134OSM   H16F14502   5.039   5.397   3.691 -0.4176  3.6013 -0.1699
  134OSM   H16G14503   4.936   5.306   3.585 -0.0916  0.5018 -0.4586
  134OSM   C17F14504   4.889   5.520   3.610 -0.3281  0.1006  0.4966
  134OSM   H17F14505   4.829   5.514   3.517 -0.0739 -0.6523  0.3770
  134OSM   H17G14506   4.944   5.616   3.619 -2.3188  1.4174 -0.5784
  134OSM   C18F14507   4.809   5.507   3.731 -0.2497 -0.7339 -0.5773
  134OSM   H18F14508   4.763   5.405   3.732  1.1380 -1.3916 -0.5111
  134OSM   H18G14509   4.729   5.583   3.725 -0.2337 -0.6786 -0.1148
  134OSM   H18H14510   4.866   5.529   3.824  0.7523 -1.8534 -0.8998
  135OSM      N14511   0.901   4.340   1.639  0.5343  0.0295 -0.7433
  135OSM    C1514512   0.849   4.369   1.500  0.0344 -0.1155 -0.1823
  135OSM   H15A14513   0.760   4.431   1.505 -2.2766 -3.1143 -1.0561
  135OSM   H15B14514   0.825   4.273   1.455  1.7752 -1.5983  1.8657
  135OSM   H15C14515   0.916   4.431   1.444  0.5262 -0.8320 -0.4036
  135OSM    C1414516   0.809   4.268   1.730  0.7568  0.4957 -0.4022
  135OSM   H14A14517   0.787   4.170   1.691 -1.4082  0.1478  1.4701
  135OSM   H14B14518   0.717   4.323   1.744  1.3990  1.2949  0.7912
  135OSM   H14C14519   0.853   4.254   1.827  0.7319  1.7495 -0.2010
  135OSM    C1314520   1.035   4.272   1.637 -0.4654  0.3769  0.4081
  135OSM   H13A14521   1.073   4.271   1.738  0.4904 -0.5859  0.0634
  135OSM   H13B14522   1.107   4.322   1.574  0.6812  0.6083  1.8362
  135OSM   H13C14523   1.022   4.170   1.602 -1.9042  0.5039  0.5075
  135OSM    C1214524   0.923   4.488   1.694  0.1540 -0.1689  0.4268
  135OSM   H12A14525   0.824   4.530   1.694  0.7359  1.2501  0.2148
  135OSM   H12B14526   0.978   4.542   1.619 -2.0829  0.3827 -0.9068
  135OSM    C1114527   0.986   4.496   1.835 -0.3930 -0.7467  0.5205
  135OSM   H11A14528   0.924   4.432   1.901 -0.6830 -1.0506 -0.0470
  135OSM   H11B14529   0.969   4.598   1.878  1.5769 -0.1393 -0.0273
  135OSM      P14530   1.243   4.558   1.806  0.4970 -0.2247 -0.2949
  135OSM    O1314531   1.372   4.490   1.831 -0.0652  0.8487  0.2885
  135OSM    O1414532   1.226   4.614   1.669  0.1649  0.2400  0.3032
  135OSM    O1114533   1.225   4.669   1.917  0.1411  0.1408  0.0413
  135OSM    O1214534   1.124   4.458   1.831  0.0687 -0.2583  0.5639
  135OSM    C1S14535   1.242   4.635   2.054  0.2726 -0.4897  0.0542
  135OSM    H1S14536   1.339   4.583   2.072  1.8503  2.6403  1.4237
  135OSM    H1T14537   1.156   4.574   2.088 -1.3041  1.4150 -0.3579
  135OSM     NF14538   1.251   4.741   2.280  1.0187 -0.1511 -0.5050
  135OSM    HNF14539   1.163   4.744   2.328  1.3496 -1.3993  0.2542
  135OSM    C2S14540   1.235   4.766   2.135  0.1374 -0.2012  0.1479
  135OSM    H2S14541   1.331   4.813   2.105  1.0343 -2.1844 -0.2767
  135OSM    C3S14542   1.120   4.867   2.104 -0.0097 -0.2863 -0.1689
  135OSM    H3S14543   1.029   4.816   2.144 -0.3284 -1.3445 -2.1159
  135OSM     O314544   1.097   4.898   1.962 -0.6050 -0.0202 -0.2418
  135OSM    HO314545   1.155   4.829   1.929  1.5994  1.5250  0.2378
  135OSM    C4S14546   1.132   5.003   2.170 -0.1130  0.4718 -0.4917
  135OSM    H4S14547   1.213   5.059   2.121 -0.2773  3.1324  2.0280
  135OSM    C5S14548   1.052   5.053   2.262  0.2362 -0.0874 -0.1850
  135OSM    H5S14549   0.965   4.992   2.294  0.8978  0.2583  2.5006
  135OSM    C6S14550   1.056   5.186   2.333 -0.3055 -0.0715  0.1033
  135OSM    H6S14551   1.023   5.181   2.439 -1.0589 -1.2201 -0.1629
  135OSM    H6T14552   0.998   5.269   2.287  0.7096  0.2017 -0.7353
  135OSM    C7S14553   1.205   5.246   2.346  0.3239  0.2530  0.0033
  135OSM    H7S14554   1.187   5.345   2.392  2.9725  1.8379 -2.1119
  135OSM    H7T14555   1.237   5.268   2.242 -0.0831  0.0059 -0.1780
  135OSM    C8S14556   1.311   5.150   2.403 -0.0718 -0.3836 -0.6993
  135OSM    H8S14557   1.404   5.210   2.395  0.8155 -1.7556 -0.9645
  135OSM    H8T14558   1.322   5.055   2.347  0.2666 -1.5999  1.3249
  135OSM    C9S14559   1.285   5.124   2.549 -0.1744  0.5629 -0.0172
  135OSM    H9S14560   1.185   5.081   2.569 -1.0706  0.9980 -3.1174
  135OSM    H9T14561   1.301   5.223   2.596  1.6265  0.7423 -0.9129
  135OSM   C10S14562   1.402   5.029   2.605  0.3042  0.0873  1.1537
  135OSM   H10S14563   1.499   5.081   2.593 -0.0958  0.4353 -1.0370
  135OSM   H10T14564   1.407   4.940   2.538  3.0952  1.7402 -1.1120
  135OSM   C11S14565   1.386   4.991   2.753  0.2120 -0.1650  1.0574
  135OSM   H11S14566   1.305   4.914   2.749  1.5450 -1.6361  1.2409
  135OSM   H11T14567   1.340   5.078   2.804  0.1993  0.4099  0.0878
  135OSM   C12S14568   1.516   4.942   2.806 -0.5166  0.6722 -0.0819
  135OSM   H12S14569   1.587   5.028   2.799 -0.8131  1.0024  0.8819
  135OSM   H12T14570   1.558   4.864   2.739  1.1354  1.3060  0.1579
  135OSM   C13S14571   1.509   4.893   2.951 -0.2159  0.0400  0.6901
  135OSM   H13S14572   1.598   4.828   2.966 -1.4368 -1.5894  1.0820
  135OSM   H13T14573   1.427   4.821   2.972  1.4896 -2.5576 -0.9748
  135OSM   C14S14574   1.512   5.005   3.057 -0.4030  0.5204  0.6845
  135OSM   H14S14575   1.437   5.078   3.019 -0.3956  0.4175  0.4698
  135OSM   H14T14576   1.615   5.044   3.064 -0.6138  0.9936  1.2482
  135OSM   C15S14577   1.464   4.964   3.201 -0.1613  0.2054  0.0167
  135OSM   H15S14578   1.521   4.872   3.226 -0.4314 -0.1445 -0.6234
  135OSM   H15T14579   1.356   4.937   3.203  0.3290 -2.0640  2.9888
  135OSM   C16S14580   1.482   5.078   3.298 -0.1321  0.2823  0.0732
  135OSM   H16S14581   1.415   5.165   3.280 -0.0969 -0.0081 -1.6283
  135OSM   H16T14582   1.586   5.107   3.271  0.1028 -0.3235  0.3141
  135OSM   C17S14583   1.481   5.048   3.444 -0.4164 -0.2255 -0.6290
  135OSM   H17S14584   1.513   4.943   3.463  0.7361 -0.2853 -2.6026
  135OSM   H17T14585   1.381   5.059   3.490 -1.6831  0.3371 -3.3323
  135OSM   C18S14586   1.579   5.143   3.517  0.0859  0.5509  0.7550
  135OSM   H18S14587   1.669   5.144   3.453  1.0411 -1.5759  1.9595
  135OSM   H18T14588   1.612   5.081   3.603 -1.1509 -1.1823  0.0349
  135OSM   H18U14589   1.536   5.244   3.537  0.8928  0.9357  0.5712
  135OSM    C1F14590   1.354   4.693   2.342 -0.3574 -0.5013 -0.5207
  135OSM     OF14591   1.459   4.651   2.288  0.7620 -0.5154 -0.0780
  135OSM    C2F14592   1.333   4.661   2.489  0.0747  0.0241  0.3602
  135OSM    H2F14593   1.262   4.730   2.540  0.2451  0.6069 -0.1666
  135OSM    H2G14594   1.432   4.680   2.537  1.1818 -1.5182 -1.1729
  135OSM    C3F14595   1.289   4.516   2.514 -0.7519 -0.9737 -0.0839
  135OSM    H3F14596   1.370   4.446   2.484 -0.1876 -0.0959 -0.6862
  135OSM    H3G14597   1.195   4.496   2.459 -0.5462 -2.1495 -0.0395
  135OSM    C4F14598   1.251   4.490   2.664  0.1809 -0.1734  1.0602
  135OSM    H4F14599   1.224   4.382   2.671 -2.9095  0.3648 -0.6278
  135OSM    H4G14600   1.158   4.543   2.694  0.3498  0.6947  0.0697
  135OSM    C5F14601   1.363   4.519   2.762  0.2200 -0.4366  0.8453
  135OSM    H5F14602   1.373   4.630   2.764  1.6949 -0.5241 -0.3224
  135OSM    H5G14603   1.461   4.485   2.723  0.7416  0.5552  1.2554
  135OSM    C6F14604   1.343   4.460   2.898 -0.1575  0.5184  0.0137
  135OSM    H6F14605   1.339   4.349   2.907  0.3399  0.5068  0.0810
  135OSM    H6G14606   1.245   4.495   2.939 -0.8969 -0.0090 -1.2642
  135OSM    C7F14607   1.452   4.520   2.989  0.2290 -0.0996 -0.0510
  135OSM    H7F14608   1.428   4.625   3.016 -1.1349 -0.4748  0.2718
  135OSM    H7G14609   1.549   4.511   2.936  1.3287 -0.1226  1.8797
  135OSM    C8F14610   1.456   4.432   3.113 -0.4735  0.0114  0.2291
  135OSM    H8F14611   1.452   4.323   3.093 -0.8399  0.2774 -1.2190
  135OSM    H8G14612   1.356   4.449   3.157 -0.4996 -0.8998  0.5493
  135OSM    C9F14613   1.568   4.472   3.201  0.4897 -0.3185  0.3581
  135OSM    H9F14614   1.669   4.432   3.186  0.4400 -0.5425  0.6093
  135OSM   C10F14615   1.553   4.531   3.322 -0.6749  0.1087  0.1380
  135OSM   H10F14616   1.645   4.562   3.373 -1.0469 -0.1101  0.9515
  135OSM   C11F14617   1.433   4.582   3.396 -0.2900  0.5052  0.1238
  135OSM   H11F14618   1.346   4.581   3.328 -0.0402 -0.6191 -0.1986
  135OSM   H11G14619   1.445   4.691   3.414  0.1857  0.6861 -1.2352
  135OSM   C12F14620   1.402   4.499   3.525  0.3530 -0.5261  0.0325
  135OSM   H12F14621   1.412   4.389   3.514 -0.1104 -0.6623  0.9082
  135OSM   H12G14622   1.303   4.533   3.560  0.0020 -0.8171 -0.6504
  135OSM   C13F14623   1.513   4.544   3.627  0.2058  0.7054  0.2371
  135OSM   H13F14624   1.499   4.654   3.636  0.7951  0.8366 -0.3903
  135OSM   H13G14625   1.612   4.516   3.585 -0.6084 -0.8791 -0.7082
  135OSM   C14F14626   1.477   4.482   3.760 -0.4625 -0.7505 -0.1081
  135OSM   H14F14627   1.512   4.379   3.736  0.0253 -0.3555 -1.1756
  135OSM   H14G14628   1.368   4.465   3.769 -0.2814 -1.7221  0.4185
  135OSM   C15F14629   1.541   4.540   3.886 -0.1499  0.3592 -0.0711
  135OSM   H15F14630   1.502   4.641   3.912  1.0167  0.7336  0.3371
  135OSM   H15G14631   1.646   4.555   3.853 -0.4852 -1.8042 -2.4378
  135OSM   C16F14632   1.521   4.449   4.012  0.3472  0.7994  0.3176
  135OSM   H16F14633   1.609   4.467   4.077  1.5290  0.6407 -1.1937
  135OSM   H16G14634   1.529   4.345   3.976  0.1762  0.8324  0.1810
  135OSM   C17F14635   1.382   4.458   4.080  0.3133 -0.4864  0.6622
  135OSM   H17F14636   1.383   4.367   4.144 -0.1838 -0.4013  0.7967
  135OSM   H17G14637   1.290   4.448   4.019  0.5667 -3.2799  0.6058
  135OSM   C18F14638   1.372   4.576   4.178 -0.1044  0.0703  0.4158
  135OSM   H18F14639   1.286   4.564   4.248  0.4590  3.5152  1.8631
  135OSM   H18G14640   1.345   4.667   4.121 -0.3602  0.2135  0.7627
  135OSM   H18H14641   1.466   4.591   4.235 -0.8094  2.5024  1.0545
  136OSM      N14642   3.666   1.308   1.501 -0.0004  0.2303 -0.9088
  136OSM    C1514643   3.676   1.178   1.580 -0.1312  0.1558 -0.1210
  136OSM   H15A14644   3.610   1.106   1.533  0.3038 -0.0175 -0.4710
  136OSM   H15B14645   3.655   1.194   1.685 -0.1376 -0.1360 -0.0780
  136OSM   H15C14646   3.774   1.134   1.565  1.0000  1.5460  2.5210
  136OSM    C1414647   3.663   1.276   1.357  0.7560 -0.4787 -0.8886
  136OSM   H14A14648   3.568   1.224   1.355 -0.2324  1.0480  1.4509
  136OSM   H14B14649   3.738   1.205   1.327  0.5968 -2.2848  2.4800
  136OSM   H14C14650   3.662   1.369   1.304 -0.8849  0.4083  0.5643
  136OSM    C1314651   3.541   1.371   1.547 -0.2851 -0.1765  0.1797
  136OSM   H13A14652   3.532   1.375   1.655  2.0012 -0.5087  0.4526
  136OSM   H13B14653   3.453   1.323   1.509 -0.7922  1.6294 -1.0486
  136OSM   H13C14654   3.536   1.475   1.517 -1.4207  0.8070  3.3760
  136OSM    C1214655   3.790   1.390   1.527  0.2609 -0.1216 -0.7673
  136OSM   H12A14656   3.795   1.417   1.632 -1.1781 -0.0530 -0.6909
  136OSM   H12B14657   3.775   1.486   1.480 -1.6551 -1.0015 -2.0808
  136OSM    C1114658   3.923   1.337   1.488  0.2707 -0.0657  0.8639
  136OSM   H11A14659   3.927   1.342   1.377  0.6267 -1.3996  0.7967
  136OSM   H11B14660   3.935   1.227   1.504  1.5306 -0.2303 -0.9054
  136OSM      P14661   4.127   1.345   1.645 -0.5262  0.3671  0.4754
  136OSM    O1314662   4.149   1.197   1.619 -0.2356 -0.9671 -0.2365
  136OSM    O1414663   4.250   1.430   1.661 -0.3113 -0.3771 -0.0512
  136OSM    O1114664   4.043   1.362   1.773  0.3015 -0.5710 -0.1965
  136OSM    O1214665   4.024   1.414   1.545 -0.2079  0.7667 -0.2316
  136OSM    C1S14666   4.043   1.268   1.879 -0.1982  0.0791 -0.3306
  136OSM    H1S14667   4.133   1.289   1.942 -0.8815 -0.3189  0.8039
  136OSM    H1T14668   4.050   1.162   1.846 -1.3328  0.0136 -0.3879
  136OSM     NF14669   3.906   1.156   2.031  0.9508  0.8267 -0.2070
  136OSM    HNF14670   3.827   1.103   2.004  2.6826 -0.9485 -2.2071
  136OSM    C2S14671   3.924   1.285   1.970 -0.6504  0.3970 -0.2465
  136OSM    H2S14672   3.947   1.362   2.046  0.6132 -1.3520  1.2331
  136OSM    C3S14673   3.803   1.324   1.889 -0.3821 -0.2794 -0.1766
  136OSM    H3S14674   3.776   1.256   1.806 -0.2848 -0.3940 -0.1136
  136OSM     O314675   3.807   1.451   1.828  0.2341  0.1024  0.4845
  136OSM    HO314676   3.902   1.469   1.826  0.4197 -0.8437 -1.1456
  136OSM    C4S14677   3.687   1.330   1.986  0.8448 -0.3745 -0.1082
  136OSM    H4S14678   3.597   1.277   1.952  0.9305  0.0296 -0.9930
  136OSM    C5S14679   3.673   1.419   2.086  0.0241  0.0857 -0.6758
  136OSM    H5S14680   3.748   1.497   2.105  0.9519 -0.8675 -0.3192
  136OSM    C6S14681   3.551   1.422   2.184 -0.2685 -0.5862  0.2122
  136OSM    H6S14682   3.509   1.320   2.200 -1.5970 -0.2326 -0.8440
  136OSM    H6T14683   3.476   1.495   2.146  1.3985  0.9480 -0.2663
  136OSM    C7S14684   3.607   1.469   2.322  0.4614 -0.2825 -0.3030
  136OSM    H7S14685   3.639   1.574   2.308  1.3930 -0.7355 -1.8877
  136OSM    H7T14686   3.685   1.393   2.347 -0.1403 -0.2487  1.9401
  136OSM    C8S14687   3.505   1.490   2.433  0.4649 -0.6679 -0.0112
  136OSM    H8S14688   3.446   1.580   2.406 -0.8079 -1.7559 -0.9338
  136OSM    H8T14689   3.567   1.521   2.520  0.2715 -2.7184  0.9072
  136OSM    C9S14690   3.408   1.372   2.472 -0.4644  0.0021  0.0540
  136OSM    H9S14691   3.463   1.284   2.511 -1.0575 -0.9136 -1.1504
  136OSM    H9T14692   3.360   1.335   2.379  0.9184  0.7536 -1.0000
  136OSM   C10S14693   3.306   1.407   2.579  0.1935 -0.5564 -0.3939
  136OSM   H10S14694   3.237   1.320   2.588 -0.0191 -0.1503  3.7715
  136OSM   H10T14695   3.250   1.498   2.548  2.6588  1.2911  0.3398
  136OSM   C11S14696   3.374   1.433   2.711  0.6198  0.2355 -0.1711
  136OSM   H11S14697   3.429   1.529   2.710  0.6633  0.2078 -1.4368
  136OSM   H11T14698   3.447   1.358   2.748 -1.2831  0.1500  4.0711
  136OSM   C12S14699   3.267   1.433   2.821  0.3275  0.7162 -0.2837
  136OSM   H12S14700   3.211   1.337   2.809  0.8009  0.4789 -0.6456
  136OSM   H12T14701   3.208   1.525   2.803  1.2559  1.0578 -1.7097
  136OSM   C13S14702   3.337   1.449   2.955  0.2677 -0.2170  0.3044
  136OSM   H13S14703   3.350   1.556   2.982 -1.8675 -0.5202  3.0337
  136OSM   H13T14704   3.435   1.397   2.961 -0.6852 -2.1780 -0.4251
  136OSM   C14S14705   3.256   1.383   3.058  0.0242 -0.2372  0.1599
  136OSM   H14S14706   3.230   1.280   3.024  1.3329 -0.2621 -0.8594
  136OSM   H14T14707   3.159   1.437   3.063 -0.1681 -0.0662 -3.3087
  136OSM   C15S14708   3.323   1.374   3.198  0.0316 -0.6115  0.5765
  136OSM   H15S14709   3.352   1.472   3.242  0.2474 -1.1366  1.6265
  136OSM   H15T14710   3.422   1.325   3.185  0.6570 -0.2025  3.2167
  136OSM   C16S14711   3.242   1.307   3.313 -0.1682  0.5736  0.6365
  136OSM   H16S14712   3.190   1.217   3.275 -2.2215  1.2611  1.6566
  136OSM   H16T14713   3.158   1.371   3.346 -0.4700 -0.1411  1.2946
  136OSM   C17S14714   3.318   1.252   3.426  0.3957 -1.3599 -0.1907
  136OSM   H17S14715   3.357   1.325   3.501  0.9339 -0.5593 -1.2261
  136OSM   H17T14716   3.404   1.198   3.381  1.7870  0.7548 -0.2336
  136OSM   C18S14717   3.226   1.160   3.511 -0.9980 -0.4971 -0.2614
  136OSM   H18S14718   3.148   1.223   3.559 -0.1539  0.6373 -0.3519
  136OSM   H18T14719   3.282   1.104   3.589 -1.6270 -0.2209  0.4010
  136OSM   H18U14720   3.171   1.086   3.449  0.2687 -0.0737 -1.9372
  136OSM    C1F14721   4.000   1.103   2.118 -0.5301 -0.3279  0.3805
  136OSM     OF14722   4.099   1.171   2.145 -0.5202  0.7157 -0.1517
  136OSM    C2F14723   3.982   0.964   2.175  0.4140 -0.3281  0.3283
  136OSM    H2F14724   4.064   0.896   2.143  0.1947  0.5266 -2.2234
  136OSM    H2G14725   3.888   0.924   2.132  0.6128 -0.9205  0.4349
  136OSM    C3F14726   3.974   0.980   2.322  0.5839  0.1167 -0.2033
  136OSM    H3F14727   3.883   1.041   2.343  0.6070  1.8642 -4.1284
  136OSM    H3G14728   4.063   1.031   2.365  0.9321  1.3341 -2.2390
  136OSM    C4F14729   3.961   0.851   2.403 -0.3590 -0.3400  0.2184
  136OSM    H4F14730   4.049   0.788   2.378 -0.8257 -1.0171  0.2438
  136OSM    H4G14731   3.881   0.780   2.370  1.0173 -2.1860  0.6630
  136OSM    C5F14732   3.951   0.874   2.556  0.0317  0.7494 -0.4640
  136OSM    H5F14733   3.861   0.932   2.585  0.1276 -0.4304  2.5463
  136OSM    H5G14734   4.035   0.940   2.588  1.3736 -0.5470 -1.2114
  136OSM    C6F14735   3.966   0.738   2.621  0.1177  0.4457 -0.3532
  136OSM    H6F14736   4.035   0.665   2.572  0.4619  0.6788 -0.2240
  136OSM    H6G14737   3.865   0.693   2.629  0.1117  0.6671  1.1156
  136OSM    C7F14738   4.001   0.747   2.773 -0.7262 -0.1279 -0.4216
  136OSM    H7F14739   3.917   0.807   2.815 -0.4250  0.7476 -1.0458
  136OSM    H7G14740   4.090   0.813   2.783  0.7906 -1.3747 -4.0818
  136OSM    C8F14741   4.016   0.616   2.850 -0.0927  0.9585  0.1218
  136OSM    H8F14742   4.093   0.560   2.794 -0.3888 -0.1763  0.8190
  136OSM    H8G14743   3.924   0.555   2.831 -0.3554  1.3359  0.1751
  136OSM    C9F14744   4.060   0.633   2.990  0.9657  0.0173 -0.1733
  136OSM    H9F14745   3.985   0.680   3.056  0.0519  1.2665 -2.0260
  136OSM   C10F14746   4.183   0.601   3.046  0.2487 -0.9503  0.0981
  136OSM   H10F14747   4.201   0.639   3.148 -1.9861  1.2336 -0.2429
  136OSM   C11F14748   4.300   0.533   2.976 -0.1676 -0.4687 -1.2063
  136OSM   H11F14749   4.386   0.600   2.954  0.5464  0.1463  2.8008
  136OSM   H11G14750   4.267   0.485   2.881 -0.7336  0.6611 -1.5990
  136OSM   C12F14751   4.364   0.415   3.059  0.2121 -0.2814 -0.0700
  136OSM   H12F14752   4.415   0.343   2.992  1.1905  0.4775 -0.1636
  136OSM   H12G14753   4.272   0.364   3.096  1.3212 -1.1255  1.6045
  136OSM   C13F14754   4.447   0.446   3.192  0.3627  0.1931 -0.2756
  136OSM   H13F14755   4.379   0.499   3.262  1.1521  1.2665 -0.2984
  136OSM   H13G14756   4.538   0.506   3.174  1.5233 -1.8622 -1.7017
  136OSM   C14F14757   4.501   0.321   3.268  0.8604  0.5435  0.2134
  136OSM   H14F14758   4.564   0.261   3.200  1.3492 -1.0307  1.9626
  136OSM   H14G14759   4.416   0.250   3.280 -0.2227  1.7624 -0.0427
  136OSM   C15F14760   4.571   0.330   3.401 -0.1321  0.2861  0.4321
  136OSM   H15F14761   4.507   0.391   3.469 -1.9769 -0.4271 -0.5812
  136OSM   H15G14762   4.664   0.386   3.377 -0.2516  1.3443  2.2983
  136OSM   C16F14763   4.611   0.204   3.474 -0.2346  0.1276 -0.4468
  136OSM   H16F14764   4.676   0.132   3.420  0.9779  1.2014 -0.4500
  136OSM   H16G14765   4.522   0.142   3.500 -0.3414 -1.1478 -3.4714
  136OSM   C17F14766   4.699   0.238   3.595 -0.0429  0.3910 -0.0545
  136OSM   H17F14767   4.786   0.298   3.563 -1.5814  1.7581 -1.8943
  136OSM   H17G14768   4.736   0.141   3.635 -0.4528  0.7424  1.2518
  136OSM   C18F14769   4.623   0.304   3.710  0.0375 -0.1989 -0.3829
  136OSM   H18F14770   4.527   0.257   3.738  0.7310 -0.9624  0.8185
  136OSM   H18G14771   4.605   0.410   3.679  2.0601  1.1767  2.5996
  136OSM   H18H14772   4.681   0.310   3.805 -0.9055 -0.3414  0.2120
  137OSM      N14773   0.542   3.418   1.647 -0.0996 -0.2727 -0.6710
  137OSM    C1514774   0.430   3.386   1.560  0.2170  0.1348 -0.2316
  137OSM   H15A14775   0.439   3.291   1.510  1.6879  1.4114 -2.5352
  137OSM   H15B14776   0.421   3.469   1.492 -0.4706  1.7836  1.7730
  137OSM   H15C14777   0.335   3.394   1.611  0.1252  2.0361 -0.6213
  137OSM    C1414778   0.570   3.305   1.744 -0.5008  0.6400  1.1701
  137OSM   H14A14779   0.483   3.284   1.805  0.8572 -1.7722  2.4004
  137OSM   H14B14780   0.663   3.324   1.796  1.9988 -2.8847 -1.5540
  137OSM   H14C14781   0.588   3.213   1.692  1.2908 -0.8231  4.0844
  137OSM    C1314782   0.669   3.437   1.569  0.5872  0.1957 -0.0232
  137OSM   H13A14783   0.666   3.520   1.500  3.4669  0.2847 -0.1461
  137OSM   H13B14784   0.686   3.350   1.507  1.6600  0.4355 -0.0875
  137OSM   H13C14785   0.758   3.438   1.630  2.4317  0.1108 -2.5532
  137OSM    C1214786   0.509   3.533   1.738 -0.7783 -0.0916 -0.4603
  137OSM   H12A14787   0.596   3.566   1.793 -0.9743  0.6626 -0.5908
  137OSM   H12B14788   0.427   3.510   1.804 -1.2121  0.2346 -0.8735
  137OSM    C1114789   0.485   3.671   1.676  0.3190 -0.3082 -0.4450
  137OSM   H11A14790   0.383   3.679   1.633  0.0499 -2.5372 -0.3236
  137OSM   H11B14791   0.553   3.675   1.588  1.0214 -1.0073  0.0534
  137OSM      P14792   0.571   3.909   1.748  0.2491  0.0779 -0.4883
  137OSM    O1314793   0.638   3.913   1.619 -0.0698 -0.3654  1.1729
  137OSM    O1414794   0.463   4.007   1.767  0.1729 -0.0969 -0.4782
  137OSM    O1114795   0.681   3.940   1.863  0.0007  0.5060  0.0268
  137OSM    O1214796   0.514   3.765   1.779 -0.1470  0.3285  0.2072
  137OSM    C1S14797   0.782   3.834   1.886 -0.0211  0.2545 -0.1529
  137OSM    H1S14798   0.813   3.794   1.788 -0.1825  2.6202 -1.2472
  137OSM    H1T14799   0.734   3.761   1.955  1.7001  0.6098  1.5287
  137OSM     NF14800   1.008   3.800   1.972 -0.8433 -0.4669  0.2165
  137OSM    HNF14801   1.028   3.737   2.046 -0.2960  0.3891  0.8187
  137OSM    C2S14802   0.898   3.891   1.981 -0.1562  0.2942  0.3187
  137OSM    H2S14803   0.930   3.991   1.944  0.5239 -0.0001  0.0886
  137OSM    C3S14804   0.845   3.906   2.121 -0.9472  0.1507  0.1992
  137OSM    H3S14805   0.803   3.812   2.161  1.9429 -1.1314  0.4752
  137OSM     O314806   0.741   3.996   2.130  0.4358 -0.0951 -0.1559
  137OSM    HO314807   0.721   4.007   2.037  0.5358 -0.3810 -0.2124
  137OSM    C4S14808   0.952   3.950   2.209  0.9302  0.1683 -0.1570
  137OSM    H4S14809   0.973   4.056   2.191 -1.5392  0.7227 -0.1315
  137OSM    C5S14810   1.011   3.882   2.308  0.3995  0.1147 -0.6497
  137OSM    H5S14811   0.979   3.781   2.334 -1.0984  1.2447  2.3098
  137OSM    C6S14812   1.111   3.945   2.399  0.3411  0.2051 -0.4489
  137OSM    H6S14813   1.066   4.021   2.467 -1.1243  1.2766 -2.4892
  137OSM    H6T14814   1.181   4.003   2.334  0.3723  2.4792  1.4742
  137OSM    C7S14815   1.190   3.839   2.483  0.4527 -0.8657 -0.2365
  137OSM    H7S14816   1.246   3.777   2.409  0.6348  2.0755 -2.8087
  137OSM    H7T14817   1.130   3.774   2.550 -0.1573  1.4519  1.6259
  137OSM    C8S14818   1.284   3.906   2.589  0.2015 -0.2205 -0.2478
  137OSM    H8S14819   1.210   3.967   2.645  0.2985  2.1846 -2.5519
  137OSM    H8T14820   1.364   3.958   2.532 -0.5647  0.9676 -0.2807
  137OSM    C9S14821   1.352   3.805   2.680  0.3516 -0.5474 -0.0241
  137OSM    H9S14822   1.407   3.727   2.623 -0.2714 -1.6509  0.8547
  137OSM    H9T14823   1.282   3.745   2.742 -0.0837  1.8833  1.9847
  137OSM   C10S14824   1.445   3.865   2.791 -0.2895 -0.3712  0.9988
  137OSM   H10S14825   1.532   3.920   2.747  0.0544 -1.3644  0.3930
  137OSM   H10T14826   1.500   3.777   2.830  2.6133 -0.2094 -2.2017
  137OSM   C11S14827   1.370   3.945   2.910 -0.6345  0.4430 -0.0588
  137OSM   H11S14828   1.268   3.902   2.898  0.0588 -1.6404  1.1056
  137OSM   H11T14829   1.389   4.053   2.893  1.4965 -0.2047 -2.3220
  137OSM   C12S14830   1.429   3.908   3.045 -0.3219  0.1308 -0.5703
  137OSM   H12S14831   1.539   3.919   3.037 -0.4266  0.9329 -1.0218
  137OSM   H12T14832   1.402   3.811   3.092 -1.7111  1.2988  1.1297
  137OSM   C13S14833   1.395   4.020   3.143  0.4045  0.0856 -0.2462
  137OSM   H13S14834   1.286   4.031   3.163  0.3649 -0.1608 -0.3217
  137OSM   H13T14835   1.431   4.112   3.093 -1.5538 -0.2224 -2.4132
  137OSM   C14S14836   1.457   3.987   3.284 -0.0841 -0.3044  0.0349
  137OSM   H14S14837   1.565   3.969   3.265 -0.1276 -0.5564  0.0309
  137OSM   H14T14838   1.410   3.904   3.340 -1.0909  0.7564  0.8109
  137OSM   C15S14839   1.447   4.108   3.377 -0.2565  0.2545 -0.3436
  137OSM   H15S14840   1.339   4.127   3.394 -0.4255  0.0702 -1.2004
  137OSM   H15T14841   1.482   4.198   3.322 -2.1389  1.3305  0.1275
  137OSM   C16S14842   1.516   4.097   3.518 -0.0364 -0.1441  0.0132
  137OSM   H16S14843   1.546   4.199   3.552  0.5061 -1.1950  2.9518
  137OSM   H16T14844   1.614   4.048   3.502  0.0696 -0.3326  1.1640
  137OSM   C17S14845   1.441   4.031   3.638  0.2227 -0.2342  0.0351
  137OSM   H17S14846   1.423   3.930   3.597 -1.6690  0.2090 -0.3359
  137OSM   H17T14847   1.344   4.085   3.645  1.0004  1.2040  0.0093
  137OSM   C18S14848   1.510   4.030   3.781  0.3035 -0.1720 -0.7164
  137OSM   H18S14849   1.443   3.978   3.852  0.5652  2.1946  1.4277
  137OSM   H18T14850   1.539   4.132   3.813  1.4324 -0.5852 -0.3899
  137OSM   H18U14851   1.610   3.982   3.786 -0.3863 -1.5537  0.2292
  137OSM    C1F14852   1.091   3.804   1.870  0.1378 -0.0873 -1.0082
  137OSM     OF14853   1.075   3.901   1.793  0.6109  1.0602 -0.0183
  137OSM    C2F14854   1.214   3.713   1.875 -0.2882  0.1460  0.0254
  137OSM    H2F14855   1.252   3.708   1.770 -0.7800 -0.2566 -0.1380
  137OSM    H2G14856   1.182   3.612   1.907 -1.1271  0.5719  0.5334
  137OSM    C3F14857   1.327   3.755   1.971 -0.0066 -0.3640  0.7193
  137OSM    H3F14858   1.282   3.776   2.070  1.2471 -0.6247  1.3708
  137OSM    H3G14859   1.374   3.851   1.940  2.9201 -2.9297 -4.0420
  137OSM    C4F14860   1.434   3.641   1.971  0.0328  0.9820 -0.1861
  137OSM    H4F14861   1.476   3.630   1.869 -1.1192 -2.7426 -0.4185
  137OSM    H4G14862   1.374   3.551   1.995 -1.6548  1.7275 -1.3681
  137OSM    C5F14863   1.558   3.645   2.054 -0.4427 -0.0198 -0.3267
  137OSM    H5F14864   1.625   3.726   2.018  2.1565 -0.5611  2.8069
  137OSM    H5G14865   1.615   3.550   2.043  0.5138  0.5610 -0.4958
  137OSM    C6F14866   1.518   3.655   2.200 -0.0840 -0.0272 -0.1247
  137OSM    H6F14867   1.439   3.729   2.226  0.2572  0.0045  0.8719
  137OSM    H6G14868   1.599   3.693   2.265 -0.6934  1.0649  0.0200
  137OSM    C7F14869   1.463   3.523   2.266 -0.8190 -0.8769  0.0560
  137OSM    H7F14870   1.538   3.442   2.250  3.0428  2.5100 -0.8995
  137OSM    H7G14871   1.364   3.505   2.219 -0.9815  2.6516 -1.2706
  137OSM    C8F14872   1.445   3.540   2.416 -0.8756  0.4699  0.0886
  137OSM    H8F14873   1.396   3.638   2.437  1.6528  1.6170  1.1045
  137OSM    H8G14874   1.546   3.544   2.463 -0.4364 -1.0160 -0.6797
  137OSM    C9F14875   1.359   3.425   2.470  0.7551  0.1052  0.7956
  137OSM    H9F14876   1.277   3.395   2.403  0.3788  0.5496  1.0488
  137OSM   C10F14877   1.373   3.358   2.581  0.1914 -0.0133 -0.5925
  137OSM   H10F14878   1.295   3.286   2.609 -0.8588  1.1967 -0.3219
  137OSM   C11F14879   1.483   3.368   2.684 -0.1430  0.3679 -0.3527
  137OSM   H11F14880   1.572   3.430   2.662 -0.0228  0.9316  1.5497
  137OSM   H11G14881   1.525   3.270   2.715  2.1633  1.2336 -0.5319
  137OSM   C12F14882   1.403   3.432   2.800  0.4884 -0.0795  0.2161
  137OSM   H12F14883   1.319   3.372   2.841  0.1766  0.0541 -0.2283
  137OSM   H12G14884   1.350   3.522   2.762  2.4979  1.2090  0.3106
  137OSM   C13F14885   1.489   3.473   2.918  0.1995 -0.8184 -0.5462
  137OSM   H13F14886   1.450   3.575   2.937 -1.9063 -1.8681  1.2320
  137OSM   H13G14887   1.596   3.484   2.891  1.0726 -1.5151  2.3410
  137OSM   C14F14888   1.473   3.385   3.040  0.8290  0.0096 -0.2056
  137OSM   H14F14889   1.526   3.289   3.019 -1.2618 -1.2342 -0.0934
  137OSM   H14G14890   1.363   3.372   3.049  0.8392 -0.0586 -0.1782
  137OSM   C15F14891   1.537   3.452   3.158 -0.1271 -0.1142  0.2274
  137OSM   H15F14892   1.611   3.530   3.130 -2.3674  2.0325 -0.0415
  137OSM   H15G14893   1.570   3.377   3.233 -2.3809 -0.4917  0.9098
  137OSM   C16F14894   1.425   3.529   3.239 -0.0634  0.2732 -0.2490
  137OSM   H16F14895   1.346   3.452   3.254 -1.3726  1.4358 -0.9704
  137OSM   H16G14896   1.373   3.610   3.184  0.1116 -0.2559 -1.1985
  137OSM   C17F14897   1.467   3.583   3.374 -0.1836 -0.2263 -0.6256
  137OSM   H17F14898   1.544   3.661   3.355 -1.1212  0.7327 -0.5840
  137OSM   H17G14899   1.516   3.507   3.439 -1.4414 -0.8027 -0.3231
  137OSM   C18F14900   1.353   3.637   3.464  0.8065  0.6151 -0.2446
  137OSM   H18F14901   1.287   3.549   3.478  2.9866 -1.5773 -2.7261
  137OSM   H18G14902   1.311   3.724   3.409 -1.1264  1.3809  2.2437
  137OSM   H18H14903   1.380   3.678   3.564 -1.8909  1.5904  0.1885
  138OSM      N14904   5.934   1.206   1.406 -0.0891  0.7258  0.1671
  138OSM    C1514905   5.992   1.343   1.367  0.0375  1.3812 -0.6226
  138OSM   H15A14906   5.954   1.422   1.430 -0.2675 -0.1884  1.2692
  138OSM   H15B14907   5.955   1.373   1.270 -2.4024  4.1242  1.0076
  138OSM   H15C14908   6.099   1.342   1.382 -0.2379  1.0899  1.6382
  138OSM    C1414909   5.786   1.197   1.399 -0.4789  0.0894 -0.0396
  138OSM   H14A14910   5.742   1.269   1.467 -1.2214  1.4708 -1.8694
  138OSM   H14B14911   5.745   1.107   1.442 -0.2922  0.7650  1.6192
  138OSM   H14C14912   5.765   1.216   1.294  2.6123 -0.2713 -0.8305
  138OSM    C1314913   5.999   1.103   1.317  0.2594  0.6913  0.1470
  138OSM   H13A14914   6.097   1.124   1.276  1.7655 -2.2701  1.8449
  138OSM   H13B14915   5.934   1.106   1.231  0.8400 -0.3777 -0.3433
  138OSM   H13C14916   5.994   1.002   1.354  2.1263  0.9682  1.2843
  138OSM    C1214917   5.981   1.167   1.553 -0.1655  0.3529  0.1871
  138OSM   H12A14918   6.089   1.156   1.559 -0.1344  0.2495 -0.4503
  138OSM   H12B14919   5.938   1.074   1.585  0.3923 -0.4362 -1.2486
  138OSM    C1114920   5.933   1.278   1.654 -0.0809  0.3855 -0.3832
  138OSM   H11A14921   5.982   1.373   1.627 -0.6894  1.9658  3.4320
  138OSM   H11B14922   5.972   1.246   1.754 -0.3030  2.1346  0.2860
  138OSM      P14923   5.721   1.410   1.741 -0.3865 -0.2288  0.0457
  138OSM    O1314924   5.772   1.532   1.667  0.2348  0.1140  0.7617
  138OSM    O1414925   5.578   1.393   1.754  0.3366 -0.3308  0.4918
  138OSM    O1114926   5.789   1.404   1.884 -0.0221  0.4029  0.6814
  138OSM    O1214927   5.793   1.283   1.672 -0.1652 -0.8827 -0.0566
  138OSM    C1S14928   5.771   1.297   1.977 -0.3582 -0.2681 -0.1086
  138OSM    H1S14929   5.847   1.217   1.971 -0.9219 -0.9209  1.0535
  138OSM    H1T14930   5.670   1.251   1.981 -1.8168  2.5505 -1.2808
  138OSM     NF14931   5.799   1.226   2.217  0.6797 -0.0783  0.1230
  138OSM    HNF14932   5.714   1.197   2.259  0.6481 -0.4468 -0.1780
  138OSM    C2S14933   5.788   1.342   2.128 -0.0357  0.1025  0.5559
  138OSM    H2S14934   5.884   1.398   2.137  0.8958 -1.5102  1.0928
  138OSM    C3S14935   5.675   1.439   2.171  0.0518  0.2672 -0.3024
  138OSM    H3S14936   5.590   1.367   2.166 -0.1199  0.4938 -0.6404
  138OSM     O314937   5.646   1.545   2.080 -0.8048 -0.0841 -0.0008
  138OSM    HO314938   5.667   1.506   1.996  0.0838  1.2056 -0.4053
  138OSM    C4S14939   5.681   1.479   2.314 -0.8110 -0.0612 -0.0045
  138OSM    H4S14940   5.629   1.409   2.382 -1.5873  0.2191 -0.2901
  138OSM    C5S14941   5.740   1.593   2.363  0.6440  0.0472 -0.1483
  138OSM    H5S14942   5.773   1.666   2.287  2.9492 -0.6871  0.0868
  138OSM    C6S14943   5.747   1.639   2.507  0.0810  0.2458 -0.2376
  138OSM    H6S14944   5.667   1.713   2.529  0.9240  0.6279  1.7209
  138OSM    H6T14945   5.844   1.692   2.519  0.7576 -1.2870  1.4522
  138OSM    C7S14946   5.753   1.528   2.623 -0.2172  0.5502 -0.2715
  138OSM    H7S14947   5.839   1.460   2.601 -1.0767 -0.1051 -1.7530
  138OSM    H7T14948   5.666   1.460   2.633 -0.9941  1.7306  1.5557
  138OSM    C8S14949   5.777   1.611   2.753 -0.2069  0.2738 -0.4608
  138OSM    H8S14950   5.681   1.660   2.779 -0.1133  0.9967 -1.4370
  138OSM    H8T14951   5.843   1.698   2.734 -3.0041  2.7380  0.4133
  138OSM    C9S14952   5.831   1.538   2.877  0.0195 -0.7611  0.2246
  138OSM    H9S14953   5.853   1.608   2.961  1.9414 -0.2317 -0.6678
  138OSM    H9T14954   5.936   1.510   2.858  1.1652  2.5507  0.8715
  138OSM   C10S14955   5.741   1.441   2.947 -0.0250  0.2515  0.1358
  138OSM   H10S14956   5.779   1.394   3.041 -1.9148 -0.6196  0.5133
  138OSM   H10T14957   5.728   1.356   2.876  2.5413 -0.6282  0.6076
  138OSM   C11S14958   5.604   1.500   2.983  0.1660  0.2710 -0.0798
  138OSM   H11S14959   5.556   1.529   2.887  1.7523  0.6081 -0.7945
  138OSM   H11T14960   5.619   1.596   3.037 -1.0189  0.4322 -0.0065
  138OSM   C12S14961   5.507   1.407   3.056  0.3634 -0.7035 -0.2510
  138OSM   H12S14962   5.501   1.312   2.997  2.0891  0.3460 -2.2644
  138OSM   H12T14963   5.416   1.470   3.056  0.8235 -0.0174 -0.9269
  138OSM   C13S14964   5.551   1.369   3.195  0.2650 -0.0257 -0.1752
  138OSM   H13S14965   5.547   1.459   3.260 -0.3763  0.6567 -1.1346
  138OSM   H13T14966   5.656   1.335   3.194  0.5411  0.7146 -2.7049
  138OSM   C14S14967   5.458   1.268   3.263  0.1760 -0.4038 -0.4702
  138OSM   H14S14968   5.471   1.164   3.226 -0.1851 -0.2764 -0.9631
  138OSM   H14T14969   5.352   1.291   3.241 -0.7382 -1.9326  1.9942
  138OSM   C15S14970   5.476   1.261   3.416 -0.4212 -0.4183  0.4311
  138OSM   H15S14971   5.394   1.313   3.471 -0.9644 -1.6723  0.8300
  138OSM   H15T14972   5.577   1.301   3.443 -0.6874  0.3135  0.3695
  138OSM   C16S14973   5.474   1.113   3.467  0.6504  0.8495 -0.4984
  138OSM   H16S14974   5.495   1.111   3.576 -0.8365 -1.4150 -0.1878
  138OSM   H16T14975   5.544   1.052   3.406 -0.1828  0.4677 -1.0834
  138OSM   C17S14976   5.343   1.033   3.450  0.2296  0.3743  0.0226
  138OSM   H17S14977   5.298   1.035   3.348 -1.7969 -1.0981  0.8176
  138OSM   H17T14978   5.271   1.086   3.517  1.7165  1.8456  0.5218
  138OSM   C18S14979   5.352   0.883   3.479  0.7005 -0.7420 -0.2452
  138OSM   H18S14980   5.259   0.836   3.441  1.0421 -1.4130 -0.2503
  138OSM   H18T14981   5.359   0.845   3.583  3.0686 -1.5177 -0.6338
  138OSM   H18U14982   5.430   0.829   3.422  0.2809 -2.1514  0.4880
  138OSM    C1F14983   5.899   1.139   2.219  0.1462 -0.0137  0.1613
  138OSM     OF14984   6.013   1.177   2.183  0.6786  0.5292  0.2795
  138OSM    C2F14985   5.872   1.000   2.258 -0.3519  0.0658  0.5031
  138OSM    H2F14986   5.821   0.963   2.167  0.5692  0.9105 -0.3635
  138OSM    H2G14987   5.798   0.993   2.342  0.4303 -1.7646  1.0967
  138OSM    C3F14988   5.995   0.912   2.278 -0.3478 -0.0042 -0.3296
  138OSM    H3F14989   6.055   0.901   2.185  1.4676 -0.5934  0.8642
  138OSM    H3G14990   5.955   0.812   2.304 -1.5794  0.3653 -0.7342
  138OSM    C4F14991   6.083   0.952   2.396  0.2428  0.4253  0.5044
  138OSM    H4F14992   6.125   1.052   2.373  1.6401  0.2676  2.1419
  138OSM    H4G14993   6.166   0.878   2.401 -1.6154 -1.8318 -0.1152
  138OSM    C5F14994   6.021   0.952   2.533 -0.6102 -0.2571 -0.1519
  138OSM    H5F14995   6.000   0.846   2.558  1.7497 -0.6255  0.4726
  138OSM    H5G14996   5.923   1.005   2.533 -1.3688 -1.5290  2.2361
  138OSM    C6F14997   6.113   1.007   2.645 -0.2515 -0.3637  0.1354
  138OSM    H6F14998   6.210   0.954   2.649 -0.8619 -1.9023 -2.8472
  138OSM    H6G14999   6.060   0.977   2.738 -0.6741  1.9863  0.7147
  138OSM    C7F15000   6.117   1.162   2.657 -0.6519 -0.4570 -0.3024
  138OSM    H7F15001   6.040   1.225   2.607  1.5419  1.5009 -1.4041
  138OSM    H7G15002   6.206   1.202   2.605 -0.1693 -1.7089 -0.4891
  138OSM    C8F15003   6.107   1.211   2.802  0.3143 -0.2368 -0.5979
  138OSM    H8F15004   6.010   1.174   2.841  0.3078  0.6175  0.2444
  138OSM    H8G15005   6.090   1.320   2.786  0.0868 -0.5739 -3.1234
  138OSM    C9F15006   6.212   1.151   2.895 -0.6726 -0.3011  0.0257
  138OSM    H9F15007   6.316   1.172   2.865 -1.2516  1.6521 -0.7715
  138OSM   C10F15008   6.198   1.093   3.009 -0.5040 -0.3570 -0.2903
  138OSM   H10F15009   6.291   1.059   3.056 -0.1671  1.7407  0.6711
  138OSM   C11F15010   6.075   1.062   3.086  0.1295 -0.1167  0.0144
  138OSM   H11F15011   6.066   0.954   3.108  0.2460 -0.0833  0.2256
  138OSM   H11G15012   5.983   1.092   3.031  0.8657 -0.6931 -1.5788
  138OSM   C12F15013   6.066   1.142   3.222 -0.1305 -0.0706  0.4670
  138OSM   H12F15014   6.046   1.251   3.211 -0.0917 -0.1289 -0.2186
  138OSM   H12G15015   6.164   1.144   3.273  0.7805  1.3384 -1.2277
  138OSM   C13F15016   5.967   1.062   3.305  0.1847  0.2569  0.2339
  138OSM   H13F15017   6.018   0.965   3.321 -1.4711 -0.2480  3.3962
  138OSM   H13G15018   5.872   1.040   3.251 -0.8143  3.1324  0.6369
  138OSM   C14F15019   5.932   1.126   3.445  1.0068 -0.0078 -0.3096
  138OSM   H14F15020   5.887   1.225   3.422  2.5448  0.1379 -3.1354
  138OSM   H14G15021   6.026   1.145   3.502  0.2866 -2.1939  1.7979
  138OSM   C15F15022   5.847   1.041   3.543  0.3349  0.2015  0.3577
  138OSM   H15F15023   5.742   1.050   3.506  1.0896 -1.6398 -2.4562
  138OSM   H15G15024   5.859   1.095   3.640  1.2626  0.4285  0.1204
  138OSM   C16F15025   5.894   0.896   3.552  0.0011  0.0589 -0.4139
  138OSM   H16F15026   6.001   0.891   3.581  0.3128 -0.9551 -1.6345
  138OSM   H16G15027   5.889   0.847   3.452  2.1586  0.4477 -0.7554
  138OSM   C17F15028   5.808   0.814   3.642 -0.4921  0.1657 -0.2285
  138OSM   H17F15029   5.704   0.813   3.601 -1.0735 -2.0119  1.1256
  138OSM   H17G15030   5.802   0.857   3.744  0.7511 -2.2189  0.9416
  138OSM   C18F15031   5.845   0.669   3.657  0.4378 -0.6481  0.7542
  138OSM   H18F15032   5.770   0.605   3.709 -0.8129 -1.9030 -2.3366
  138OSM   H18G15033   5.945   0.656   3.704  1.1774 -2.7693 -1.2293
  138OSM   H18H15034   5.866   0.624   3.558 -2.0902 -1.1041  0.3407
  139OSM      N15035   7.016   3.311   1.805 -0.9287  0.0377  0.4747
  139OSM    C1515036   6.900   3.260   1.882 -0.0286  0.1699  0.5734
  139OSM   H15A15037   6.831   3.213   1.813  1.6783  0.1398 -1.2185
  139OSM   H15B15038   6.840   3.346   1.910 -0.4844 -0.0370  0.2507
  139OSM   H15C15039   6.936   3.193   1.958  1.1636 -1.1630 -1.0787
  139OSM    C1415040   7.106   3.195   1.776  0.5945 -0.4770 -0.6695
  139OSM   H14A15041   7.142   3.155   1.869 -0.3295  1.2632  0.4857
  139OSM   H14B15042   7.195   3.217   1.718  1.6629 -0.6796  0.8473
  139OSM   H14C15043   7.045   3.116   1.736  0.1670 -0.1129 -0.7485
  139OSM    C1315044   6.969   3.365   1.671 -0.7052  0.0427  0.2148
  139OSM   H13A15045   6.926   3.298   1.598  2.4718  0.7250 -2.5413
  139OSM   H13B15046   7.054   3.407   1.619 -0.2436  1.7167  2.1824
  139OSM   H13C15047   6.899   3.445   1.691  1.3320  2.0152 -0.1418
  139OSM    C1215048   7.099   3.409   1.891  0.1989 -0.0401  0.5545
  139OSM   H12A15049   7.043   3.496   1.924  2.1134  1.2235  0.6267
  139OSM   H12B15050   7.194   3.425   1.843 -0.6531  0.7806 -0.9397
  139OSM    C1115051   7.164   3.368   2.029 -0.3342  0.7366 -0.1104
  139OSM   H11A15052   7.080   3.320   2.084  0.3427  1.4505  1.6290
  139OSM   H11B15053   7.197   3.458   2.086  1.8583  1.2199 -1.9782
  139OSM      P15054   7.416   3.321   1.997 -0.0127 -0.2577  0.0484
  139OSM    O1315055   7.507   3.205   1.953 -0.5339 -0.7941 -0.7203
  139OSM    O1415056   7.417   3.445   1.918  0.3361 -0.2957  0.1946
  139OSM    O1115057   7.454   3.358   2.142 -0.0518  0.4084  0.8222
  139OSM    O1215058   7.264   3.273   2.014 -0.3041  0.2422 -0.0785
  139OSM    C1S15059   7.446   3.257   2.243 -0.4748  0.2104  0.6258
  139OSM    H1S15060   7.520   3.176   2.231 -1.1587 -0.7713  2.6967
  139OSM    H1T15061   7.345   3.215   2.263 -1.5949  2.9612  1.3267
  139OSM     NF15062   7.508   3.220   2.481  0.3242  0.8646 -0.4657
  139OSM    HNF15063   7.432   3.206   2.545  1.5065 -1.0635  0.6235
  139OSM    C2S15064   7.478   3.316   2.381 -0.2793 -0.6156 -0.0525
  139OSM    H2S15065   7.575   3.370   2.368 -0.2162 -0.1584  1.9625
  139OSM    C3S15066   7.375   3.418   2.430  0.4811 -0.0049 -0.8759
  139OSM    H3S15067   7.291   3.349   2.453  3.5546 -3.8944 -0.2634
  139OSM     O315068   7.335   3.510   2.331  0.3157 -0.4629 -0.0030
  139OSM    HO315069   7.348   3.457   2.252  1.5578  0.1072 -0.2080
  139OSM    C4S15070   7.412   3.491   2.554  0.4654  0.5599  0.5616
  139OSM    H4S15071   7.382   3.447   2.650  0.4390  0.3268  0.4475
  139OSM    C5S15072   7.488   3.597   2.560  0.2337 -0.2980  0.6410
  139OSM    H5S15073   7.524   3.644   2.467 -1.3792 -2.6379 -1.3014
  139OSM    C6S15074   7.544   3.662   2.690  0.4650  0.3859  0.5725
  139OSM    H6S15075   7.654   3.664   2.679  0.5734  2.3179  1.6798
  139OSM    H6T15076   7.512   3.614   2.785 -1.0739  0.6657  0.2284
  139OSM    C7S15077   7.522   3.816   2.703  0.6163  0.3605  0.0190
  139OSM    H7S15078   7.555   3.844   2.805 -0.3480 -1.2619  0.8171
  139OSM    H7T15079   7.411   3.818   2.706  0.6371  0.5994  1.2026
  139OSM    C8S15080   7.584   3.905   2.594 -0.5122 -0.6668  0.6868
  139OSM    H8S15081   7.541   4.007   2.605 -0.7048 -0.6967  0.2363
  139OSM    H8T15082   7.549   3.874   2.493 -0.3948  2.6474 -0.5050
  139OSM    C9S15083   7.739   3.903   2.580  0.8874  0.1983 -0.1324
  139OSM    H9S15084   7.771   3.975   2.501 -0.5857  2.0606  0.8736
  139OSM    H9T15085   7.756   3.797   2.552 -0.2556 -0.1072  0.2478
  139OSM   C10S15086   7.816   3.946   2.700  0.4716 -0.5463 -0.0205
  139OSM   H10S15087   7.780   3.887   2.787  3.3931 -0.1771  1.5526
  139OSM   H10T15088   7.812   4.054   2.724  1.8862 -0.4502 -0.1358
  139OSM   C11S15089   7.961   3.908   2.673  0.3549 -0.7101  0.4307
  139OSM   H11S15090   7.991   3.961   2.580  1.3567  0.9043  1.6194
  139OSM   H11T15091   7.971   3.799   2.657  1.9152 -0.5361  0.0482
  139OSM   C12S15092   8.053   3.969   2.784 -0.2843 -0.0662  0.2228
  139OSM   H12S15093   8.155   3.931   2.758 -1.4526 -3.2572 -0.1732
  139OSM   H12T15094   8.024   3.915   2.877  1.3737 -3.2328 -0.9457
  139OSM   C13S15095   8.070   4.120   2.783 -0.6258 -0.3129 -0.3345
  139OSM   H13S15096   7.969   4.165   2.793 -1.6065 -2.5966  0.7773
  139OSM   H13T15097   8.098   4.151   2.679 -2.6091 -0.5411 -0.9726
  139OSM   C14S15098   8.182   4.185   2.879  0.4025 -0.4050  0.0009
  139OSM   H14S15099   8.213   4.284   2.840  1.3441 -0.9608 -0.7155
  139OSM   H14T15100   8.272   4.120   2.883  0.7621  0.1698  1.6518
  139OSM   C15S15101   8.136   4.198   3.022 -0.1325  0.0964 -0.0956
  139OSM   H15S15102   8.122   4.098   3.070 -0.1372  0.1045 -0.0805
  139OSM   H15T15103   8.032   4.238   3.017  0.4936  2.0973  1.6069
  139OSM   C16S15104   8.223   4.281   3.116  0.0631  0.2858 -0.6322
  139OSM   H16S15105   8.227   4.383   3.073 -0.7888  0.2514 -0.8007
  139OSM   H16T15106   8.329   4.248   3.114 -0.5824 -2.3168  1.9160
  139OSM   C17S15107   8.189   4.271   3.270 -0.6663  0.3606  0.3557
  139OSM   H17S15108   8.201   4.164   3.296  0.7602  0.0140 -1.4768
  139OSM   H17T15109   8.082   4.297   3.284 -0.6818 -0.6214  2.2931
  139OSM   C18S15110   8.283   4.364   3.358  0.5925 -0.2018 -0.7392
  139OSM   H18S15111   8.266   4.469   3.325  2.0308  0.5021  0.6696
  139OSM   H18T15112   8.388   4.333   3.342  0.0401 -1.4541 -2.3266
  139OSM   H18U15113   8.247   4.354   3.463 -0.0721  0.3882 -0.9031
  139OSM    C1F15114   7.610   3.127   2.471  0.9498 -0.2037  0.8410
  139OSM     OF15115   7.707   3.152   2.403  0.6640  0.0303  0.3380
  139OSM    C2F15116   7.600   2.995   2.557  0.4827 -0.2298  0.1895
  139OSM    H2F15117   7.523   2.927   2.513 -0.8013  0.4559  1.3134
  139OSM    H2G15118   7.568   3.030   2.657  0.3836  2.3692 -0.6646
  139OSM    C3F15119   7.736   2.927   2.546 -0.1241  1.1059 -0.5371
  139OSM    H3F15120   7.816   2.984   2.598  0.6501  0.0542 -0.5445
  139OSM    H3G15121   7.777   2.912   2.444  0.3555  0.1796 -0.2184
  139OSM    C4F15122   7.732   2.788   2.621  0.2539 -0.5185  0.3454
  139OSM    H4F15123   7.835   2.747   2.611  0.2129 -0.6422  0.4239
  139OSM    H4G15124   7.676   2.726   2.548 -1.3189  1.8691 -0.6029
  139OSM    C5F15125   7.672   2.787   2.760  0.5626 -0.1755 -0.7699
  139OSM    H5F15126   7.659   2.680   2.786  0.1566  0.0376 -0.0674
  139OSM    H5G15127   7.576   2.842   2.751  1.2240  0.8756 -1.7102
  139OSM    C6F15128   7.757   2.862   2.863  0.7569 -0.3222  0.1616
  139OSM    H6F15129   7.726   2.968   2.870  0.1170 -0.3770 -1.4002
  139OSM    H6G15130   7.861   2.865   2.822  0.2365  1.0948 -1.1482
  139OSM    C7F15131   7.755   2.803   3.003  0.4330 -0.0054 -0.4077
  139OSM    H7F15132   7.754   2.692   3.002 -2.6554 -0.0510 -1.9386
  139OSM    H7G15133   7.657   2.846   3.033  0.1978 -0.5369 -0.4182
  139OSM    C8F15134   7.868   2.845   3.106  0.7729 -0.2279 -0.5454
  139OSM    H8F15135   7.855   2.950   3.139  1.7662 -0.2718  0.0043
  139OSM    H8G15136   7.951   2.835   3.033 -0.8536  3.0625 -3.1352
  139OSM    C9F15137   7.878   2.750   3.230 -0.2301  0.3138 -0.4930
  139OSM    H9F15138   7.937   2.658   3.219  0.5021  0.5483  1.1433
  139OSM   C10F15139   7.830   2.776   3.353 -0.6092  0.4511  0.7696
  139OSM   H10F15140   7.840   2.697   3.429  0.8893  1.0920  1.2960
  139OSM   C11F15141   7.751   2.894   3.385  0.6172  0.0578 -0.2597
  139OSM   H11F15142   7.681   2.872   3.468  1.2974 -0.4150  0.1956
  139OSM   H11G15143   7.695   2.936   3.298  1.5559  1.2523 -0.3267
  139OSM   C12F15144   7.847   3.003   3.449  0.0799  0.8331  0.3423
  139OSM   H12F15145   7.918   3.035   3.369 -1.3267  1.4247 -0.7059
  139OSM   H12G15146   7.906   2.969   3.537  1.2663  0.6012 -0.5067
  139OSM   C13F15147   7.775   3.132   3.491 -0.0891  1.1477 -0.1611
  139OSM   H13F15148   7.707   3.174   3.415  0.2025  1.5394 -0.2092
  139OSM   H13G15149   7.860   3.200   3.513  1.4558  0.2970 -2.9750
  139OSM   C14F15150   7.703   3.112   3.629 -0.1159  0.0443 -0.1810
  139OSM   H14F15151   7.780   3.101   3.709  1.7903 -3.7363 -2.2432
  139OSM   H14G15152   7.647   3.018   3.613 -0.5795  0.5111 -1.3734
  139OSM   C15F15153   7.609   3.234   3.664 -0.4471 -0.5017 -0.3065
  139OSM   H15F15154   7.559   3.196   3.756 -0.5831  1.2453  0.3822
  139OSM   H15G15155   7.534   3.246   3.582 -0.7462 -0.6009 -0.0498
  139OSM   C16F15156   7.675   3.365   3.694 -0.1540 -0.1789 -0.2779
  139OSM   H16F15157   7.730   3.402   3.604  0.5980  1.8480  0.9441
  139OSM   H16G15158   7.745   3.368   3.780  0.2396  1.3350 -0.6078
  139OSM   C17F15159   7.577   3.475   3.737  0.3544  0.5144 -0.7193
  139OSM   H17F15160   7.523   3.435   3.826  1.2117  2.6575  0.8599
  139OSM   H17G15161   7.505   3.499   3.656  0.9080  2.1930 -0.7564
  139OSM   C18F15162   7.647   3.601   3.792 -0.1220 -0.0035 -0.2005
  139OSM   H18F15163   7.582   3.688   3.814  0.2362  0.0540  0.7024
  139OSM   H18G15164   7.730   3.625   3.722 -1.4702  1.3778 -1.3771
  139OSM   H18H15165   7.696   3.581   3.890  0.5115  0.3275 -0.4457
  140OSM      N15166   6.680   1.514   1.514 -0.1641 -0.5961  0.0554
  140OSM    C1515167   6.680   1.382   1.445 -0.5530 -0.0128 -0.2029
  140OSM   H15A15168   6.684   1.389   1.337  0.7068 -1.4528 -0.2792
  140OSM   H15B15169   6.583   1.340   1.467 -2.1482  1.2325 -3.9995
  140OSM   H15C15170   6.755   1.320   1.491 -0.5354  1.2407  1.5468
  140OSM    C1415171   6.811   1.581   1.493  0.0698  0.7474  0.1699
  140OSM   H14A15172   6.832   1.580   1.387  0.2777  3.6303  0.1127
  140OSM   H14B15173   6.892   1.536   1.549 -1.0306 -3.6091 -1.3633
  140OSM   H14C15174   6.806   1.686   1.520  0.3635  1.1470 -1.2364
  140OSM    C1315175   6.577   1.614   1.456 -0.5328  0.0427 -0.0141
  140OSM   H13A15176   6.476   1.580   1.474 -1.3384  0.3955 -3.1796
  140OSM   H13B15177   6.599   1.614   1.350  0.5821 -4.2862  0.0488
  140OSM   H13C15178   6.593   1.713   1.498 -0.8068  0.7079 -1.4062
  140OSM    C1215179   6.651   1.496   1.664 -0.5043 -0.1123 -0.8221
  140OSM   H12A15180   6.635   1.591   1.713  2.3459 -0.5194  1.1278
  140OSM   H12B15181   6.736   1.445   1.707 -0.1363  0.4102 -0.9202
  140OSM    C1115182   6.543   1.399   1.704  0.5444  0.2304  0.7220
  140OSM   H11A15183   6.539   1.386   1.814 -0.1539  0.9457  0.7955
  140OSM   H11B15184   6.575   1.301   1.665 -0.2130 -0.6246  2.1745
  140OSM      P15185   6.332   1.561   1.708 -0.3951 -0.1797 -0.2907
  140OSM    O1315186   6.428   1.662   1.760  0.0681 -1.0290  0.3328
  140OSM    O1415187   6.234   1.602   1.606 -0.7709  0.4462 -0.4496
  140OSM    O1115188   6.243   1.506   1.825 -0.0938  0.1163  0.2794
  140OSM    O1215189   6.412   1.437   1.656 -0.5091 -0.4307  0.8728
  140OSM    C1S15190   6.254   1.389   1.906  0.1314  0.4123  0.4900
  140OSM    H1S15191   6.333   1.322   1.864  1.0534  2.3418 -0.9887
  140OSM    H1T15192   6.158   1.335   1.903 -1.2875  2.8184 -2.3206
  140OSM     NF15193   6.306   1.294   2.127 -0.1767  0.2190  0.0457
  140OSM    HNF15194   6.220   1.256   2.161  0.3227  0.0221  1.1137
  140OSM    C2S15195   6.296   1.422   2.051  0.2163 -0.0378  0.2153
  140OSM    H2S15196   6.397   1.467   2.052  1.0569 -1.8512  0.0615
  140OSM    C3S15197   6.205   1.528   2.108 -0.0197 -0.6327 -0.0150
  140OSM    H3S15198   6.098   1.499   2.098 -0.5560  0.2877  2.3119
  140OSM     O315199   6.221   1.662   2.057  0.3884  0.3261 -0.0718
  140OSM    HO315200   6.277   1.638   1.983  1.4824  1.2877  0.4186
  140OSM    C4S15201   6.224   1.538   2.254 -0.5491  0.4983 -0.5557
  140OSM    H4S15202   6.325   1.563   2.289 -0.3469  1.2291 -1.6229
  140OSM    C5S15203   6.128   1.522   2.345  0.2525 -0.2022  0.0035
  140OSM    H5S15204   6.031   1.481   2.314  0.5512 -0.7191 -0.2713
  140OSM    C6S15205   6.134   1.538   2.492  0.8106  0.1002  0.2260
  140OSM    H6S15206   6.059   1.466   2.530 -0.5937  0.6697 -1.3122
  140OSM    H6T15207   6.097   1.638   2.520 -1.2682 -0.0432 -1.7522
  140OSM    C7S15208   6.274   1.516   2.557  0.7979 -0.0639 -0.8199
  140OSM    H7S15209   6.335   1.596   2.508  0.6800  1.6560  1.6323
  140OSM    H7T15210   6.326   1.423   2.527 -0.6511 -1.5794  1.0944
  140OSM    C8S15211   6.281   1.541   2.706 -0.0636  0.0947 -0.4840
  140OSM    H8S15212   6.238   1.446   2.745  0.4301 -0.8444 -2.1056
  140OSM    H8T15213   6.208   1.621   2.728  1.0607  1.0614 -0.1794
  140OSM    C9S15214   6.421   1.579   2.752  0.3248  0.7421  0.4840
  140OSM    H9S15215   6.462   1.651   2.678 -0.7796  0.2076 -0.7039
  140OSM    H9T15216   6.488   1.489   2.753 -1.8260 -1.1844  5.5568
  140OSM   C10S15217   6.412   1.626   2.895  0.3332 -0.2648 -0.1321
  140OSM   H10S15218   6.318   1.682   2.915  0.8473 -0.0240  1.8567
  140OSM   H10T15219   6.500   1.691   2.909  1.6103 -1.6106 -1.5851
  140OSM   C11S15220   6.421   1.501   2.992 -0.1216 -0.4494 -0.1189
  140OSM   H11S15221   6.516   1.450   2.967  2.2340  3.7029 -0.5136
  140OSM   H11T15222   6.331   1.440   2.965  0.0579 -0.2198 -1.2870
  140OSM   C12S15223   6.425   1.534   3.143 -0.2077 -0.8931 -0.1358
  140OSM   H12S15224   6.363   1.626   3.154  1.2057  0.0093  0.6581
  140OSM   H12T15225   6.529   1.561   3.171 -0.3137 -0.7029  0.0806
  140OSM   C13S15226   6.363   1.431   3.239 -0.1077  0.2436  0.5839
  140OSM   H13S15227   6.416   1.337   3.212 -0.6294  0.7028 -2.4692
  140OSM   H13T15228   6.258   1.404   3.213  0.3665 -3.0730  1.6095
  140OSM   C14S15229   6.363   1.459   3.385  0.8524  0.4628  0.1802
  140OSM   H14S15230   6.331   1.371   3.444  0.8847 -0.1223 -0.6650
  140OSM   H14T15231   6.287   1.540   3.400  2.3355  2.1529 -0.9747
  140OSM   C15S15232   6.497   1.503   3.443  0.5393 -0.5617 -0.0354
  140OSM   H15S15233   6.523   1.602   3.402 -1.8133 -0.3338 -1.1575
  140OSM   H15T15234   6.568   1.424   3.411 -1.3179 -1.6434 -1.7581
  140OSM   C16S15235   6.492   1.515   3.591  0.0439  0.4166 -0.9269
  140OSM   H16S15236   6.595   1.539   3.626 -0.4366  0.6047  0.4059
  140OSM   H16T15237   6.470   1.419   3.643 -0.5224  1.1099  0.1480
  140OSM   C17S15238   6.387   1.620   3.642 -0.4570  0.4955  0.0919
  140OSM   H17S15239   6.281   1.591   3.627 -1.1075  3.5361 -2.2938
  140OSM   H17T15240   6.404   1.700   3.566  0.1530  0.2282 -0.0583
  140OSM   C18S15241   6.408   1.675   3.784  0.5977 -0.4852  0.0707
  140OSM   H18S15242   6.337   1.755   3.811  1.0192 -0.9299  2.7147
  140OSM   H18T15243   6.512   1.710   3.801  0.2671  1.8411 -2.0427
  140OSM   H18U15244   6.394   1.602   3.866 -2.1237  0.0166  0.1278
  140OSM    C1F15245   6.401   1.210   2.104 -0.4700  0.2234 -0.4347
  140OSM     OF15246   6.493   1.253   2.042 -0.3296  0.0203 -0.4453
  140OSM    C2F15247   6.389   1.065   2.153  0.7250  0.2057 -0.2958
  140OSM    H2F15248   6.417   0.985   2.082 -1.6210 -2.1081  1.1760
  140OSM    H2G15249   6.286   1.042   2.189  0.6478 -0.0245 -0.6599
  140OSM    C3F15250   6.497   1.039   2.262 -0.1992  0.6496 -0.1595
  140OSM    H3F15251   6.603   1.047   2.230  0.2520  0.9789  1.3510
  140OSM    H3G15252   6.477   0.937   2.301 -0.6479  1.7001  2.5591
  140OSM    C4F15253   6.479   1.132   2.377  0.5572 -0.9505 -0.2006
  140OSM    H4F15254   6.370   1.155   2.384  1.0895  1.9718 -0.0165
  140OSM    H4G15255   6.525   1.230   2.353 -1.1716 -0.2769 -0.9446
  140OSM    C5F15256   6.537   1.075   2.502 -0.0461 -0.4297  0.8357
  140OSM    H5F15257   6.645   1.055   2.484  0.7892  3.2262  1.0383
  140OSM    H5G15258   6.480   0.982   2.524  0.7622 -0.8503  1.2261
  140OSM    C6F15259   6.525   1.160   2.633  0.2030  0.6140  0.6781
  140OSM    H6F15260   6.424   1.206   2.638 -0.5672 -0.9387  0.1307
  140OSM    H6G15261   6.588   1.251   2.623  0.7337  0.0608 -1.6490
  140OSM    C7F15262   6.558   1.089   2.769  0.4685  0.1096 -0.0625
  140OSM    H7F15263   6.485   1.009   2.792  0.8620 -0.4701 -0.7879
  140OSM    H7G15264   6.541   1.156   2.856  0.0488  2.2352 -1.6983
  140OSM    C8F15265   6.699   1.018   2.764  0.1263 -0.0353  0.2597
  140OSM    H8F15266   6.720   0.973   2.665 -1.0231 -1.7465  0.7484
  140OSM    H8G15267   6.692   0.937   2.839  1.5364 -1.0935 -0.7094
  140OSM    C9F15268   6.806   1.123   2.802  0.7054  1.1124 -0.3015
  140OSM    H9F15269   6.838   1.196   2.726  3.0747 -1.3052 -1.7642
  140OSM   C10F15270   6.867   1.142   2.918  0.4124 -0.2659  0.2818
  140OSM   H10F15271   6.938   1.225   2.912  1.8440 -1.4943 -0.3224
  140OSM   C11F15272   6.838   1.074   3.055 -0.8763  0.2912  0.8862
  140OSM   H11F15273   6.937   1.040   3.093  0.1293  2.0207 -0.0836
  140OSM   H11G15274   6.775   0.983   3.043  0.5111 -0.5241 -0.6349
  140OSM   C12F15275   6.782   1.175   3.155 -0.0392  0.9495 -0.0020
  140OSM   H12F15276   6.769   1.122   3.251  1.0543 -0.6714 -0.7046
  140OSM   H12G15277   6.682   1.203   3.116  0.8941  3.6828 -0.6354
  140OSM   C13F15278   6.857   1.301   3.195  0.3092  0.3890  0.4406
  140OSM   H13F15279   6.809   1.389   3.149  1.1875  0.0342 -1.2652
  140OSM   H13G15280   6.954   1.298   3.140  0.8137  0.9327  1.2671
  140OSM   C14F15281   6.883   1.330   3.342 -0.4095  0.5005  0.2890
  140OSM   H14F15282   6.915   1.234   3.386 -2.4363 -0.2325  0.2878
  140OSM   H14G15283   6.794   1.368   3.398 -0.0073  1.3110  0.3943
  140OSM   C15F15284   6.997   1.431   3.357  0.1240  0.0301 -0.2349
  140OSM   H15F15285   6.981   1.508   3.279  0.2512 -0.4572 -0.7532
  140OSM   H15G15286   7.095   1.384   3.332  1.1366  1.8587  0.1019
  140OSM   C16F15287   6.998   1.513   3.487  0.1706 -0.3371 -0.1951
  140OSM   H16F15288   6.902   1.565   3.507  0.6634  1.1892 -1.6462
  140OSM   H16G15289   7.077   1.589   3.475 -0.0592 -0.4447 -2.9441
  140OSM   C17F15290   7.035   1.437   3.613 -0.2510  0.7104  0.0223
  140OSM   H17F15291   6.990   1.336   3.614  0.3346  0.4315 -0.8874
  140OSM   H17G15292   7.000   1.506   3.694 -3.2199  0.3889 -0.8708
  140OSM   C18F15293   7.185   1.408   3.635  0.1574 -0.2662 -0.6558
  140OSM   H18F15294   7.215   1.357   3.541 -1.8152 -3.0801  0.0771
  140OSM   H18G15295   7.204   1.354   3.731 -1.2900 -2.0939 -1.3199
  140OSM   H18H15296   7.244   1.501   3.640  0.9034 -0.7226 -0.8900
  141OSM      N15297   0.678   6.274   1.393 -0.3927 -0.4510  0.3833
  141OSM    C1515298   0.586   6.350   1.301 -0.3074  0.4413  0.1435
  141OSM   H15A15299   0.608   6.309   1.203  0.9484 -1.9462  1.3424
  141OSM   H15B15300   0.596   6.457   1.300 -0.9510  0.5139  0.9094
  141OSM   H15C15301   0.483   6.321   1.317 -0.0847 -0.0480  0.7326
  141OSM    C1415302   0.666   6.343   1.530  0.1640 -0.0625 -0.2619
  141OSM   H14A15303   0.725   6.283   1.597 -0.6827  0.2236  0.7636
  141OSM   H14B15304   0.565   6.330   1.567  0.0071  1.5716 -0.0235
  141OSM   H14C15305   0.701   6.445   1.529  0.9245 -0.3175 -0.5693
  141OSM    C1315306   0.632   6.137   1.404  0.7439  0.0296 -0.0735
  141OSM   H13A15307   0.633   6.082   1.311  0.3761  0.8261 -0.5544
  141OSM   H13B15308   0.534   6.139   1.449  0.9167  3.4218  0.4133
  141OSM   H13C15309   0.697   6.081   1.470 -0.4870  0.8413  1.9186
  141OSM    C1215310   0.818   6.285   1.336 -0.4065  0.0434 -0.1495
  141OSM   H12A15311   0.843   6.390   1.334  1.6938 -0.4122 -0.3242
  141OSM   H12B15312   0.818   6.253   1.233 -0.6285  1.3395 -0.5633
  141OSM    C1115313   0.941   6.218   1.410  0.0113 -0.3622 -0.3074
  141OSM   H11A15314   1.030   6.231   1.345 -0.3552 -3.2125 -1.5412
  141OSM   H11B15315   0.909   6.111   1.411 -0.2428 -0.3658 -2.7948
  141OSM      P15316   1.021   6.408   1.559  0.1721 -0.1102  0.4510
  141OSM    O1315317   1.160   6.382   1.589 -0.1526 -0.4997  0.2725
  141OSM    O1415318   0.990   6.496   1.442  0.7613  0.2804 -0.5817
  141OSM    O1115319   0.947   6.470   1.689 -0.4322 -0.5507 -0.2437
  141OSM    O1215320   0.961   6.267   1.537  0.2069 -0.5319 -0.1907
  141OSM    C1S15321   0.971   6.419   1.823 -0.0894  0.5961 -0.4041
  141OSM    H1S15322   1.081   6.415   1.834 -0.2465 -2.6468  1.3404
  141OSM    H1T15323   0.927   6.317   1.835 -1.0062  0.9855 -0.3683
  141OSM     NF15324   0.951   6.455   2.050  0.0466 -0.6465 -0.1065
  141OSM    HNF15325   0.884   6.394   2.092  1.7367 -0.7469  2.6835
  141OSM    C2S15326   0.907   6.506   1.928  0.3546 -0.3701  1.1036
  141OSM    H2S15327   0.950   6.608   1.919  1.6346 -1.0668 -1.9450
  141OSM    C3S15328   0.750   6.530   1.904  0.2950  0.2195  0.0042
  141OSM    H3S15329   0.699   6.433   1.887 -3.0859  1.7932  0.2510
  141OSM     O315330   0.723   6.602   1.782  0.4071  0.1796 -0.0703
  141OSM    HO315331   0.798   6.574   1.729  0.4917  0.7107 -0.2465
  141OSM    C4S15332   0.686   6.593   2.021  0.0069  0.1275 -0.3284
  141OSM    H4S15333   0.716   6.698   2.030 -1.5647  0.4483  2.0097
  141OSM    C5S15334   0.606   6.537   2.117 -0.3195  0.3051  0.4233
  141OSM    H5S15335   0.581   6.431   2.097 -1.6850  0.6387  0.3023
  141OSM    C6S15336   0.542   6.601   2.238 -0.7832 -0.4196 -0.0178
  141OSM    H6S15337   0.487   6.549   2.319  0.5248 -0.8326  0.6466
  141OSM    H6T15338   0.471   6.670   2.187  2.1799  1.8533 -1.3970
  141OSM    C7S15339   0.646   6.691   2.319  0.0061  0.2669  0.3636
  141OSM    H7S15340   0.584   6.740   2.397 -1.6180 -2.5643  1.0170
  141OSM    H7T15341   0.689   6.776   2.262  0.3133  0.5971  1.0791
  141OSM    C8S15342   0.756   6.607   2.386  0.7077  0.4896 -0.2312
  141OSM    H8S15343   0.816   6.548   2.313  3.0861  2.3238  0.1096
  141OSM    H8T15344   0.703   6.532   2.448 -0.8222 -1.0395 -3.1712
  141OSM    C9S15345   0.843   6.694   2.472  0.5098  0.0417  0.3245
  141OSM    H9S15346   0.786   6.772   2.527 -1.2398  0.0103 -1.3133
  141OSM    H9T15347   0.902   6.755   2.400 -1.2276  0.4978 -0.7850
  141OSM   C10S15348   0.938   6.613   2.559  0.6477 -0.2523 -0.1220
  141OSM   H10S15349   1.007   6.692   2.595 -0.0526  0.1766  0.3043
  141OSM   H10T15350   0.984   6.529   2.502 -0.5844  0.0954 -1.7295
  141OSM   C11S15351   0.866   6.562   2.688  0.1657 -0.4698  0.5447
  141OSM   H11S15352   0.816   6.466   2.663  1.4435 -1.2327  0.8248
  141OSM   H11T15353   0.795   6.637   2.729  1.4501  1.7803 -1.1075
  141OSM   C12S15354   0.958   6.552   2.812 -0.0055 -0.6626  0.3454
  141OSM   H12S15355   0.998   6.654   2.830  1.0835 -0.9349 -0.4789
  141OSM   H12T15356   1.038   6.483   2.778  0.7854  0.0581  0.7229
  141OSM   C13S15357   0.884   6.493   2.933 -0.3906 -0.0056 -0.4670
  141OSM   H13S15358   0.779   6.531   2.934 -0.1076  0.8168  0.7707
  141OSM   H13T15359   0.938   6.526   3.024 -0.0458  1.3734 -1.1410
  141OSM   C14S15360   0.881   6.337   2.937  1.1357 -0.1334  0.0671
  141OSM   H14S15361   0.983   6.311   2.904  0.2125 -0.8832 -2.4137
  141OSM   H14T15362   0.810   6.303   2.859 -1.5269 -1.6312  2.9270
  141OSM   C15S15363   0.844   6.279   3.077 -0.0799  0.2108  0.2952
  141OSM   H15S15364   0.917   6.319   3.151 -0.7710 -0.0817  1.1569
  141OSM   H15T15365   0.844   6.168   3.076  0.8978  0.0836 -4.0657
  141OSM   C16S15366   0.700   6.315   3.112 -0.1679 -0.4775  0.3262
  141OSM   H16S15367   0.631   6.302   3.026  0.2736 -1.7508  0.1383
  141OSM   H16T15368   0.706   6.423   3.135 -0.3597 -0.4247  0.1248
  141OSM   C17S15369   0.657   6.255   3.246  0.1036  0.1477 -1.1609
  141OSM   H17S15370   0.588   6.325   3.299  2.8645  1.3060  1.1763
  141OSM   H17T15371   0.744   6.262   3.315 -0.5509 -1.1271 -0.1533
  141OSM   C18S15372   0.591   6.117   3.245 -0.0112  0.6142  0.5326
  141OSM   H18S15373   0.595   6.081   3.350 -0.4072 -0.6792  0.1229
  141OSM   H18T15374   0.652   6.048   3.184 -2.1329 -0.8782 -0.0375
  141OSM   H18U15375   0.485   6.125   3.211  0.3477  0.9693 -0.5267
  141OSM    C1F15376   1.081   6.453   2.087 -0.5712 -0.5728  0.2985
  141OSM     OF15377   1.158   6.535   2.032 -0.1523  0.6223 -0.0430
  141OSM    C2F15378   1.125   6.339   2.172 -0.5563 -0.4740 -0.0537
  141OSM    H2F15379   1.151   6.244   2.119  0.5976 -0.8409  1.1156
  141OSM    H2G15380   1.040   6.313   2.238  0.8594 -1.8924  1.2903
  141OSM    C3F15381   1.240   6.385   2.256  0.0644  0.7140  0.7100
  141OSM    H3F15382   1.213   6.488   2.289 -0.6074  0.9182 -0.4114
  141OSM    H3G15383   1.329   6.385   2.190  0.6558 -1.4988  1.4152
  141OSM    C4F15384   1.253   6.286   2.372  0.6304 -0.2761  0.2222
  141OSM    H4F15385   1.228   6.181   2.345 -1.4121  0.5740 -1.4562
  141OSM    H4G15386   1.183   6.320   2.451  1.9226  0.4092  1.1174
  141OSM    C5F15387   1.401   6.296   2.423 -0.1716 -0.9494 -0.5159
  141OSM    H5F15388   1.462   6.244   2.347  1.3276 -2.7886  1.7960
  141OSM    H5G15389   1.399   6.240   2.519 -3.4397  1.0059  0.7565
  141OSM    C6F15390   1.446   6.436   2.467 -0.0147  0.2870  0.0085
  141OSM    H6F15391   1.448   6.497   2.374 -0.9374 -0.9199 -0.8309
  141OSM    H6G15392   1.549   6.430   2.509 -1.4420 -1.7050  3.6002
  141OSM    C7F15393   1.365   6.509   2.572  0.2660  0.2981 -1.2580
  141OSM    H7F15394   1.272   6.550   2.526  0.3016  0.7173 -0.9664
  141OSM    H7G15395   1.419   6.599   2.608 -0.8915  0.7445 -0.5544
  141OSM    C8F15396   1.331   6.428   2.700  0.1171  0.7543  0.1931
  141OSM    H8F15397   1.285   6.329   2.682 -0.6305  1.0118  0.6654
  141OSM    H8G15398   1.256   6.480   2.764  0.3675 -1.1325  2.1556
  141OSM    C9F15399   1.452   6.406   2.783 -0.2550  0.1143 -0.1633
  141OSM    H9F15400   1.548   6.393   2.730  0.3142  1.1169  0.5990
  141OSM   C10F15401   1.454   6.392   2.917  0.2719  0.3881  1.1810
  141OSM   H10F15402   1.555   6.370   2.957  0.6294 -3.1923 -1.2676
  141OSM   C11F15403   1.336   6.386   3.004  0.7333  0.6202  0.0200
  141OSM   H11F15404   1.255   6.332   2.952 -0.5693  1.4626  1.1187
  141OSM   H11G15405   1.297   6.483   3.042 -0.1142 -0.2739  1.5051
  141OSM   C12F15406   1.360   6.298   3.129 -0.0990 -0.1675 -0.2809
  141OSM   H12F15407   1.432   6.345   3.200 -0.5389 -1.0176  0.7597
  141OSM   H12G15408   1.404   6.200   3.100  4.3647  1.1476  1.2239
  141OSM   C13F15409   1.239   6.275   3.222  0.0708 -0.3108  0.1901
  141OSM   H13F15410   1.147   6.259   3.161  0.4487  1.2398 -0.8324
  141OSM   H13G15411   1.226   6.360   3.292  1.4816 -0.2376  0.3913
  141OSM   C14F15412   1.250   6.137   3.292 -0.8139 -0.0758  0.0478
  141OSM   H14F15413   1.348   6.137   3.345  1.4093  0.8784 -3.6822
  141OSM   H14G15414   1.256   6.059   3.214 -0.3006  0.9803 -0.9964
  141OSM   C15F15415   1.135   6.119   3.391 -0.3517  0.5427  0.4257
  141OSM   H15F15416   1.040   6.155   3.345 -1.6365  0.8601  3.1116
  141OSM   H15G15417   1.136   6.192   3.475 -1.6666 -0.9792  1.8376
  141OSM   C16F15418   1.117   5.978   3.447 -0.7493  0.5500 -0.6463
  141OSM   H16F15419   1.215   5.934   3.475 -1.9706 -2.4688 -0.6934
  141OSM   H16G15420   1.083   5.910   3.366  1.3480 -2.0568  0.5277
  141OSM   C17F15421   1.009   5.974   3.558 -0.1672  0.9068 -0.1871
  141OSM   H17F15422   0.912   5.958   3.505 -0.1760 -2.0022  0.5117
  141OSM   H17G15423   1.017   6.063   3.623 -0.9162 -0.1314  1.3943
  141OSM   C18F15424   1.028   5.849   3.646  0.0472 -0.2581  0.0521
  141OSM   H18F15425   1.002   5.764   3.580  0.6006  0.6785 -1.4188
  141OSM   H18G15426   0.956   5.848   3.731 -1.3602 -2.9932 -1.0614
  141OSM   H18H15427   1.135   5.835   3.674 -0.2400 -1.4157  0.6439
  142OSM      N15428   1.241   1.245   1.479 -0.0922 -0.5479  0.1090
  142OSM    C1515429   1.267   1.299   1.343 -0.9246 -0.2604  0.0028
  142OSM   H15A15430   1.256   1.220   1.271 -1.8707 -0.3753  0.2567
  142OSM   H15B15431   1.362   1.349   1.333 -1.7356  1.2016 -0.7509
  142OSM   H15C15432   1.195   1.376   1.321  0.6352  1.7098  1.4250
  142OSM    C1415433   1.339   1.135   1.522 -0.4124 -0.1453 -0.4777
  142OSM   H14A15434   1.335   1.061   1.443 -1.0962 -1.8039  1.0375
  142OSM   H14B15435   1.316   1.089   1.617  1.6615  0.0001  0.1285
  142OSM   H14C15436   1.432   1.189   1.517 -1.5538  1.9934 -0.0448
  142OSM    C1315437   1.244   1.348   1.579  0.8421 -0.4752  0.2334
  142OSM   H13A15438   1.195   1.441   1.557  0.7568 -0.6123 -0.1587
  142OSM   H13B15439   1.337   1.387   1.617 -0.1017  0.4341  1.7094
  142OSM   H13C15440   1.199   1.308   1.669  0.7042 -1.4338 -0.2412
  142OSM    C1215441   1.104   1.176   1.469 -0.2059 -0.1368  0.7256
  142OSM   H12A15442   1.108   1.101   1.391 -0.8822 -2.0496  2.4231
  142OSM   H12B15443   1.022   1.245   1.454  0.5053  0.3972 -0.9656
  142OSM    C1115444   1.051   1.098   1.592 -0.5353 -1.1603 -0.0385
  142OSM   H11A15445   1.140   1.043   1.629 -0.8573  0.2109  3.1428
  142OSM   H11B15446   0.975   1.018   1.574 -0.4719 -1.6175  1.5188
  142OSM      P15447   0.873   1.262   1.671  0.1127  0.2385  0.4561
  142OSM    O1315448   0.904   1.409   1.685  0.0068  0.2524 -0.1294
  142OSM    O1415449   0.811   1.223   1.542 -0.0196  0.4954  0.3994
  142OSM    O1115450   0.778   1.212   1.788  0.7293  0.0146 -0.4539
  142OSM    O1215451   1.009   1.192   1.695  0.3115 -0.3125  0.0540
  142OSM    C1S15452   0.737   1.072   1.783  0.1232 -0.8488  0.2409
  142OSM    H1S15453   0.827   1.007   1.778  1.6476  1.1745  0.0904
  142OSM    H1T15454   0.671   1.050   1.697  2.3476 -2.8878 -1.0827
  142OSM     NF15455   0.650   0.897   1.939 -0.6706  0.1390 -0.0507
  142OSM    HNF15456   0.556   0.864   1.938 -1.1133  1.3589 -1.2738
  142OSM    C2S15457   0.657   1.042   1.915 -0.2607  0.4279  0.1294
  142OSM    H2S15458   0.720   1.074   2.001  0.8831  1.7827 -1.1564
  142OSM    C3S15459   0.522   1.126   1.919 -0.1749  0.6470  0.4951
  142OSM    H3S15460   0.479   1.097   1.821  2.4645  0.3137 -0.6674
  142OSM     O315461   0.535   1.268   1.918  0.0014  0.0424  0.2441
  142OSM    HO315462   0.627   1.282   1.893  0.0446 -1.5335 -0.5858
  142OSM    C4S15463   0.430   1.086   2.036  0.6303 -0.1864 -0.1907
  142OSM    H4S15464   0.368   1.000   2.009  1.4712  0.0346 -3.2662
  142OSM    C5S15465   0.431   1.153   2.157  1.2217  0.9557 -0.0522
  142OSM    H5S15466   0.490   1.245   2.170  0.1918  1.3512  2.4924
  142OSM    C6S15467   0.339   1.116   2.272 -0.1940  0.2474 -0.5866
  142OSM    H6S15468   0.264   1.035   2.258  1.2117 -1.4672  1.2354
  142OSM    H6T15469   0.280   1.205   2.302  1.4098  1.2097 -0.1653
  142OSM    C7S15470   0.429   1.087   2.398 -0.4996  0.4135 -0.1730
  142OSM    H7S15471   0.516   1.023   2.375  0.5301  1.1504  1.4822
  142OSM    H7T15472   0.375   1.019   2.468  1.1320 -0.7854 -0.0163
  142OSM    C8S15473   0.479   1.215   2.465  0.2502  0.2495  0.2715
  142OSM    H8S15474   0.400   1.288   2.493  1.3211  1.2410  0.8162
  142OSM    H8T15475   0.541   1.272   2.393 -0.9293  1.9140  0.5095
  142OSM    C9S15476   0.552   1.173   2.597  0.7035  0.3594  0.1320
  142OSM    H9S15477   0.643   1.110   2.599  2.1163  2.3299  1.7285
  142OSM    H9T15478   0.473   1.113   2.647  0.4647  1.6709  1.4185
  142OSM   C10S15479   0.589   1.289   2.689 -0.5307  0.0553 -0.4558
  142OSM   H10S15480   0.499   1.354   2.688 -0.8930 -0.4125  0.3534
  142OSM   H10T15481   0.679   1.341   2.648  0.0842 -1.0452 -0.5430
  142OSM   C11S15482   0.618   1.235   2.835 -0.8403 -0.8213  0.0980
  142OSM   H11S15483   0.707   1.171   2.825  1.1698  1.9175 -0.8467
  142OSM   H11T15484   0.529   1.177   2.868 -2.1410 -0.5164 -2.5558
  142OSM   C12S15485   0.650   1.357   2.928 -0.3466 -0.1903 -0.2858
  142OSM   H12S15486   0.599   1.450   2.895  0.1018 -0.2010 -1.0314
  142OSM   H12T15487   0.759   1.380   2.918 -0.6122  0.2424 -2.7299
  142OSM   C13S15488   0.617   1.325   3.075 -0.2834  0.0589  0.1977
  142OSM   H13S15489   0.688   1.246   3.110 -1.3837 -0.0472  2.3939
  142OSM   H13T15490   0.519   1.272   3.080  0.1724 -0.8053  0.1404
  142OSM   C14S15491   0.626   1.446   3.171  0.2036  0.2430 -0.3656
  142OSM   H14S15492   0.540   1.515   3.155  0.9638  1.3500  0.1594
  142OSM   H14T15493   0.720   1.502   3.152 -0.2399  1.1705  0.0715
  142OSM   C15S15494   0.634   1.399   3.317  0.3240  0.5070 -0.3870
  142OSM   H15S15495   0.712   1.325   3.344  0.5159  0.0604 -2.0706
  142OSM   H15T15496   0.537   1.349   3.338 -1.2329  3.6226  0.5061
  142OSM   C16S15497   0.631   1.525   3.414 -0.2867  0.5529  0.0482
  142OSM   H16S15498   0.607   1.621   3.365  0.1129  0.1781 -0.9127
  142OSM   H16T15499   0.728   1.520   3.469 -0.1631 -0.9451 -0.2445
  142OSM   C17S15500   0.539   1.502   3.532  0.1653  0.7790 -0.1408
  142OSM   H17S15501   0.433   1.483   3.503  0.6143 -2.0616 -0.1825
  142OSM   H17T15502   0.528   1.598   3.587 -1.7244 -0.2111  1.3473
  142OSM   C18S15503   0.585   1.392   3.622 -0.0803  0.1067  0.3052
  142OSM   H18S15504   0.520   1.385   3.711 -0.5023  0.9312  0.0761
  142OSM   H18T15505   0.686   1.415   3.664 -0.2249  0.1715  0.6188
  142OSM   H18U15506   0.588   1.292   3.573 -2.9193 -0.5798  1.3690
  142OSM    C1F15507   0.752   0.817   1.969 -0.8472 -0.1303  0.6172
  142OSM     OF15508   0.862   0.873   1.973 -0.2748  0.4981 -0.1318
  142OSM    C2F15509   0.726   0.669   2.004 -0.4957  0.0353  0.8901
  142OSM    H2F15510   0.689   0.604   1.922 -1.9313  0.2722  1.3218
  142OSM    H2G15511   0.641   0.666   2.075 -1.3330  0.2490 -0.0802
  142OSM    C3F15512   0.841   0.596   2.074 -0.6529 -0.4120 -0.5088
  142OSM    H3F15513   0.926   0.580   2.006 -0.2508 -2.1230  0.3304
  142OSM    H3G15514   0.795   0.498   2.102 -0.1810 -0.5493 -0.2131
  142OSM    C4F15515   0.904   0.666   2.199  0.0574 -0.0139 -1.0688
  142OSM    H4F15516   0.818   0.688   2.265 -1.2236 -3.3044 -1.4713
  142OSM    H4G15517   0.949   0.760   2.161 -3.3140  2.3432  0.3378
  142OSM    C5F15518   1.004   0.570   2.266  0.7012 -1.0102  0.0599
  142OSM    H5F15519   1.089   0.534   2.204  0.7292 -0.0051 -0.5134
  142OSM    H5G15520   0.939   0.482   2.285 -1.3175  0.7435  1.8142
  142OSM    C6F15521   1.065   0.621   2.398 -0.8341 -0.4799 -0.3472
  142OSM    H6F15522   1.099   0.723   2.372  0.1292 -0.0383  2.2841
  142OSM    H6G15523   1.155   0.567   2.436 -0.5102  0.6574  0.5690
  142OSM    C7F15524   0.979   0.629   2.520  0.8265  0.5462 -0.9389
  142OSM    H7F15525   0.880   0.670   2.492 -0.1526 -1.6829 -0.9837
  142OSM    H7G15526   1.012   0.703   2.596  0.1894 -0.7245  0.6184
  142OSM    C8F15527   0.937   0.492   2.579  0.1830  0.2625 -0.0637
  142OSM    H8F15528   1.022   0.436   2.624 -0.2885  1.2710  2.2248
  142OSM    H8G15529   0.891   0.441   2.492 -3.0875  0.6583  1.2709
  142OSM    C9F15530   0.821   0.524   2.684 -0.2323 -0.2422 -0.2813
  142OSM    H9F15531   0.730   0.553   2.631  0.7708  2.8521 -0.4816
  142OSM   C10F15532   0.827   0.534   2.815 -0.0640 -0.2989 -0.7640
  142OSM   H10F15533   0.745   0.571   2.877  1.1293  1.4799 -0.1712
  142OSM   C11F15534   0.956   0.513   2.892  0.0942 -0.7562  0.2727
  142OSM   H11F15535   0.993   0.608   2.936  0.0269  0.1611 -1.5338
  142OSM   H11G15536   1.040   0.489   2.822  1.6442  2.2058  0.9627
  142OSM   C12F15537   0.948   0.398   2.993  0.4982 -0.5487 -0.7803
  142OSM   H12F15538   1.058   0.383   3.006  0.2586 -0.5607  1.6095
  142OSM   H12G15539   0.908   0.305   2.948 -1.0157 -0.7028  0.8072
  142OSM   C13F15540   0.875   0.434   3.123  0.2215 -0.2307 -0.5054
  142OSM   H13F15541   0.772   0.471   3.103  0.5217  1.3404  0.6758
  142OSM   H13G15542   0.932   0.525   3.151  1.4518 -1.0210 -0.3577
  142OSM   C14F15543   0.864   0.324   3.229 -0.1092 -0.7783 -0.8252
  142OSM   H14F15544   0.775   0.260   3.213 -1.0982 -0.2567  1.9998
  142OSM   H14G15545   0.852   0.373   3.328 -0.4921 -0.9678 -0.7765
  142OSM   C15F15546   0.993   0.236   3.239 -0.0388  0.6762  1.2361
  142OSM   H15F15547   1.066   0.315   3.266 -0.2083  1.2419  0.0920
  142OSM   H15G15548   1.026   0.189   3.143  0.1581 -1.8342  2.4583
  142OSM   C16F15549   0.984   0.125   3.346  0.1837 -0.1201  0.2252
  142OSM   H16F15550   1.077   0.067   3.358  0.4883  0.0561 -1.0795
  142OSM   H16G15551   0.914   0.045   3.314 -1.1591  1.2145 -0.2806
  142OSM   C17F15552   0.962   0.180   3.487  0.2524  0.0030  0.4155
  142OSM   H17F15553   0.860   0.223   3.501  1.8541  3.0350  4.8600
  142OSM   H17G15554   1.038   0.249   3.527 -1.1446  1.6391  0.3815
  142OSM   C18F15555   0.972   0.059   3.587 -0.5830 -0.9242 -0.7914
  142OSM   H18F15556   0.958   0.095   3.691 -0.2628 -1.9886 -0.3718
  142OSM   H18G15557   1.068   0.005   3.591 -0.5302 -0.7695  1.1544
  142OSM   H18H15558   0.890  -0.015   3.575 -0.1317 -1.5798  0.0847
  143OSM      N15559   1.063   5.914   1.654  0.0303 -0.2520 -0.5423
  143OSM    C1515560   1.143   5.953   1.777 -0.3933 -0.3092  0.3145
  143OSM   H15A15561   1.238   5.901   1.776  0.0542  0.4878 -0.7867
  143OSM   H15B15562   1.098   5.922   1.870  2.4493 -1.1621  1.5234
  143OSM   H15C15563   1.166   6.058   1.780 -2.1114  0.1227 -0.6788
  143OSM    C1415564   1.150   5.945   1.539 -0.1363 -1.3367  0.3323
  143OSM   H14A15565   1.113   5.892   1.452  1.2374 -2.7468  0.5720
  143OSM   H14B15566   1.242   5.895   1.566  0.0172 -0.4560  1.5286
  143OSM   H14C15567   1.157   6.053   1.528 -0.2582 -0.7838  4.3373
  143OSM    C1315568   1.044   5.771   1.658 -0.0840  0.3866  0.2261
  143OSM   H13A15569   1.136   5.721   1.632 -1.3826 -2.4775  0.6420
  143OSM   H13B15570   0.966   5.739   1.590  0.2656  0.1058 -0.0484
  143OSM   H13C15571   1.016   5.741   1.758  2.5496  0.0399  0.9437
  143OSM    C1215572   0.940   5.997   1.653  0.7064 -0.0850 -0.6621
  143OSM   H12A15573   0.879   5.959   1.573 -1.5446  1.6548  0.1199
  143OSM   H12B15574   0.966   6.099   1.631  2.8524 -0.0778  1.4144
  143OSM    C1115575   0.842   6.000   1.779  0.2428  0.1461  0.1048
  143OSM   H11A15576   0.901   6.051   1.858  3.5664  0.3939 -2.3501
  143OSM   H11B15577   0.822   5.894   1.807  4.4868 -0.3855  1.9454
  143OSM      P15578   0.597   6.088   1.815 -0.1684  0.0850  0.1013
  143OSM    O1315579   0.511   6.195   1.760  0.1835 -0.8859  0.4535
  143OSM    O1415580   0.549   5.955   1.837 -0.2116 -0.7670  0.0679
  143OSM    O1115581   0.645   6.132   1.959  0.1710  0.4625  0.4791
  143OSM    O1215582   0.730   6.075   1.736  0.4917  0.1333  0.7128
  143OSM    C1S15583   0.549   6.129   2.068 -0.1328 -0.3807 -0.1813
  143OSM    H1S15584   0.470   6.055   2.043  0.7730 -1.3879 -0.1481
  143OSM    H1T15585   0.497   6.226   2.080  0.8225  0.5617 -2.8604
  143OSM     NF15586   0.511   6.067   2.295  0.2620  1.1686 -0.9052
  143OSM    HNF15587   0.467   6.153   2.321  1.9004  1.1832  2.2194
  143OSM    C2S15588   0.616   6.088   2.203 -0.4782 -0.0242 -0.1585
  143OSM    H2S15589   0.671   5.994   2.182 -0.7434 -0.6488  1.7623
  143OSM    C3S15590   0.715   6.195   2.244  0.1683  0.5688  0.0745
  143OSM    H3S15591   0.662   6.286   2.277  1.1823  0.5565  1.8885
  143OSM     O315592   0.791   6.250   2.138 -0.1402 -0.2387 -0.2268
  143OSM    HO315593   0.755   6.211   2.057  0.3941  0.6615 -0.9077
  143OSM    C4S15594   0.800   6.148   2.361  0.3763 -0.6067 -0.2530
  143OSM    H4S15595   0.800   6.040   2.382 -1.5908 -0.2975  1.6845
  143OSM    C5S15596   0.847   6.235   2.453 -0.0844 -0.7984 -0.3187
  143OSM    H5S15597   0.841   6.344   2.442  2.0959 -0.8210 -3.0102
  143OSM    C6S15598   0.927   6.192   2.572 -0.0917 -0.1334 -0.1567
  143OSM    H6S15599   0.867   6.190   2.665 -1.7043  0.0467 -1.1538
  143OSM    H6T15600   1.003   6.272   2.588  1.3688 -1.4928 -0.0402
  143OSM    C7S15601   0.997   6.053   2.573 -0.1974  0.5182  0.2024
  143OSM    H7S15602   1.060   6.043   2.483  1.2279  0.2042  1.2047
  143OSM    H7T15603   0.926   5.968   2.559  2.5800 -1.6817 -1.4450
  143OSM    C8S15604   1.084   6.025   2.696  0.1041  0.9150  0.5888
  143OSM    H8S15605   1.130   6.119   2.734 -0.1451  1.4267 -0.3575
  143OSM    H8T15606   1.162   5.954   2.664  2.3262  2.5765  2.0282
  143OSM    C9S15607   0.996   5.958   2.810 -0.4255  0.1310  0.4490
  143OSM    H9S15608   0.928   5.884   2.762  0.9931 -1.0042  0.1102
  143OSM    H9T15609   0.932   6.040   2.847  1.2834  2.7031 -1.8916
  143OSM   C10S15610   1.082   5.900   2.921 -0.5027  0.4878 -0.3004
  143OSM   H10S15611   1.143   5.987   2.953  1.2975 -0.1406 -1.8632
  143OSM   H10T15612   1.157   5.828   2.882 -0.6195  1.4037 -2.3539
  143OSM   C11S15613   0.997   5.857   3.034 -0.0783  0.6395  0.3138
  143OSM   H11S15614   0.911   5.927   3.041 -1.1715 -0.7902  3.6444
  143OSM   H11T15615   1.051   5.857   3.131  0.8385 -0.5178 -0.1696
  143OSM   C12S15616   0.945   5.714   3.014 -0.0472 -0.4699 -0.4616
  143OSM   H12S15617   1.036   5.654   3.036  0.7360  0.2654 -1.5987
  143OSM   H12T15618   0.912   5.709   2.908 -1.9423  2.3596 -0.1028
  143OSM   C13S15619   0.834   5.673   3.112  0.1024 -0.0889 -0.4589
  143OSM   H13S15620   0.873   5.686   3.215  3.2405  0.6753 -1.6271
  143OSM   H13T15621   0.802   5.567   3.099  0.7385 -0.5602  1.5179
  143OSM   C14S15622   0.709   5.750   3.078  0.4175 -0.5746  0.0088
  143OSM   H14S15623   0.729   5.860   3.079 -0.5729 -0.3861  1.0085
  143OSM   H14T15624   0.641   5.739   3.166  2.4702  0.5262  1.8480
  143OSM   C15S15625   0.637   5.699   2.952  0.7058  0.1189 -1.2471
  143OSM   H15S15626   0.705   5.668   2.869  1.8737  2.1323 -1.1044
  143OSM   H15T15627   0.576   5.788   2.926 -1.8260 -1.0639  0.2922
  143OSM   C16S15628   0.547   5.575   2.978  0.1084  0.4393  0.2290
  143OSM   H16S15629   0.485   5.572   3.070 -1.5581 -1.4682 -0.8875
  143OSM   H16T15630   0.601   5.480   2.999 -0.6606  0.3069  1.8288
  143OSM   C17S15631   0.448   5.562   2.864 -0.0735 -0.4612 -0.5533
  143OSM   H17S15632   0.505   5.576   2.770  0.2383  0.4679 -0.2417
  143OSM   H17T15633   0.372   5.643   2.868  1.1360  0.7313 -0.9623
  143OSM   C18S15634   0.375   5.431   2.858  0.4387 -0.5376 -0.0675
  143OSM   H18S15635   0.337   5.413   2.960  0.8507  1.9381  0.5784
  143OSM   H18T15636   0.452   5.352   2.842  0.4660 -0.7057  0.8372
  143OSM   H18U15637   0.287   5.423   2.790  0.8164 -3.5048 -0.3292
  143OSM    C1F15638   0.425   5.965   2.283 -0.7592 -0.4469 -0.3342
  143OSM     OF15639   0.444   5.867   2.212  0.4977  0.0727  0.0331
  143OSM    C2F15640   0.298   5.974   2.360  0.4836  0.1729  0.5513
  143OSM    H2F15641   0.212   5.975   2.288 -0.4327 -3.0360  1.4235
  143OSM    H2G15642   0.301   6.059   2.430  1.7484  0.8445 -0.2867
  143OSM    C3F15643   0.276   5.855   2.462  0.4052 -0.2142 -0.6467
  143OSM    H3F15644   0.283   5.765   2.398 -1.5329  0.3876 -1.7933
  143OSM    H3G15645   0.171   5.865   2.494  0.9991  0.9448  1.0735
  143OSM    C4F15646   0.375   5.852   2.579 -0.1424  0.0092  0.9295
  143OSM    H4F15647   0.482   5.854   2.548  0.1217 -2.0965  1.4943
  143OSM    H4G15648   0.364   5.754   2.631  0.5693  0.4144  1.8693
  143OSM    C5F15649   0.348   5.954   2.689 -0.0162 -0.3261 -0.2381
  143OSM    H5F15650   0.372   6.057   2.653 -1.7022 -1.0492 -3.8825
  143OSM    H5G15651   0.431   5.928   2.758  0.0195  0.6000  0.0930
  143OSM    C6F15652   0.217   5.942   2.759 -0.0029  0.2158 -0.3157
  143OSM    H6F15653   0.207   5.834   2.786  0.1185  0.6352  1.5760
  143OSM    H6G15654   0.137   5.963   2.686  0.5761 -0.3495 -1.1290
  143OSM    C7F15655   0.207   6.034   2.883 -0.1849 -0.0204  0.0040
  143OSM    H7F15656   0.100   6.038   2.916 -0.1554  0.3681  0.0564
  143OSM    H7G15657   0.247   6.132   2.850  2.6801 -0.6965  1.2512
  143OSM    C8F15658   0.292   5.995   3.008 -0.6899  0.2634  0.3227
  143OSM    H8F15659   0.292   6.079   3.081 -1.3104 -0.1519  0.8041
  143OSM    H8G15660   0.397   5.990   2.970 -0.8613  1.7013 -0.4092
  143OSM    C9F15661   0.237   5.865   3.065  0.3025  0.3198  0.5165
  143OSM    H9F15662   0.266   5.777   3.005  2.7882  1.0864  0.4643
  143OSM   C10F15663   0.167   5.842   3.178  0.4418  0.1596  0.7078
  143OSM   H10F15664   0.125   5.745   3.206 -1.3292  0.5453 -0.4478
  143OSM   C11F15665   0.125   5.955   3.276 -0.0675  0.9611 -0.1672
  143OSM   H11F15666   0.214   6.019   3.295 -0.7113  1.6166  0.7899
  143OSM   H11G15667   0.099   5.916   3.377  1.2865  2.1776  0.6956
  143OSM   C12F15668   0.015   6.049   3.238  0.0608 -0.1205  0.2266
  143OSM   H12F15669  -0.078   5.990   3.225  1.4653 -2.6360  0.9198
  143OSM   H12G15670   0.051   6.089   3.141  0.4190 -0.0789  0.3774
  143OSM   C13F15671  -0.008   6.167   3.335 -0.0890 -0.1233 -0.0335
  143OSM   H13F15672   0.084   6.228   3.349  0.3410 -0.9177  0.7952
  143OSM   H13G15673  -0.029   6.122   3.435 -1.3450  0.5644  0.0332
  143OSM   C14F15674  -0.120   6.255   3.289  0.1629 -0.7050  0.2538
  143OSM   H14F15675  -0.103   6.277   3.181  0.6290  0.5421  0.5724
  143OSM   H14G15676  -0.112   6.360   3.322  0.2211 -0.4664 -0.5068
  143OSM   C15F15677  -0.253   6.199   3.318  0.7315  0.6718 -0.6241
  143OSM   H15F15678  -0.264   6.178   3.427 -1.9726 -1.3799 -1.1694
  143OSM   H15G15679  -0.246   6.104   3.260  0.6018  0.5428 -0.4310
  143OSM   C16F15680  -0.374   6.276   3.264  0.4523  0.2702 -0.5058
  143OSM   H16F15681  -0.376   6.268   3.153  0.0285 -0.6764 -0.4391
  143OSM   H16G15682  -0.344   6.380   3.289  0.7117  0.4776 -1.6067
  143OSM   C17F15683  -0.503   6.242   3.328  0.2971 -0.7419  0.0923
  143OSM   H17F15684  -0.587   6.303   3.291  2.0621  2.3451  0.8283
  143OSM   H17G15685  -0.484   6.264   3.435  0.0249  1.0977 -0.2131
  143OSM   C18F15686  -0.541   6.091   3.320 -0.2294  0.0934 -0.2119
  143OSM   H18F15687  -0.473   6.020   3.370 -1.0040 -0.0742  0.6196
  143OSM   H18G15688  -0.554   6.062   3.214  1.1750  2.5142 -1.1371
  143OSM   H18H15689  -0.640   6.069   3.365  0.3724 -0.5307  0.8387
  144OSM      N15690   6.956   6.434   1.530 -0.1461 -0.2225  0.0547
  144OSM    C1515691   6.958   6.297   1.599 -0.3944 -0.4042 -0.1490
  144OSM   H15A15692   7.021   6.227   1.545 -1.2613  0.3490 -2.2694
  144OSM   H15B15693   6.859   6.258   1.613 -1.6118  2.1374 -1.1077
  144OSM   H15C15694   6.998   6.307   1.699 -0.5745  0.5387 -0.1580
  144OSM    C1415695   7.097   6.488   1.513 -0.1061  0.1482 -0.0035
  144OSM   H14A15696   7.139   6.498   1.612  1.6171  0.9505 -0.7891
  144OSM   H14B15697   7.113   6.581   1.461  1.0668 -0.6550 -1.1603
  144OSM   H14C15698   7.162   6.419   1.461  0.0930 -0.5213  1.0942
  144OSM    C1315699   6.896   6.407   1.403  0.3972 -0.2336 -0.5118
  144OSM   H13A15700   6.971   6.357   1.344 -0.3571 -2.6835  0.4462
  144OSM   H13B15701   6.870   6.497   1.350  0.6628  1.2665  1.7445
  144OSM   H13C15702   6.807   6.346   1.402  0.4736 -0.4123  0.7908
  144OSM    C1215703   6.860   6.527   1.617  0.1949 -0.2853  0.0543
  144OSM   H12A15704   6.759   6.489   1.617 -0.3729  1.1056  1.5982
  144OSM   H12B15705   6.860   6.621   1.565  1.8829 -1.2205 -1.8081
  144OSM    C1115706   6.891   6.542   1.770 -0.8726 -0.4004 -0.5799
  144OSM   H11A15707   6.879   6.442   1.816 -0.6846 -0.6727 -1.1244
  144OSM   H11B15708   6.811   6.606   1.814  0.8783  0.1767  1.9660
  144OSM      P15709   7.028   6.753   1.802  0.1655 -0.5576 -0.1812
  144OSM    O1315710   7.164   6.792   1.839 -0.3280  0.5002 -0.1787
  144OSM    O1415711   6.983   6.805   1.670  0.6042 -0.1549 -0.3009
  144OSM    O1115712   6.930   6.807   1.918 -0.1372 -0.1609 -0.2638
  144OSM    O1215713   7.015   6.595   1.807  0.1598 -0.1735  0.1987
  144OSM    C1S15714   6.903   6.949   1.940 -0.3915 -1.0071 -0.2292
  144OSM    H1S15715   6.829   6.969   1.860  2.5646  1.8481 -2.4758
  144OSM    H1T15716   7.002   6.998   1.930  0.3630 -2.8320 -3.0152
  144OSM     NF15717   6.773   7.105   2.081 -0.4456 -0.4969 -0.3925
  144OSM    HNF15718   6.823   7.185   2.113 -1.0717 -0.3813  0.3372
  144OSM    C2S15719   6.849   6.978   2.086  0.1472  0.8115  0.0201
  144OSM    H2S15720   6.769   6.904   2.104 -1.0167  2.1189  0.4400
  144OSM    C3S15721   6.969   6.972   2.180 -0.0784 -0.1850 -0.2903
  144OSM    H3S15722   7.051   7.036   2.140 -0.2388 -0.2627 -0.7553
  144OSM     O315723   7.031   6.847   2.182 -0.5118  0.2085 -0.1215
  144OSM    HO315724   7.007   6.810   2.096  0.6707 -1.0223  0.0405
  144OSM    C4S15725   6.931   7.011   2.319  0.7910  0.7506 -0.4160
  144OSM    H4S15726   6.864   6.934   2.360  0.6913  0.0810 -1.7948
  144OSM    C5S15727   6.968   7.125   2.384  0.0254 -0.0821  0.0875
  144OSM    H5S15728   6.994   7.211   2.321 -1.8765  3.1244  3.3505
  144OSM    C6S15729   6.942   7.157   2.531  0.1807  0.2342 -0.0735
  144OSM    H6S15730   6.866   7.239   2.536 -0.7926 -0.5992 -0.6645
  144OSM    H6T15731   7.043   7.190   2.561  0.5889 -1.0351 -0.0108
  144OSM    C7S15732   6.890   7.046   2.628  0.4726 -0.0621  0.0836
  144OSM    H7S15733   6.964   6.963   2.618  1.6818  1.0243 -0.1276
  144OSM    H7T15734   6.791   7.005   2.600  1.1334 -0.2052 -2.2201
  144OSM    C8S15735   6.890   7.073   2.785 -0.0427  0.3399 -0.1495
  144OSM    H8S15736   6.863   6.980   2.840  0.0624  0.5067  0.1869
  144OSM    H8T15737   6.819   7.153   2.815 -0.5929 -0.2518  0.1369
  144OSM    C9S15738   7.028   7.111   2.835 -0.2927 -0.6028  0.2666
  144OSM    H9S15739   7.067   7.211   2.805 -2.1892  0.1269  0.1002
  144OSM    H9T15740   7.104   7.040   2.796 -0.6469 -0.5255 -0.5829
  144OSM   C10S15741   7.025   7.106   2.987  0.0964  1.0738 -0.0992
  144OSM   H10S15742   7.002   6.999   3.010 -1.2012  1.0136 -1.5269
  144OSM   H10T15743   6.948   7.181   3.013  1.5563  3.2649 -1.7168
  144OSM   C11S15744   7.149   7.153   3.054 -0.3009  0.0373 -0.2409
  144OSM   H11S15745   7.159   7.263   3.042 -1.0541  0.1433  0.0566
  144OSM   H11T15746   7.233   7.100   3.004 -1.0219 -1.2632 -0.1215
  144OSM   C12S15747   7.146   7.122   3.201 -0.2161  0.5498  0.4007
  144OSM   H12S15748   7.138   7.015   3.231 -3.5832  0.5976  0.0381
  144OSM   H12T15749   7.048   7.155   3.241 -0.8932  0.5000 -1.1662
  144OSM   C13S15750   7.259   7.200   3.278 -0.3681  0.1448 -0.6725
  144OSM   H13S15751   7.262   7.306   3.245 -2.1552  0.8403  1.2399
  144OSM   H13T15752   7.357   7.147   3.266  0.1958  1.2202 -0.9353
  144OSM   C14S15753   7.236   7.212   3.429  0.9174  0.0341  0.1513
  144OSM   H14S15754   7.232   7.106   3.463  1.8696 -0.0580  0.0122
  144OSM   H14T15755   7.132   7.239   3.460  1.0284 -1.3097  1.8838
  144OSM   C15S15756   7.333   7.293   3.516 -0.1583  0.2579 -0.4299
  144OSM   H15S15757   7.322   7.401   3.490  0.6031  0.5238  0.3063
  144OSM   H15T15758   7.437   7.264   3.491 -0.6310 -1.3396 -0.6557
  144OSM   C16S15759   7.294   7.286   3.668  0.0298 -0.1281  0.1733
  144OSM   H16S15760   7.309   7.181   3.698  1.5984 -0.8353 -2.7141
  144OSM   H16T15761   7.185   7.308   3.664  0.2212  0.7175 -1.0064
  144OSM   C17S15762   7.353   7.399   3.758  0.2532  0.2721 -0.5452
  144OSM   H17S15763   7.326   7.497   3.713  1.3126  0.9811  0.2877
  144OSM   H17T15764   7.462   7.379   3.768  0.4890  1.6550 -0.0488
  144OSM   C18S15765   7.298   7.389   3.902 -0.5055 -0.9697 -0.3995
  144OSM   H18S15766   7.339   7.455   3.981 -0.1198 -0.4079 -1.0580
  144OSM   H18T15767   7.318   7.292   3.951 -1.8724 -0.8355  0.4652
  144OSM   H18U15768   7.189   7.408   3.890  0.3817  5.3015 -2.1570
  144OSM    C1F15769   6.651   7.116   2.036 -0.3704  0.2625  0.4439
  144OSM     OF15770   6.581   7.016   2.000 -0.3194  0.8667 -0.0716
  144OSM    C2F15771   6.589   7.254   2.024 -0.1939 -0.0046  0.0635
  144OSM    H2F15772   6.542   7.266   1.924  0.2077  0.0175 -0.1252
  144OSM    H2G15773   6.663   7.337   2.030 -0.3955  0.5434 -3.2642
  144OSM    C3F15774   6.486   7.268   2.144  0.1517 -0.7363  0.2185
  144OSM    H3F15775   6.413   7.184   2.140  0.7983 -1.5011  2.8639
  144OSM    H3G15776   6.439   7.363   2.109  0.5061 -0.8540 -0.5964
  144OSM    C4F15777   6.553   7.301   2.283  0.1125  1.0384  0.0348
  144OSM    H4F15778   6.611   7.392   2.255  0.6929  0.2662 -1.3831
  144OSM    H4G15779   6.616   7.218   2.323 -0.0249  0.5918 -0.6523
  144OSM    C5F15780   6.454   7.316   2.398 -0.7474  0.2851 -0.3017
  144OSM    H5F15781   6.395   7.224   2.413 -1.0965  0.7321  1.3734
  144OSM    H5G15782   6.390   7.406   2.387  0.5329  1.1367 -1.0775
  144OSM    C6F15783   6.535   7.348   2.526  0.0450 -0.3623 -0.0414
  144OSM    H6F15784   6.599   7.437   2.508 -1.2065  0.6442  0.3405
  144OSM    H6G15785   6.604   7.264   2.553  1.1716  0.8631  1.0698
  144OSM    C7F15786   6.452   7.368   2.653 -0.1045  0.3723  0.2282
  144OSM    H7F15787   6.377   7.449   2.641 -1.6266 -1.1542 -1.2074
  144OSM    H7G15788   6.530   7.400   2.725  0.4769  0.9379 -0.6307
  144OSM    C8F15789   6.370   7.253   2.705  0.4663 -0.3662 -0.2490
  144OSM    H8F15790   6.446   7.175   2.728  1.2874  0.6417  0.5730
  144OSM    H8G15791   6.312   7.219   2.617  3.1311 -1.5968 -1.6414
  144OSM    C9F15792   6.291   7.280   2.829 -0.5302  0.0529 -0.0633
  144OSM    H9F15793   6.196   7.332   2.812 -1.0770 -0.4239  1.3515
  144OSM   C10F15794   6.335   7.268   2.958  0.2128 -0.7495  0.6594
  144OSM   H10F15795   6.259   7.299   3.031 -1.2241 -1.8576 -0.3128
  144OSM   C11F15796   6.463   7.211   3.017  0.6048 -0.4250  0.5266
  144OSM   H11F15797   6.547   7.240   2.949 -0.2152  1.1241  0.1056
  144OSM   H11G15798   6.453   7.101   3.028 -0.1296 -0.1595  3.2049
  144OSM   C12F15799   6.500   7.257   3.164 -0.7733 -0.6155 -0.3833
  144OSM   H12F15800   6.593   7.203   3.193 -0.8098 -1.4004 -1.6378
  144OSM   H12G15801   6.414   7.217   3.222  1.1198 -3.7482  0.5137
  144OSM   C13F15802   6.529   7.411   3.162 -0.5298 -0.7514  0.0593
  144OSM   H13F15803   6.442   7.470   3.127  0.0995 -1.0947 -2.2441
  144OSM   H13G15804   6.616   7.423   3.095  0.8271 -1.8176  1.5496
  144OSM   C14F15805   6.550   7.461   3.310 -0.4213  0.2933 -0.1409
  144OSM   H14F15806   6.475   7.416   3.379 -1.2625  1.5962 -0.1705
  144OSM   H14G15807   6.523   7.569   3.307  1.6439  0.8683  0.3947
  144OSM   C15F15808   6.686   7.424   3.367 -0.8330  0.2740 -0.2571
  144OSM   H15F15809   6.764   7.477   3.308  0.0154 -1.3650 -0.6398
  144OSM   H15G15810   6.710   7.317   3.353  0.2964  0.4227  0.4590
  144OSM   C16F15811   6.700   7.469   3.515 -0.1830 -0.1113  0.0650
  144OSM   H16F15812   6.630   7.401   3.568 -0.8429 -0.5150 -1.2910
  144OSM   H16G15813   6.660   7.571   3.535  0.3783  0.3296 -0.9872
  144OSM   C17F15814   6.839   7.450   3.567 -0.1243  0.3721 -0.3294
  144OSM   H17F15815   6.914   7.511   3.512  0.8142  0.3998  0.9466
  144OSM   H17G15816   6.867   7.346   3.540 -0.1752  0.6465 -1.4767
  144OSM   C18F15817   6.849   7.474   3.715  0.1647 -0.2592 -0.4570
  144OSM   H18F15818   6.957   7.468   3.743 -0.2895 -1.5779  1.2192
  144OSM   H18G15819   6.796   7.392   3.769  1.7486 -1.2948 -0.3773
  144OSM   H18H15820   6.822   7.577   3.745  1.4350 -0.6138  2.3068
  145SAPE     N15821   2.280   3.072   5.949 -0.3087  0.3654  0.6921
  145SAPE   HN115822   2.380   3.071   5.921 -0.6065 -0.9475 -0.4633
  145SAPE   HN215823   2.276   3.058   6.052  1.3915 -0.2206  0.7010
  145SAPE   HN315824   2.224   3.001   5.898 -0.8870 -0.4591  2.4071
  145SAPE   C1215825   2.224   3.208   5.907 -0.4571  0.4967 -0.0765
  145SAPE  H12A15826   2.208   3.195   5.798  0.0131 -0.7720 -0.0117
  145SAPE  H12B15827   2.303   3.276   5.946 -1.7200  0.5228  2.6618
  145SAPE   C1115828   2.093   3.233   5.977 -0.2184 -0.4576 -0.1387
  145SAPE  H11A15829   2.065   3.333   5.938  2.7004  0.2489 -0.6529
  145SAPE  H11B15830   2.101   3.239   6.087 -1.1774  1.2567 -0.1415
  145SAPE     P15831   1.848   3.128   5.989 -0.3590  0.3725  0.0710
  145SAPE   O1315832   1.798   2.989   6.020  0.0119  0.1229  0.4837
  145SAPE   O1415833   1.839   3.231   6.093  0.0049  1.0429 -0.0749
  145SAPE   O1215834   2.000   3.126   5.942  0.7603 -0.9152  0.1369
  145SAPE   O1115835   1.766   3.180   5.871 -0.3434 -0.6133 -0.5895
  145SAPE    C115836   1.816   3.185   5.738 -0.3343  0.4016 -0.3141
  145SAPE    HA15837   1.903   3.254   5.736  0.0539 -0.0667 -0.0259
  145SAPE    HB15838   1.874   3.096   5.703  4.4285  2.7312  0.7193
  145SAPE    C215839   1.707   3.220   5.646 -0.2394  0.1098  0.3841
  145SAPE    HS15840   1.636   3.282   5.705  0.2472  1.0741 -0.0185
  145SAPE   O2115841   1.650   3.097   5.593 -0.1620 -0.2752 -0.2149
  145SAPE   C2115842   1.525   3.108   5.561 -0.1051  0.0112 -0.3264
  145SAPE   O2215843   1.458   3.205   5.578  0.2668 -0.7374  0.1819
  145SAPE   C2215844   1.478   2.960   5.531  0.1975 -1.3384 -0.3695
  145SAPE   H2R15845   1.528   2.956   5.432  1.8079 -1.1009  0.4143
  145SAPE   H2S15846   1.514   2.884   5.602  0.6932 -0.1766  0.6661
  145SAPE    C315847   1.739   3.312   5.527  0.8709  1.2439 -0.1268
  145SAPE    HX15848   1.783   3.408   5.561 -2.5722  3.3517 -1.1962
  145SAPE    HY15849   1.645   3.345   5.480  0.1079 -0.9226 -0.2460
  145SAPE   O3115850   1.817   3.247   5.423 -0.0536 -0.2513 -0.3386
  145SAPE   C3115851   1.947   3.259   5.433  0.3530 -0.0336 -0.3544
  145SAPE   O3215852   2.006   3.310   5.525 -0.1995  0.3949 -0.7760
  145SAPE   C3215853   2.007   3.208   5.304  0.3027  0.6013  0.0298
  145SAPE   H2X15854   2.085   3.281   5.273 -0.8337  1.5434 -0.6733
  145SAPE   H2Y15855   1.923   3.197   5.233  0.1301 -3.8492  0.5862
  145SAPE   C2315856   1.328   2.949   5.523 -0.5102  0.2251  0.4090
  145SAPE   H3R15857   1.277   3.040   5.484  1.3887  0.7967 -0.8828
  145SAPE   H3S15858   1.296   2.937   5.629  0.6629 -0.5006  0.6981
  145SAPE   C2415859   1.290   2.819   5.441 -0.1921  0.5594  0.4356
  145SAPE   H4R15860   1.341   2.735   5.491  0.7420  0.3798 -0.7543
  145SAPE   H4S15861   1.331   2.821   5.337  0.3225 -0.1507  0.6195
  145SAPE   C2515862   1.148   2.793   5.435  0.1473  0.2574 -0.2304
  145SAPE   H5R15863   1.119   2.725   5.517  1.3605  1.0497  0.8872
  145SAPE   C2615864   1.062   2.829   5.344 -0.0083 -0.2960 -0.1948
  145SAPE   H6R15865   0.954   2.810   5.357  0.0561  0.1507  1.2413
  145SAPE   C2715866   1.089   2.907   5.221 -0.3713 -0.3086 -0.0703
  145SAPE   H7R15867   1.093   2.852   5.125  2.7627 -0.6196  0.1545
  145SAPE   H7S15868   1.187   2.959   5.224  0.9243 -2.6058 -0.4580
  145SAPE   C2815869   0.990   3.021   5.226  0.6151 -0.3681  0.2091
  145SAPE   H8R15870   0.949   3.043   5.326  0.1270  1.7254 -0.3981
  145SAPE   C2915871   0.949   3.095   5.117  0.2190 -0.3208  0.0845
  145SAPE   H9R15872   0.861   3.158   5.138 -0.6640 -0.5589 -2.5556
  145SAPE  C21015873   0.989   3.088   4.973  0.2898 -0.3399  0.1754
  145SAPE  H10R15874   0.975   2.984   4.937  1.7277 -0.2103 -0.8493
  145SAPE  H10S15875   1.100   3.095   4.975  0.2215  0.9451  2.7349
  145SAPE  C21115876   0.923   3.180   4.875  0.0619 -0.2628  0.2641
  145SAPE  H11R15877   0.893   3.276   4.920  0.5210 -0.6125  1.3521
  145SAPE  C21215878   0.908   3.169   4.740  0.2824 -0.0939  0.2400
  145SAPE  H12R15879   0.859   3.249   4.683 -1.6751 -1.2563  0.1582
  145SAPE  C21315880   0.953   3.047   4.661 -0.0691 -0.0114  0.5951
  145SAPE  H13R15881   0.899   3.049   4.564 -0.0512 -2.4540  0.4842
  145SAPE  H13S15882   0.945   2.952   4.719  1.0479 -1.8126 -2.0295
  145SAPE  C21415883   1.103   3.058   4.636  0.6681 -0.0129 -0.3048
  145SAPE  H14R15884   1.158   2.997   4.709 -1.5640 -1.9416 -0.1084
  145SAPE  C21515885   1.162   3.130   4.535 -0.8200 -0.0581  0.5441
  145SAPE  H15R15886   1.272   3.129   4.529 -0.8402 -0.3237  0.1736
  145SAPE  C21615887   1.097   3.216   4.432  0.2948 -0.0890 -0.5055
  145SAPE  H16R15888   1.030   3.286   4.487  0.2121 -1.0605  0.6643
  145SAPE  H16S15889   1.029   3.153   4.371 -0.3321  0.6685 -0.6093
  145SAPE  C21715890   1.182   3.317   4.355  0.6081  0.1938  0.0006
  145SAPE  H17R15891   1.116   3.360   4.277  1.8220  2.4687  0.1382
  145SAPE  H17S15892   1.268   3.263   4.310  1.8687  0.8266  1.5288
  145SAPE  C21815893   1.242   3.440   4.435 -0.0334 -0.1119 -0.6379
  145SAPE  H18R15894   1.261   3.405   4.538  1.2986 -0.2190 -0.8966
  145SAPE  H18S15895   1.163   3.518   4.442  0.2783  0.0283  2.1554
  145SAPE  C21915896   1.365   3.499   4.355 -0.0943  0.7202 -0.7222
  145SAPE  H19R15897   1.424   3.409   4.327  0.4558  0.3626  1.3681
  145SAPE  H19S15898   1.435   3.559   4.417  0.4301 -0.9898  0.4208
  145SAPE  C22015899   1.326   3.593   4.246  0.4878 -0.3820 -1.0524
  145SAPE  H20R15900   1.412   3.636   4.191  2.5526 -0.9519  1.5502
  145SAPE  H20S15901   1.276   3.679   4.296 -2.2947 -1.8866 -1.0410
  145SAPE  H20T15902   1.258   3.544   4.172 -0.4800  1.5445 -1.4929
  145SAPE   C3315903   2.068   3.065   5.322  0.3460 -0.3121 -0.4121
  145SAPE   H3X15904   1.982   2.996   5.339 -1.6637  2.7855  3.4607
  145SAPE   H3Y15905   2.130   3.056   5.413  1.3701 -3.9835 -1.3046
  145SAPE   C3415906   2.151   3.011   5.200 -0.2609 -0.4239  0.4593
  145SAPE   H4X15907   2.186   2.917   5.249 -1.3106 -1.6706 -1.0960
  145SAPE   H4Y15908   2.234   3.084   5.194  0.1706 -0.8840  0.7881
  145SAPE   C3515909   2.057   2.994   5.084 -0.7646 -0.3524 -0.1426
  145SAPE   H5X15910   2.041   3.095   5.042  0.9437  0.9714  2.1638
  145SAPE   H5Y15911   1.964   2.963   5.137  0.0386 -0.2174  1.3967
  145SAPE   C3615912   2.113   2.892   4.980  0.1040 -0.5537 -0.4528
  145SAPE   H6X15913   2.168   2.816   5.039 -0.0923  1.2005  2.1548
  145SAPE   H6Y15914   2.189   2.951   4.924 -0.5009  0.4660 -0.2299
  145SAPE   C3715915   2.000   2.836   4.895  0.4486 -0.6238  0.1246
  145SAPE   H7X15916   1.935   2.917   4.855 -1.4478 -2.1523 -0.0342
  145SAPE   H7Y15917   1.937   2.767   4.956  2.0691 -0.7087  1.8222
  145SAPE   C3815918   2.064   2.762   4.777  0.8369  0.1459 -0.0295
  145SAPE   H8X15919   2.126   2.675   4.804 -1.0562 -0.8642  1.2533
  145SAPE   H8Y15920   2.123   2.842   4.728  2.2324  0.3997  1.9475
  145SAPE   C3915921   1.960   2.698   4.677  0.1753 -0.1778  0.0374
  145SAPE   H9X15922   1.909   2.614   4.727  0.1130 -0.4820 -0.5272
  145SAPE   H9Y15923   2.015   2.653   4.591 -0.3496 -1.0034  0.1316
  145SAPE  C31015924   1.851   2.797   4.632 -0.4099 -0.0953  0.6956
  145SAPE  H10X15925   1.789   2.840   4.714 -1.0487 -0.1192  0.2303
  145SAPE  H10Y15926   1.781   2.737   4.569 -0.8395  0.5904  0.5131
  145SAPE  C31115927   1.898   2.916   4.554  0.3416 -0.1430  0.5860
  145SAPE  H11X15928   1.951   2.879   4.463 -2.9538 -1.5697 -0.9255
  145SAPE  H11Y15929   1.965   2.973   4.622 -0.9910  1.2937  0.7369
  145SAPE  C31215930   1.779   3.003   4.502  0.2438  0.5098 -0.1538
  145SAPE  H12X15931   1.735   2.928   4.434  3.1563 -2.1465  0.6204
  145SAPE  H12Y15932   1.821   3.094   4.453  2.4233 -1.0280 -1.3417
  145SAPE  C31315933   1.675   3.054   4.608 -0.5217 -0.0344  0.0423
  145SAPE  H13X15934   1.725   3.114   4.687  0.5522 -1.5530  0.5715
  145SAPE  H13Y15935   1.625   2.971   4.662  0.4173 -0.4814  0.2493
  145SAPE  C31415936   1.564   3.144   4.551 -0.0554 -0.4074 -0.6792
  145SAPE  H14X15937   1.470   3.088   4.534 -0.3989 -0.1806  0.3907
  145SAPE  H14Y15938   1.605   3.194   4.461  3.1892 -1.1292  0.2788
  145SAPE  C31515939   1.516   3.258   4.643  0.0724 -0.5426 -0.3985
  145SAPE  H15X15940   1.471   3.202   4.728  0.1423 -0.2161 -0.1438
  145SAPE  H15Y15941   1.439   3.330   4.607 -0.4714 -1.1496 -0.4544
  145SAPE  C31615942   1.624   3.353   4.695 -0.7322  0.0758  0.0191
  145SAPE  H16X15943   1.700   3.289   4.747 -0.3763 -0.2290 -0.8600
  145SAPE  H16Y15944   1.587   3.425   4.770 -0.7557 -1.0321  1.1143
  145SAPE  C31715945   1.697   3.433   4.583  0.1435  0.1937  0.1445
  145SAPE  H17X15946   1.629   3.487   4.513  2.4989  2.8364 -0.2906
  145SAPE  H17Y15947   1.754   3.360   4.522  1.0533 -0.0870  1.2989
  145SAPE  C31815948   1.799   3.533   4.639 -0.4298  0.6335 -0.6003
  145SAPE  H18X15949   1.874   3.478   4.700  1.7824  2.7700 -1.2011
  145SAPE  H18Y15950   1.751   3.589   4.722  0.8254 -1.5515  1.7311
  145SAPE  H18Z15951   1.844   3.600   4.562 -0.8138 -0.0239 -1.4059
  146SAPE     N15952   4.410   2.622   6.037 -0.2184  0.0621  0.4826
  146SAPE   HN115953   4.313   2.660   6.039 -0.0562  0.4521  0.9410
  146SAPE   HN215954   4.451   2.662   6.124 -2.4826 -0.9943  2.1502
  146SAPE   HN315955   4.461   2.650   5.951 -1.5207 -1.0458 -0.7049
  146SAPE   C1215956   4.404   2.473   6.047 -0.3940  0.9673  0.3263
  146SAPE  H12A15957   4.321   2.423   5.992  0.4664 -0.7414  0.5121
  146SAPE  H12B15958   4.389   2.453   6.155  3.7307  1.3239  1.1217
  146SAPE   C1115959   4.549   2.413   6.023  0.1222  0.3919  0.0374
  146SAPE  H11A15960   4.578   2.421   5.917 -1.8877  0.1866 -0.5707
  146SAPE  H11B15961   4.530   2.307   6.051  2.8836 -0.1952 -0.0485
  146SAPE     P15962   4.797   2.437   6.107 -0.3165 -0.0797 -0.0554
  146SAPE   O1315963   4.886   2.555   6.115 -0.1004  0.3947  0.5803
  146SAPE   O1415964   4.820   2.348   6.223  0.5650  0.0809 -0.3804
  146SAPE   O1215965   4.643   2.473   6.113  0.0348 -0.4790 -0.1743
  146SAPE   O1115966   4.831   2.377   5.969 -0.1052 -0.2517  0.1369
  146SAPE    C115967   4.879   2.451   5.855 -0.1684 -0.4452 -0.3167
  146SAPE    HA15968   4.832   2.410   5.763 -0.4699 -1.3156  0.2172
  146SAPE    HB15969   4.859   2.560   5.859 -1.0740 -0.6043 -0.2124
  146SAPE    C215970   5.034   2.429   5.838  1.0289  0.8499 -0.0875
  146SAPE    HS15971   5.082   2.483   5.922  1.2895  1.8797 -0.8834
  146SAPE   O2115972   5.067   2.479   5.710  0.0910 -0.0352  0.1236
  146SAPE   C2115973   5.091   2.602   5.687  0.1396 -0.1916 -0.1620
  146SAPE   O2215974   5.061   2.697   5.758 -0.0236  0.4793  0.3118
  146SAPE   C2215975   5.165   2.607   5.553 -0.3391 -1.1396 -0.5166
  146SAPE   H2R15976   5.270   2.607   5.588 -0.7345  0.4518  0.7884
  146SAPE   H2S15977   5.143   2.523   5.483  1.3040 -0.7479 -1.5714
  146SAPE    C315978   5.069   2.277   5.852  0.0121  0.6906 -1.1865
  146SAPE    HX15979   5.025   2.237   5.947  0.7967 -0.5047 -1.3133
  146SAPE    HY15980   5.179   2.268   5.863 -0.1813  1.1533  2.4387
  146SAPE   O3115981   5.017   2.205   5.735  0.0484  0.0806  0.3707
  146SAPE   C3115982   5.080   2.093   5.698 -0.1451 -0.3145  0.2620
  146SAPE   O3215983   5.191   2.056   5.743  0.7773  0.1499  0.1496
  146SAPE   C3215984   5.015   2.028   5.576 -0.1396 -0.4974 -0.3681
  146SAPE   H2X15985   4.911   2.001   5.606 -0.1419 -2.3144 -1.8223
  146SAPE   H2Y15986   5.058   1.926   5.562 -1.0628 -0.8404 -0.8283
  146SAPE   C2315987   5.134   2.734   5.473 -0.7277 -0.3942 -0.2521
  146SAPE   H3R15988   5.182   2.818   5.528 -1.1704 -0.0018 -0.4528
  146SAPE   H3S15989   5.025   2.754   5.464 -1.0008 -2.4242 -2.4842
  146SAPE   C2415990   5.193   2.733   5.330 -0.1351 -0.1859 -0.8218
  146SAPE   H4R15991   5.166   2.834   5.291  1.8518  0.4639 -0.5876
  146SAPE   H4S15992   5.146   2.650   5.271  1.8482 -2.8908  1.1698
  146SAPE   C2515993   5.346   2.713   5.326  1.1461  0.7477 -0.2170
  146SAPE   H5R15994   5.379   2.611   5.349  2.7115  1.2430 -0.2033
  146SAPE   C2615995   5.433   2.807   5.308 -0.2643 -0.2721 -0.4865
  146SAPE   H6R15996   5.538   2.786   5.330  0.1719  0.7072 -1.5416
  146SAPE   C2715997   5.400   2.954   5.282 -0.0893  0.4539  1.1962
  146SAPE   H7R15998   5.321   2.984   5.354 -1.6102 -1.7675  0.5518
  146SAPE   H7S15999   5.351   2.952   5.183 -0.5768  0.3297  1.4362
  146SAPE   C2816000   5.514   3.050   5.281 -0.1781  0.0372 -0.4701
  146SAPE   H8R16001   5.575   3.051   5.372  0.2635  0.4993 -0.7678
  146SAPE   C2916002   5.540   3.155   5.194 -0.1846  0.4154 -0.5868
  146SAPE   H9R16003   5.630   3.216   5.206 -0.4925  1.0051 -1.2018
  146SAPE  C21016004   5.456   3.186   5.080  0.3861 -0.3931  0.8728
  146SAPE  H10R16005   5.501   3.280   5.043  0.1891 -0.5829  0.1274
  146SAPE  H10S16006   5.355   3.201   5.122 -0.7482 -2.5271 -0.8863
  146SAPE  C21116007   5.435   3.093   4.962  0.1124  0.6394  0.2982
  146SAPE  H11R16008   5.425   2.988   4.995 -2.8267  0.5716 -0.4778
  146SAPE  C21216009   5.434   3.112   4.831  0.0131 -0.2830  0.1806
  146SAPE  H12R16010   5.423   3.021   4.770 -1.4330 -0.2451  0.3512
  146SAPE  C21316011   5.470   3.235   4.765  0.0591 -0.3080  0.1716
  146SAPE  H13R16012   5.399   3.311   4.806 -0.9275 -1.5477  0.8138
  146SAPE  H13S16013   5.448   3.219   4.658 -1.6898 -3.3369  0.8580
  146SAPE  C21416014   5.602   3.306   4.782 -1.0852  0.2876  0.4071
  146SAPE  H14R16015   5.611   3.335   4.888 -1.6942  0.8815  0.3041
  146SAPE  C21516016   5.687   3.355   4.687 -0.4730 -0.0922  0.1683
  146SAPE  H15R16017   5.772   3.418   4.716 -0.6295 -0.6872  2.0439
  146SAPE  C21616018   5.676   3.340   4.539 -0.2988  0.4526  0.1503
  146SAPE  H16R16019   5.639   3.440   4.507  2.5750  2.0347  1.3863
  146SAPE  H16S16020   5.594   3.269   4.515  0.2795  0.4695 -2.0641
  146SAPE  C21716021   5.805   3.290   4.477  0.6623  0.7221  0.4264
  146SAPE  H17R16022   5.825   3.186   4.512 -0.9239  0.4897  0.7255
  146SAPE  H17S16023   5.891   3.345   4.520  1.6147 -0.3630 -0.0317
  146SAPE  C21816024   5.809   3.308   4.326  0.0144  0.0304  0.4838
  146SAPE  H18R16025   5.803   3.414   4.294  1.9938  0.2778  0.8064
  146SAPE  H18S16026   5.731   3.243   4.280  1.3015 -0.7176 -0.7062
  146SAPE  C21916027   5.941   3.258   4.265  0.5075 -0.7693 -0.5187
  146SAPE  H19R16028   5.971   3.163   4.315 -0.8081 -1.5795 -1.1993
  146SAPE  H19S16029   6.014   3.338   4.291  0.1324 -0.0929 -1.4921
  146SAPE  C22016030   5.948   3.252   4.111 -0.0758  0.6416  0.6757
  146SAPE  H20R16031   6.049   3.222   4.076  0.0930  0.1612  1.5519
  146SAPE  H20S16032   5.915   3.351   4.072  1.0699 -0.1076 -2.5191
  146SAPE  H20T16033   5.874   3.181   4.069 -1.1431  1.2508  1.4893
  146SAPE   C3316034   5.016   2.107   5.440  0.2889 -0.4243  0.8952
  146SAPE   H3X16035   4.968   2.039   5.366 -0.3769  0.9742  0.0143
  146SAPE   H3Y16036   5.121   2.131   5.414 -0.1732 -0.6831 -1.4737
  146SAPE   C3416037   4.922   2.221   5.424  0.0921 -0.2912  0.0918
  146SAPE   H4X16038   4.959   2.292   5.501 -2.2477  2.1681 -0.8568
  146SAPE   H4Y16039   4.816   2.189   5.438  0.5972 -1.4019  1.5592
  146SAPE   C3516040   4.942   2.278   5.281 -0.2088 -0.7916  0.5695
  146SAPE   H5X16041   4.890   2.199   5.222  0.7438 -0.8157 -0.2672
  146SAPE   H5Y16042   5.049   2.273   5.250 -0.2625 -0.0829  0.2485
  146SAPE   C3616043   4.865   2.407   5.246  0.4562 -0.5810 -0.5284
  146SAPE   H6X16044   4.899   2.501   5.295 -0.9287 -0.4841  0.3266
  146SAPE   H6Y16045   4.762   2.400   5.289  0.7584 -0.4644  0.2303
  146SAPE   C3716046   4.854   2.436   5.095  0.0564  0.2719 -0.1464
  146SAPE   H7X16047   4.824   2.338   5.053  0.3329 -0.4143  1.1996
  146SAPE   H7Y16048   4.954   2.468   5.058 -0.0626  2.4704  1.2363
  146SAPE   C3816049   4.753   2.538   5.049  0.1543  0.0078 -0.5149
  146SAPE   H8X16050   4.759   2.636   5.099 -2.4657 -0.0218 -0.0111
  146SAPE   H8Y16051   4.655   2.491   5.070  1.0315 -1.7095 -0.0018
  146SAPE   C3916052   4.766   2.560   4.892  0.4077  0.8049 -0.0526
  146SAPE   H9X16053   4.754   2.459   4.848 -1.3634  0.8821  0.1673
  146SAPE   H9Y16054   4.868   2.597   4.869  0.5967 -0.7294 -2.0266
  146SAPE  C31016055   4.660   2.648   4.828  0.1430 -0.0794 -0.2381
  146SAPE  H10X16056   4.664   2.746   4.882  0.2325 -0.0914 -0.2225
  146SAPE  H10Y16057   4.556   2.619   4.853  0.3689  1.3248  2.7552
  146SAPE  C31116058   4.678   2.665   4.674  0.2846 -1.4245  0.0728
  146SAPE  H11X16059   4.621   2.584   4.624 -0.6088 -1.8033  1.6284
  146SAPE  H11Y16060   4.785   2.671   4.644  0.2615 -1.2506  0.0257
  146SAPE  C31216061   4.615   2.793   4.623  0.3476 -0.5207 -0.1604
  146SAPE  H12X16062   4.681   2.882   4.634 -0.2284 -0.1531  0.3441
  146SAPE  H12Y16063   4.521   2.815   4.677 -1.1764 -1.1729 -2.3699
  146SAPE  C31316064   4.562   2.773   4.481 -0.3521  0.6577 -0.5973
  146SAPE  H13X16065   4.511   2.868   4.455 -1.9094  0.4400  1.3887
  146SAPE  H13Y16066   4.491   2.689   4.492 -0.2610  0.6272 -0.2321
  146SAPE  C31416067   4.660   2.725   4.373 -0.1582 -0.3218  0.5250
  146SAPE  H14X16068   4.701   2.624   4.395  0.8260  0.0897  0.6351
  146SAPE  H14Y16069   4.739   2.802   4.362 -1.5720  0.9426 -1.3197
  146SAPE  C31516070   4.591   2.714   4.238  1.0786  0.1195 -0.3130
  146SAPE  H15X16071   4.550   2.810   4.201  1.1685  0.8906  1.4815
  146SAPE  H15Y16072   4.507   2.642   4.242 -0.5415  1.9963  1.9274
  146SAPE  C31616073   4.691   2.671   4.133  0.2475 -0.0964  0.9540
  146SAPE  H16X16074   4.728   2.568   4.157  2.5435  0.2712 -0.6995
  146SAPE  H16Y16075   4.781   2.736   4.129  0.3264 -0.2679 -0.4649
  146SAPE  C31716076   4.636   2.672   3.991 -0.0597  0.3207  0.0110
  146SAPE  H17X16077   4.566   2.588   3.968  0.1569 -0.0518  0.6859
  146SAPE  H17Y16078   4.730   2.651   3.936 -0.1277  3.1531 -1.3687
  146SAPE  C31816079   4.583   2.802   3.927 -0.0827  0.3506 -0.3637
  146SAPE  H18X16080   4.656   2.881   3.955  1.0473 -1.0202  0.7197
  146SAPE  H18Y16081   4.489   2.835   3.976 -0.0843  1.8404 -1.3123
  146SAPE  H18Z16082   4.587   2.807   3.816 -0.2812  1.9202 -0.3308
  147SAPE     N16083   3.676   6.229   6.216 -0.0602  0.0301  0.3392
  147SAPE   HN116084   3.760   6.195   6.165 -0.6430 -2.0720  0.6792
  147SAPE   HN216085   3.698   6.278   6.305 -2.0982  2.3436 -0.2994
  147SAPE   HN316086   3.614   6.152   6.250 -1.3843 -0.0526 -2.0058
  147SAPE   C1216087   3.598   6.317   6.128  0.3062  0.4741  0.2231
  147SAPE  H12A16088   3.671   6.382   6.076 -0.1309  0.6996 -0.1074
  147SAPE  H12B16089   3.533   6.386   6.185 -3.4205 -2.6656  0.1733
  147SAPE   C1116090   3.526   6.226   6.019  0.1385 -0.2997  0.2736
  147SAPE  H11A16091   3.613   6.175   5.974  1.1317  0.0208  1.7376
  147SAPE  H11B16092   3.466   6.288   5.949 -1.1097 -2.0945 -0.3120
  147SAPE     P16093   3.330   6.048   5.988 -0.1430  0.0856 -0.1750
  147SAPE   O1316094   3.293   5.922   6.057 -0.3008 -0.0649 -0.0205
  147SAPE   O1416095   3.218   6.145   5.960  0.0335  0.1151 -0.3071
  147SAPE   O1216096   3.442   6.128   6.078 -0.9795 -0.1317  0.2578
  147SAPE   O1116097   3.402   6.020   5.857 -0.1466  0.1140 -0.0219
  147SAPE    C116098   3.477   5.903   5.838 -0.1457  0.6214  0.2508
  147SAPE    HA16099   3.576   5.934   5.799 -0.2709 -0.8187 -1.3603
  147SAPE    HB16100   3.510   5.854   5.933 -2.0480  0.2527  0.7678
  147SAPE    C216101   3.411   5.805   5.738 -0.3261 -0.2381  0.3710
  147SAPE    HS16102   3.478   5.719   5.714  1.6695  1.4775 -0.4764
  147SAPE   O2116103   3.365   5.863   5.612  0.3636 -0.4881  0.6598
  147SAPE   C2116104   3.468   5.902   5.530  0.0917  0.3597  0.2015
  147SAPE   O2216105   3.580   5.904   5.564  0.2082 -0.0390 -1.3708
  147SAPE   C2216106   3.412   5.949   5.399 -0.2225 -0.3355  0.0088
  147SAPE   H2R16107   3.309   5.987   5.414  1.1711  4.6971 -1.2053
  147SAPE   H2S16108   3.462   6.047   5.382  1.1833 -1.0629 -0.1392
  147SAPE    C316109   3.289   5.745   5.808  0.5773 -0.5475 -0.8946
  147SAPE    HX16110   3.221   5.831   5.828  1.5394 -0.2237  1.3153
  147SAPE    HY16111   3.321   5.708   5.908 -1.2594 -1.5440 -0.6352
  147SAPE   O3116112   3.230   5.643   5.730 -0.3164  0.1835  0.0770
  147SAPE   C3116113   3.121   5.658   5.659 -0.4933 -0.7148  0.8534
  147SAPE   O3216114   3.054   5.756   5.668  0.6945  0.6127  0.2927
  147SAPE   C3216115   3.097   5.535   5.574 -0.0357 -0.6216  0.1784
  147SAPE   H2X16116   2.990   5.509   5.566 -0.4597  0.7696  1.0909
  147SAPE   H2Y16117   3.135   5.444   5.625 -1.3664 -1.8470 -0.9306
  147SAPE   C2316118   3.428   5.846   5.283 -0.0816 -0.1413  0.2618
  147SAPE   H3R16119   3.351   5.872   5.207 -0.6302  0.6782  1.0675
  147SAPE   H3S16120   3.389   5.746   5.313 -0.1442  0.1170  1.0882
  147SAPE   C2416121   3.571   5.836   5.226  0.0687 -0.5179 -0.1869
  147SAPE   H4R16122   3.641   5.858   5.309  1.0938 -2.2124 -0.5505
  147SAPE   H4S16123   3.591   5.930   5.169 -2.0318 -0.8567 -1.6105
  147SAPE   C2516124   3.608   5.716   5.156 -0.1606 -0.0744  0.1538
  147SAPE   H5R16125   3.657   5.630   5.204 -1.1652  0.4648  2.2719
  147SAPE   C2616126   3.602   5.708   5.020 -0.3470  0.1529 -0.0096
  147SAPE   H6R16127   3.636   5.620   4.964  1.5109  1.3915 -0.9501
  147SAPE   C2716128   3.560   5.813   4.923 -0.9010  0.5671 -0.0512
  147SAPE   H7R16129   3.619   5.904   4.947  1.4584 -1.3151  1.7651
  147SAPE   H7S16130   3.456   5.844   4.947 -1.1642 -0.9942  0.9824
  147SAPE   C2816131   3.564   5.783   4.778 -0.5657  0.0057  0.5223
  147SAPE   H8R16132   3.550   5.679   4.743 -1.7131  0.7964 -1.5442
  147SAPE   C2916133   3.593   5.861   4.672  0.3263  0.2667  0.1087
  147SAPE   H9R16134   3.625   5.808   4.581 -0.7611  0.1017 -0.2041
  147SAPE  C21016135   3.630   6.009   4.674 -0.1687 -0.5348  0.1873
  147SAPE  H10R16136   3.740   6.018   4.676 -0.0699 -1.2247 -0.8592
  147SAPE  H10S16137   3.601   6.051   4.772  0.6109  0.5609 -0.0379
  147SAPE  C21116138   3.557   6.069   4.555  0.3171  0.7111  0.0602
  147SAPE  H11R16139   3.606   6.039   4.462 -0.1926  0.0404 -0.0011
  147SAPE  C21216140   3.434   6.124   4.540 -0.8784  0.5987 -0.0578
  147SAPE  H12R16141   3.407   6.146   4.435 -1.0022  1.1522  0.0895
  147SAPE  C21316142   3.337   6.159   4.653 -0.3671  0.0315 -0.0873
  147SAPE  H13R16143   3.288   6.255   4.628  0.3631  0.8720  1.6241
  147SAPE  H13S16144   3.388   6.188   4.747 -2.1920  0.3680  0.8231
  147SAPE  C21416145   3.224   6.059   4.678  0.4104 -0.2937 -0.6425
  147SAPE  H14R16146   3.214   5.979   4.603  0.7146 -1.0501  0.1105
  147SAPE  C21516147   3.138   6.063   4.783  1.0823  0.0895  0.2454
  147SAPE  H15R16148   3.067   5.981   4.802 -0.1471  1.1816  0.5473
  147SAPE  C21616149   3.134   6.158   4.895  0.1123 -0.5002 -0.4337
  147SAPE  H16R16150   3.027   6.169   4.923  0.2795  4.0465 -0.7047
  147SAPE  H16S16151   3.173   6.256   4.859  1.6366 -1.1095 -0.4851
  147SAPE  C21716152   3.217   6.121   5.022  0.4346  0.1234 -0.0682
  147SAPE  H17R16153   3.319   6.158   5.000  0.9103 -2.4957 -3.0700
  147SAPE  H17S16154   3.239   6.012   5.025 -2.8786 -0.7390 -2.0438
  147SAPE  C21816155   3.171   6.168   5.163 -0.2748 -0.7774  0.1013
  147SAPE  H18R16156   3.160   6.278   5.156 -0.7953 -0.7580  1.1053
  147SAPE  H18S16157   3.244   6.147   5.244 -0.1859  1.0702  0.5413
  147SAPE  C21916158   3.031   6.118   5.198 -0.9722 -0.4131 -0.4865
  147SAPE  H19R16159   3.017   6.014   5.164 -2.1990  0.4225 -2.6989
  147SAPE  H19S16160   2.964   6.189   5.145 -1.0409  0.2504  0.4411
  147SAPE  C22016161   2.997   6.141   5.348 -0.7608  0.5668 -0.3839
  147SAPE  H20R16162   2.915   6.069   5.368  0.5417 -0.9899 -0.4513
  147SAPE  H20S16163   2.965   6.246   5.368 -2.2488  0.0010  0.3724
  147SAPE  H20T16164   3.075   6.103   5.418  0.6395  1.7335 -1.2622
  147SAPE   C3316165   3.162   5.554   5.433  0.1174 -0.5328  0.0896
  147SAPE   H3X16166   3.181   5.456   5.386  2.7096 -0.1205  0.0991
  147SAPE   H3Y16167   3.260   5.607   5.436  0.0890 -0.5119  2.1291
  147SAPE   C3416168   3.081   5.646   5.331 -0.4451 -0.2162 -0.3563
  147SAPE   H4X16169   3.089   5.751   5.366  0.7024 -0.7749  1.1502
  147SAPE   H4Y16170   2.976   5.624   5.362 -0.3780  1.2330  0.9653
  147SAPE   C3516171   3.129   5.634   5.181 -0.6689 -0.2262 -0.0850
  147SAPE   H5X16172   3.116   5.527   5.156  0.4884  0.1776 -2.6969
  147SAPE   H5Y16173   3.238   5.654   5.167 -0.0138 -3.8754 -1.2835
  147SAPE   C3616174   3.034   5.712   5.083  0.2410 -0.4498 -1.2666
  147SAPE   H6X16175   3.030   5.814   5.128  0.1494 -1.5942  1.5143
  147SAPE   H6Y16176   2.928   5.679   5.080 -0.5962  1.7621  0.6139
  147SAPE   C3716177   3.091   5.746   4.941 -0.5581  0.3549  0.1058
  147SAPE   H7X16178   3.159   5.833   4.954 -0.4470  0.3281 -0.2786
  147SAPE   H7Y16179   3.004   5.772   4.878 -0.6266 -0.6463 -0.2324
  147SAPE   C3816180   3.174   5.636   4.875  0.3051 -0.0791  0.0180
  147SAPE   H8X16181   3.105   5.551   4.888 -1.0406  1.3722  3.9121
  147SAPE   H8Y16182   3.269   5.604   4.923  1.0578  1.2366 -0.5350
  147SAPE   C3916183   3.203   5.663   4.725  0.2380 -0.7332  0.4714
  147SAPE   H9X16184   3.264   5.754   4.709 -1.0353 -0.0084 -0.4350
  147SAPE   H9Y16185   3.105   5.677   4.674  1.0802  0.5978 -0.8693
  147SAPE  C31016186   3.277   5.551   4.665 -0.3002  0.7070  0.0504
  147SAPE  H10X16187   3.217   5.463   4.698 -1.3519  2.0264  1.7848
  147SAPE  H10Y16188   3.381   5.547   4.704 -0.6188 -1.2456  0.8466
  147SAPE  C31116189   3.284   5.568   4.508 -0.5543  0.1534  0.5080
  147SAPE  H11X16190   3.178   5.557   4.476 -0.2374  0.2559 -0.6003
  147SAPE  H11Y16191   3.340   5.488   4.456 -1.8697 -0.4083 -0.0976
  147SAPE  C31216192   3.330   5.707   4.457 -0.2455 -0.5095  1.1797
  147SAPE  H12X16193   3.410   5.743   4.524  0.3534 -1.7571  1.1608
  147SAPE  H12Y16194   3.241   5.772   4.469 -1.1525 -1.4074 -0.3280
  147SAPE  C31316195   3.369   5.699   4.305 -0.3249 -0.5347  0.3534
  147SAPE  H13X16196   3.277   5.674   4.248 -0.6241 -1.2749  1.1430
  147SAPE  H13Y16197   3.443   5.621   4.275 -1.1950 -0.9396 -0.8378
  147SAPE  C31416198   3.428   5.836   4.255 -0.3345 -0.7044 -0.2766
  147SAPE  H14X16199   3.539   5.830   4.266 -0.3231 -0.9410 -0.5083
  147SAPE  H14Y16200   3.384   5.918   4.316  0.5397 -2.6327  3.2269
  147SAPE  C31516201   3.401   5.839   4.101 -0.8308 -0.0764  0.0466
  147SAPE  H15X16202   3.292   5.846   4.082 -0.7014  1.8958 -0.2539
  147SAPE  H15Y16203   3.447   5.752   4.050 -1.6812 -0.3178 -0.3238
  147SAPE  C31616204   3.471   5.962   4.036 -0.3592 -0.0276  0.4291
  147SAPE  H16X16205   3.435   5.981   3.933  1.1954  0.3491 -0.0671
  147SAPE  H16Y16206   3.581   5.954   4.027 -0.3357  0.4927  0.2055
  147SAPE  C31716207   3.450   6.098   4.118  0.2034  0.4412  0.3011
  147SAPE  H17X16208   3.493   6.173   4.049 -0.0480  0.7592  0.4828
  147SAPE  H17Y16209   3.506   6.101   4.214  2.9805 -1.9877 -1.0966
  147SAPE  C31816210   3.305   6.141   4.146 -0.4731  0.4770  0.2461
  147SAPE  H18X16211   3.264   6.083   4.232  0.8280  0.2340  0.7264
  147SAPE  H18Y16212   3.241   6.138   4.055 -1.2388 -0.0260  0.7827
  147SAPE  H18Z16213   3.307   6.242   4.192 -1.0057 -1.5220  5.3198
  148SAPE     N16214   2.439   2.201   6.253 -0.0354  0.0139  0.2815
  148SAPE   HN116215   2.405   2.190   6.350 -0.2583  0.1304  0.2162
  148SAPE   HN216216   2.396   2.136   6.183  0.1151 -0.4822  0.6466
  148SAPE   HN316217   2.540   2.178   6.251 -0.2090 -0.8934  1.2915
  148SAPE   C1216218   2.412   2.343   6.214 -0.2319 -0.0519  0.4136
  148SAPE  H12A16219   2.485   2.363   6.133 -0.9872  1.4253  0.0624
  148SAPE  H12B16220   2.437   2.411   6.298  0.5553  0.1491  0.0282
  148SAPE   C1116221   2.264   2.352   6.171 -0.0615  0.9630 -0.2894
  148SAPE  H11A16222   2.202   2.298   6.246 -0.2434 -0.0907 -1.1926
  148SAPE  H11B16223   2.232   2.304   6.076  1.1598 -0.2820 -0.0911
  148SAPE     P16224   2.234   2.572   6.041  0.2409  0.0917  0.4575
  148SAPE   O1316225   2.231   2.715   6.076  0.0693 -0.8304 -0.4300
  148SAPE   O1416226   2.345   2.528   5.956 -0.1207  0.2578  0.1785
  148SAPE   O1216227   2.217   2.485   6.169 -0.4378 -0.1872  0.0858
  148SAPE   O1116228   2.098   2.536   5.971  0.1160  0.1241 -0.5079
  148SAPE    C116229   1.973   2.588   6.025 -0.3231 -0.1136 -0.6671
  148SAPE    HA16230   1.913   2.505   6.069  0.4374 -0.2360  0.1700
  148SAPE    HB16231   1.988   2.657   6.111 -3.2046 -2.2379  1.7579
  148SAPE    C216232   1.878   2.662   5.919 -0.0301  0.1078 -0.0699
  148SAPE    HS16233   1.812   2.728   5.979  1.5508  0.0354  1.8640
  148SAPE   O2116234   1.817   2.566   5.837 -0.2412 -0.5442 -0.2763
  148SAPE   C2116235   1.697   2.599   5.784 -0.1756  0.7708  0.7026
  148SAPE   O2216236   1.653   2.711   5.780 -0.1250 -0.2502  0.4075
  148SAPE   C2216237   1.628   2.475   5.725 -0.5341 -0.2598 -1.0640
  148SAPE   H2R16238   1.553   2.446   5.802 -0.1615  0.0249 -0.5867
  148SAPE   H2S16239   1.581   2.515   5.633 -1.3832  0.3959 -0.3676
  148SAPE    C316240   1.961   2.761   5.827  0.2530  0.0439 -0.5435
  148SAPE    HX16241   2.004   2.833   5.900 -0.0375 -0.6525  0.3363
  148SAPE    HY16242   1.875   2.799   5.768 -1.7073 -1.3988  1.2460
  148SAPE   O3116243   2.058   2.697   5.739 -0.4316  0.6563 -0.0092
  148SAPE   C3116244   2.169   2.770   5.732  0.5979 -0.0100  0.4779
  148SAPE   O3216245   2.196   2.871   5.788  0.5701 -0.0055  0.8095
  148SAPE   C3216246   2.275   2.689   5.653  0.0366  0.0267 -0.4611
  148SAPE   H2X16247   2.239   2.585   5.670 -0.5378  0.1152 -1.1009
  148SAPE   H2Y16248   2.373   2.694   5.706  0.3586 -0.2093 -1.0256
  148SAPE   C2316249   1.721   2.359   5.695 -0.1141 -0.1956 -0.6485
  148SAPE   H3R16250   1.652   2.272   5.693 -1.3822  0.7003  1.2279
  148SAPE   H3S16251   1.780   2.343   5.788 -0.1392 -2.1395 -0.9128
  148SAPE   C2416252   1.810   2.373   5.571 -0.7356  0.4643 -0.1602
  148SAPE   H4R16253   1.880   2.287   5.571 -0.6024  0.4051  3.6209
  148SAPE   H4S16254   1.876   2.461   5.583  1.5007 -1.3710  1.9479
  148SAPE   C2516255   1.724   2.388   5.443  0.1707 -0.1416 -0.6958
  148SAPE   H5R16256   1.633   2.327   5.429 -0.7732  1.7280 -3.4306
  148SAPE   C2616257   1.751   2.487   5.356  0.0863  0.1218 -0.5040
  148SAPE   H6R16258   1.672   2.510   5.283  0.6591 -3.2318 -2.4346
  148SAPE   C2716259   1.867   2.582   5.349  0.1298 -0.5681 -0.1038
  148SAPE   H7R16260   1.919   2.594   5.252  2.4337  3.5084  1.3650
  148SAPE   H7S16261   1.951   2.548   5.415  2.2169  1.3968 -1.5938
  148SAPE   C2816262   1.834   2.712   5.411  0.2661 -0.2237 -0.8019
  148SAPE   H8R16263   1.857   2.710   5.519 -1.3648  0.5989 -0.4176
  148SAPE   C2916264   1.773   2.821   5.358  0.1272  0.1670 -0.5543
  148SAPE   H9R16265   1.784   2.908   5.425 -0.0509 -0.5340  0.4207
  148SAPE  C21016266   1.725   2.842   5.220 -0.7115  0.3965  0.1671
  148SAPE  H10R16267   1.786   2.785   5.147 -1.8228 -0.0533 -0.4293
  148SAPE  H10S16268   1.735   2.946   5.182 -2.0549 -0.1437 -1.7989
  148SAPE  C21116269   1.575   2.799   5.207 -0.1301  0.2124 -0.6586
  148SAPE  H11R16270   1.528   2.762   5.299  0.4316 -0.0018 -0.4498
  148SAPE  C21216271   1.494   2.809   5.103 -0.7095 -0.0585 -0.1217
  148SAPE  H12R16272   1.392   2.771   5.118  0.3946 -2.7236  1.5048
  148SAPE  C21316273   1.533   2.868   4.969 -0.4676  0.0512  0.1281
  148SAPE  H13R16274   1.564   2.788   4.899 -0.4874  0.4879 -0.3888
  148SAPE  H13S16275   1.623   2.932   4.983  0.3946 -1.1528  0.1608
  148SAPE  C21416276   1.421   2.957   4.908 -0.3848 -0.1771  0.5338
  148SAPE  H14R16277   1.377   2.918   4.815  2.2607  0.2826 -1.0165
  148SAPE  C21516278   1.388   3.080   4.953  0.3555  0.0147 -0.1966
  148SAPE  H15R16279   1.304   3.139   4.914  0.5753 -0.2514 -1.0969
  148SAPE  C21616280   1.444   3.150   5.070 -0.5157 -0.3743  0.1105
  148SAPE  H16R16281   1.497   3.083   5.141  0.1218 -0.6314 -0.6055
  148SAPE  H16S16282   1.352   3.194   5.115  0.7525  2.4085  0.1819
  148SAPE  C21716283   1.531   3.266   5.024 -0.2285  0.3571 -0.3103
  148SAPE  H17R16284   1.457   3.338   4.984 -0.9617 -0.1102  0.1785
  148SAPE  H17S16285   1.595   3.230   4.941  0.9606 -1.7049  1.3765
  148SAPE  C21816286   1.632   3.322   5.126 -0.4345  0.1391 -0.2555
  148SAPE  H18R16287   1.676   3.237   5.183 -0.8034  0.5693  0.6944
  148SAPE  H18S16288   1.580   3.381   5.204 -2.9396 -2.0880 -0.1318
  148SAPE  C21916289   1.740   3.405   5.056  0.0368 -0.4542 -0.2374
  148SAPE  H19R16290   1.681   3.473   4.992 -1.6222 -1.3906  0.2456
  148SAPE  H19S16291   1.818   3.342   5.007 -0.7193 -0.6022 -1.2667
  148SAPE  C22016292   1.821   3.490   5.155 -0.8989 -0.7009 -0.3528
  148SAPE  H20R16293   1.883   3.434   5.228 -0.4566  0.9328  0.5792
  148SAPE  H20S16294   1.763   3.567   5.210  0.5338 -0.2992  0.6441
  148SAPE  H20T16295   1.900   3.547   5.101 -0.3414  0.3167  1.4401
  148SAPE   C3316296   2.273   2.725   5.505 -0.0679  0.3587 -0.8842
  148SAPE   H3X16297   2.352   2.801   5.487  2.3987 -2.1932 -1.5781
  148SAPE   H3Y16298   2.174   2.760   5.471  0.0587 -0.3495 -2.0247
  148SAPE   C3416299   2.304   2.596   5.427  0.1438  0.8915 -0.9941
  148SAPE   H4X16300   2.221   2.525   5.446 -0.5578  2.2551  1.4342
  148SAPE   H4Y16301   2.401   2.566   5.472  0.3206  3.3622  0.4543
  148SAPE   C3516302   2.314   2.622   5.278 -0.1136 -0.1654  0.2650
  148SAPE   H5X16303   2.402   2.689   5.267 -0.6502  0.4244 -0.5205
  148SAPE   H5Y16304   2.219   2.665   5.240 -1.1229 -0.9223  1.8035
  148SAPE   C3616305   2.327   2.494   5.189 -0.4262 -0.5038  0.9341
  148SAPE   H6X16306   2.258   2.417   5.229  2.7289 -2.9494  2.0373
  148SAPE   H6Y16307   2.428   2.451   5.207 -0.0147 -0.7351 -1.6284
  148SAPE   C3716308   2.319   2.514   5.041 -0.2533 -0.0375 -0.0095
  148SAPE   H7X16309   2.405   2.574   5.004  0.2348  0.5231  1.9144
  148SAPE   H7Y16310   2.226   2.572   5.025 -0.2709  0.5868  2.0999
  148SAPE   C3816311   2.295   2.381   4.969 -0.6981  0.2528  0.2500
  148SAPE   H8X16312   2.208   2.328   5.015 -0.4930 -0.7401 -0.4503
  148SAPE   H8Y16313   2.392   2.327   4.977 -0.4674  0.2596 -1.7691
  148SAPE   C3916314   2.261   2.394   4.822 -0.5326 -0.1301  0.2236
  148SAPE   H9X16315   2.169   2.456   4.819 -1.1712 -1.0141  1.1562
  148SAPE   H9Y16316   2.238   2.292   4.784  0.9595 -0.7431  0.8730
  148SAPE  C31016317   2.381   2.440   4.739 -0.3325  1.0141  0.1419
  148SAPE  H10X16318   2.477   2.390   4.765 -0.4939  1.3649  1.4645
  148SAPE  H10Y16319   2.406   2.544   4.765 -1.8990  1.1175  1.4322
  148SAPE  C31116320   2.353   2.428   4.591  0.2463  0.3963  0.3228
  148SAPE  H11X16321   2.349   2.321   4.565  1.1261  0.5088 -0.3458
  148SAPE  H11Y16322   2.448   2.467   4.549  0.6339 -1.9212 -1.0552
  148SAPE  C31216323   2.232   2.512   4.543  0.3946  1.0183  0.9441
  148SAPE  H12X16324   2.248   2.619   4.569  2.7952  1.1589 -0.7926
  148SAPE  H12Y16325   2.140   2.479   4.594  0.3140  1.1885  0.9089
  148SAPE  C31316326   2.202   2.498   4.394  0.7817  0.5756  0.9232
  148SAPE  H13X16327   2.281   2.435   4.348  0.0834  0.9255 -0.8615
  148SAPE  H13Y16328   2.208   2.597   4.343  1.1498  2.4096  4.2703
  148SAPE  C31416329   2.069   2.433   4.360  0.4447  0.6908  0.1843
  148SAPE  H14X16330   1.976   2.491   4.378 -2.3232 -3.5957  1.3571
  148SAPE  H14Y16331   2.047   2.346   4.426  0.0063  0.3603 -0.3952
  148SAPE  C31516332   2.071   2.371   4.216  0.0286  0.4318  0.8790
  148SAPE  H15X16333   1.970   2.331   4.191  0.2633  0.3221  0.0938
  148SAPE  H15Y16334   2.151   2.294   4.210 -1.0006 -0.6304  0.3972
  148SAPE  C31616335   2.092   2.479   4.107 -0.0236  0.0107  0.1434
  148SAPE  H16X16336   2.183   2.538   4.131 -1.3786  2.0258  0.5289
  148SAPE  H16Y16337   2.010   2.554   4.102 -0.1753 -0.1548  0.1163
  148SAPE  C31716338   2.112   2.420   3.966 -0.6320  0.5071  0.4408
  148SAPE  H17X16339   2.017   2.392   3.915  0.1238 -0.2441 -0.6041
  148SAPE  H17Y16340   2.176   2.331   3.978 -0.3696  0.1938 -2.5619
  148SAPE  C31816341   2.184   2.520   3.889 -1.0069  0.0006  0.0428
  148SAPE  H18X16342   2.282   2.548   3.931  2.0317 -3.7152 -3.6600
  148SAPE  H18Y16343   2.129   2.615   3.871 -0.5258  0.0439 -1.3722
  148SAPE  H18Z16344   2.218   2.476   3.793 -3.7075 -2.6795  0.1592
  149SAPE     N16345   2.729   1.439   5.981  0.3596 -0.4180  0.0642
  149SAPE   HN116346   2.704   1.532   5.942  1.0333  0.5485  1.8117
  149SAPE   HN216347   2.641   1.384   5.969 -1.5440  2.4823 -0.4148
  149SAPE   HN316348   2.752   1.439   6.082 -0.1742  0.0051  0.1918
  149SAPE   C1216349   2.828   1.376   5.883 -0.2165 -0.0797  0.2113
  149SAPE  H12A16350   2.778   1.362   5.785 -0.1445  2.9925 -0.3830
  149SAPE  H12B16351   2.844   1.276   5.928  1.1578  0.1441  0.2539
  149SAPE   C1116352   2.957   1.458   5.879  0.8793  0.9953  0.0436
  149SAPE  H11A16353   3.018   1.413   5.798  0.3085 -1.6909  0.9732
  149SAPE  H11B16354   3.008   1.444   5.977 -1.5111 -0.0481  1.2361
  149SAPE     P16355   3.060   1.683   5.855 -0.3588 -0.3039  0.2163
  149SAPE   O1316356   3.038   1.805   5.938 -0.1914 -0.2103  0.5325
  149SAPE   O1416357   3.177   1.596   5.890  0.7281  0.6961  0.1367
  149SAPE   O1216358   2.929   1.593   5.854 -0.8879  0.1266 -0.5455
  149SAPE   O1116359   3.073   1.737   5.707  0.2045 -0.3777  0.3332
  149SAPE    C116360   2.954   1.729   5.620 -0.8147 -0.7555 -0.3972
  149SAPE    HA16361   2.867   1.757   5.682  1.7833  2.0427  2.3068
  149SAPE    HB16362   2.963   1.806   5.540 -0.3142 -0.3672  0.0255
  149SAPE    C216363   2.951   1.594   5.544  1.1563 -0.3959  0.8042
  149SAPE    HS16364   2.939   1.515   5.620  2.6095 -2.5453 -1.0632
  149SAPE   O2116365   3.077   1.593   5.470 -0.0963  0.3526 -0.0153
  149SAPE   C2116366   3.115   1.471   5.447 -0.0025 -0.9765 -0.5296
  149SAPE   O2216367   3.064   1.367   5.487 -0.2158  0.1319 -0.4455
  149SAPE   C2216368   3.238   1.481   5.359 -0.0545  0.0188 -0.1205
  149SAPE   H2R16369   3.284   1.582   5.356  3.7005 -1.5575 -0.3043
  149SAPE   H2S16370   3.316   1.416   5.403  1.2844  1.5393 -0.1526
  149SAPE    C316371   2.839   1.587   5.435 -0.0287  0.2784  0.6177
  149SAPE    HX16372   2.837   1.483   5.397  0.1183  0.3443  0.4219
  149SAPE    HY16373   2.864   1.651   5.348 -0.6702 -1.8465 -1.2182
  149SAPE   O3116374   2.712   1.638   5.483 -0.5435  0.3604  0.8345
  149SAPE   C3116375   2.629   1.551   5.530  0.1498 -0.2938 -0.3715
  149SAPE   O3216376   2.653   1.436   5.560 -1.1685  0.4412 -0.6642
  149SAPE   C3216377   2.487   1.605   5.523 -0.3278 -0.0593 -0.1215
  149SAPE   H2X16378   2.486   1.682   5.443  3.9763 -1.3035 -1.6918
  149SAPE   H2Y16379   2.443   1.630   5.621  0.2981 -2.3858  0.8228
  149SAPE   C2316380   3.217   1.439   5.208  0.2421  0.3582  0.6166
  149SAPE   H3R16381   3.157   1.346   5.205  0.4785  0.2245 -1.8150
  149SAPE   H3S16382   3.318   1.419   5.166 -0.8035 -1.0539 -1.4165
  149SAPE   C2416383   3.148   1.544   5.121 -0.0344 -0.3037  0.2077
  149SAPE   H4R16384   3.051   1.579   5.163  0.6396  0.4766  1.1633
  149SAPE   H4S16385   3.123   1.502   5.021 -0.1001  0.0660  0.0665
  149SAPE   C2516386   3.243   1.658   5.090 -0.1418 -0.1666  0.5196
  149SAPE   H5R16387   3.322   1.627   5.019  0.9521 -1.2439  2.1320
  149SAPE   C2616388   3.229   1.788   5.110  0.2870  0.1482 -0.4727
  149SAPE   H6R16389   3.294   1.862   5.061  0.9795 -0.3665 -0.3382
  149SAPE   C2716390   3.110   1.846   5.180  0.0703  0.1633  0.3998
  149SAPE   H7R16391   3.098   1.790   5.275 -2.3954 -0.2502 -0.1039
  149SAPE   H7S16392   3.025   1.826   5.112 -1.4214  1.3878  1.8250
  149SAPE   C2816393   3.129   1.991   5.219 -0.3714 -0.4947  0.1161
  149SAPE   H8R16394   3.088   2.073   5.158 -1.0059  0.7558  2.1279
  149SAPE   C2916395   3.191   2.033   5.335 -0.6239 -0.3942 -0.5235
  149SAPE   H9R16396   3.211   2.141   5.344 -0.4441 -0.5110  0.5049
  149SAPE  C21016397   3.258   1.948   5.447  0.3508  0.0720  1.0338
  149SAPE  H10R16398   3.290   1.849   5.409 -0.4796 -0.1148  0.7989
  149SAPE  H10S16399   3.182   1.916   5.521 -1.4024 -2.6628 -1.7379
  149SAPE  C21116400   3.363   2.027   5.516 -0.5721  0.4064  0.3353
  149SAPE  H11R16401   3.323   2.093   5.595 -1.8011 -1.2784  1.1794
  149SAPE  C21216402   3.495   2.014   5.505  0.1604 -0.0574 -0.7151
  149SAPE  H12R16403   3.567   2.067   5.569 -0.9062  0.5412  0.0215
  149SAPE  C21316404   3.577   1.915   5.414 -0.0779 -0.6210  0.1992
  149SAPE  H13R16405   3.667   1.956   5.362 -0.9889  0.6255 -0.4553
  149SAPE  H13S16406   3.518   1.876   5.329 -0.6838 -0.7967  0.6929
  149SAPE  C21416407   3.612   1.800   5.508  0.7840  0.8151  0.1961
  149SAPE  H14R16408   3.638   1.810   5.614  2.1826  0.5044 -0.1000
  149SAPE  C21516409   3.630   1.672   5.460  1.0095 -0.0858 -0.5028
  149SAPE  H15R16410   3.670   1.596   5.528  1.0637  1.5565  1.3873
  149SAPE  C21616411   3.617   1.620   5.317  0.0046 -0.9665 -0.2915
  149SAPE  H16R16412   3.612   1.692   5.233  1.0628 -0.9016 -0.3176
  149SAPE  H16S16413   3.537   1.544   5.306  0.5568 -1.7939  1.1587
  149SAPE  C21716414   3.750   1.551   5.279 -0.4684 -0.3420  0.1727
  149SAPE  H17R16415   3.779   1.474   5.354 -1.2460 -2.2052 -1.3406
  149SAPE  H17S16416   3.827   1.631   5.270 -1.8768  0.9609 -0.5550
  149SAPE  C21816417   3.740   1.488   5.140  0.5400  0.0855 -0.0518
  149SAPE  H18R16418   3.824   1.422   5.109 -0.8243 -2.0489  0.5305
  149SAPE  H18S16419   3.728   1.567   5.064  1.1243  1.2320  1.0196
  149SAPE  C21916420   3.626   1.387   5.114  0.1421 -0.1924 -0.4032
  149SAPE  H19R16421   3.527   1.437   5.122 -0.7045 -1.7747 -0.6372
  149SAPE  H19S16422   3.636   1.314   5.198  0.7779  0.1803 -0.1450
  149SAPE  C22016423   3.637   1.325   4.977  0.4200 -0.3085 -0.1933
  149SAPE  H20R16424   3.579   1.231   4.963  1.7786 -0.9223 -2.0814
  149SAPE  H20S16425   3.744   1.306   4.953  0.4121 -3.5261  1.7477
  149SAPE  H20T16426   3.596   1.395   4.901 -0.8214 -0.0233  0.6939
  149SAPE   C3316427   2.385   1.484   5.479 -0.4842 -0.0138 -0.2610
  149SAPE   H3X16428   2.285   1.532   5.473 -0.7987 -0.5909  0.2587
  149SAPE   H3Y16429   2.366   1.414   5.562 -1.0944  0.8807  0.3648
  149SAPE   C3416430   2.413   1.419   5.339 -0.4856 -0.3524 -0.1207
  149SAPE   H4X16431   2.343   1.336   5.316  1.5708 -2.3180  0.2702
  149SAPE   H4Y16432   2.512   1.367   5.345 -0.1234  0.4193  0.8311
  149SAPE   C3516433   2.417   1.529   5.229  0.5627  0.4116  0.2713
  149SAPE   H5X16434   2.500   1.603   5.229  0.3291  0.6967 -1.0999
  149SAPE   H5Y16435   2.321   1.582   5.249 -0.1896 -0.1637 -1.6734
  149SAPE   C3616436   2.402   1.465   5.093 -0.2667 -0.1100  0.3987
  149SAPE   H6X16437   2.300   1.425   5.078 -0.0313 -0.8736  0.7872
  149SAPE   H6Y16438   2.468   1.376   5.089  0.9605  0.7444  0.8037
  149SAPE   C3716439   2.439   1.565   4.974  0.0801  1.2706 -0.1043
  149SAPE   H7X16440   2.547   1.587   4.965 -0.3198  2.7459 -2.2093
  149SAPE   H7Y16441   2.382   1.660   4.983 -0.4468  0.8386  1.3834
  149SAPE   C3816442   2.379   1.509   4.842 -0.3804  0.3413  0.5105
  149SAPE   H8X16443   2.270   1.504   4.864 -0.3947 -1.2047  0.1916
  149SAPE   H8Y16444   2.418   1.405   4.834 -0.6768  0.1158  1.7563
  149SAPE   C3916445   2.429   1.588   4.720  0.3807  0.2055 -0.3727
  149SAPE   H9X16446   2.536   1.559   4.717  0.0866 -1.0858  0.5870
  149SAPE   H9Y16447   2.416   1.696   4.744  1.3705  0.7446 -2.1439
  149SAPE  C31016448   2.359   1.543   4.593 -0.1255  0.2451 -0.2306
  149SAPE  H10X16449   2.255   1.581   4.604  0.0058  1.5140 -2.5582
  149SAPE  H10Y16450   2.356   1.432   4.598  0.2683  0.2508  0.1875
  149SAPE  C31116451   2.427   1.599   4.463 -0.3070 -0.4345  0.2764
  149SAPE  H11X16452   2.522   1.541   4.457  0.1799  0.4013 -0.2091
  149SAPE  H11Y16453   2.443   1.708   4.478 -1.0447 -0.2856 -0.0160
  149SAPE  C31216454   2.339   1.556   4.342 -0.1629 -0.0800 -0.9009
  149SAPE  H12X16455   2.250   1.623   4.345  0.3530  0.5988  1.2001
  149SAPE  H12Y16456   2.300   1.453   4.357 -1.2412  0.3651 -0.5804
  149SAPE  C31316457   2.410   1.566   4.210  0.1941 -0.1327  0.5935
  149SAPE  H13X16458   2.502   1.503   4.212  1.0832  1.1292  0.2206
  149SAPE  H13Y16459   2.448   1.668   4.190 -0.7815  0.1494  0.0961
  149SAPE  C31416460   2.328   1.552   4.076 -0.1775 -0.1549  0.3406
  149SAPE  H14X16461   2.292   1.449   4.055  0.1088 -0.3623  0.8434
  149SAPE  H14Y16462   2.399   1.575   3.994  1.6064  2.8894  2.5067
  149SAPE  C31516463   2.210   1.653   4.062 -0.7113 -0.3574 -0.3958
  149SAPE  H15X16464   2.265   1.750   4.061  1.2907 -1.3865  1.3829
  149SAPE  H15Y16465   2.170   1.643   4.165  1.1200 -0.6986  0.3266
  149SAPE  C31616466   2.117   1.654   3.939  0.2401 -0.2141 -0.8564
  149SAPE  H16X16467   2.096   1.549   3.909  1.3972 -0.3082 -1.3897
  149SAPE  H16Y16468   2.169   1.700   3.852 -0.8308  0.2795 -1.2557
  149SAPE  C31716469   1.978   1.715   3.968 -0.0897  0.0433  0.4006
  149SAPE  H17X16470   1.994   1.813   4.018  2.1415  0.8226 -1.6480
  149SAPE  H17Y16471   1.912   1.646   4.025 -0.6044  0.0508 -0.1656
  149SAPE  C31816472   1.906   1.719   3.836  0.3963  0.0204  0.0407
  149SAPE  H18X16473   1.903   1.621   3.784  3.7802  0.4914 -1.3439
  149SAPE  H18Y16474   1.951   1.784   3.757  1.0471  0.4223  0.7336
  149SAPE  H18Z16475   1.804   1.752   3.866  0.2026 -1.0105  0.5505
  150SAPE     N16476   5.831   3.958   6.105  0.1483  0.0490  0.4143
  150SAPE   HN116477   5.921   3.946   6.053 -0.1511  0.4220 -0.1954
  150SAPE   HN216478   5.830   4.036   6.173  2.7167  1.5960 -1.1399
  150SAPE   HN316479   5.816   3.866   6.152  0.3158 -0.7904 -1.1019
  150SAPE   C1216480   5.717   3.978   6.012  0.0932 -0.2170  1.2086
  150SAPE  H12A16481   5.725   4.083   5.978 -0.5786 -0.4265  0.3584
  150SAPE  H12B16482   5.622   3.989   6.068  0.9128  2.8251  2.1640
  150SAPE   C1116483   5.708   3.881   5.893  0.0652 -0.0633  0.4073
  150SAPE  H11A16484   5.788   3.892   5.817  0.5333 -0.2542  0.8748
  150SAPE  H11B16485   5.621   3.917   5.833  1.3360 -0.7287 -1.9945
  150SAPE     P16486   5.568   3.657   5.896 -0.3388  0.0900 -0.0047
  150SAPE   O1316487   5.612   3.517   5.910  0.0250 -0.1580 -0.0542
  150SAPE   O1416488   5.442   3.703   5.962 -0.2397  0.0304  0.0430
  150SAPE   O1216489   5.685   3.748   5.932  0.0763  0.1652 -0.3424
  150SAPE   O1116490   5.545   3.697   5.743 -0.2027  0.6937 -1.0254
  150SAPE    C116491   5.582   3.604   5.643  0.5115 -0.2290 -0.0707
  150SAPE    HA16492   5.557   3.499   5.669 -0.9447  0.0443 -0.2705
  150SAPE    HB16493   5.537   3.625   5.544  0.5003  2.1284  0.3754
  150SAPE    C216494   5.736   3.612   5.628  0.0535  0.2620  0.5713
  150SAPE    HS16495   5.779   3.591   5.729 -2.6594 -1.5234  1.4573
  150SAPE   O2116496   5.757   3.741   5.576 -0.3107 -0.2136 -0.0819
  150SAPE   C2116497   5.867   3.804   5.609 -0.7031 -0.4679 -0.6458
  150SAPE   O2216498   5.948   3.760   5.692 -0.1195  0.3577 -0.7640
  150SAPE   C2216499   5.894   3.924   5.524  0.0727 -0.1667  0.5159
  150SAPE   H2R16500   5.801   3.984   5.537  0.7074  0.7927  0.6358
  150SAPE   H2S16501   5.982   3.984   5.554 -1.5647  1.8956  1.4331
  150SAPE    C316502   5.802   3.501   5.536  0.1459 -0.4427 -0.7357
  150SAPE    HX16503   5.786   3.402   5.583  3.0138 -0.2635  0.9058
  150SAPE    HY16504   5.911   3.524   5.526  0.2523 -0.5586  0.0475
  150SAPE   O3116505   5.743   3.498   5.403  0.0585 -0.5145  0.5148
  150SAPE   C3116506   5.823   3.533   5.298 -0.5720  0.9642 -0.4909
  150SAPE   O3216507   5.941   3.562   5.313 -0.1977  0.2062 -0.2812
  150SAPE   C3216508   5.745   3.542   5.168 -0.7635 -0.3809 -0.0701
  150SAPE   H2X16509   5.649   3.591   5.196  0.1804  1.1322  0.6651
  150SAPE   H2Y16510   5.721   3.438   5.138 -0.3214 -0.7115  0.6990
  150SAPE   C2316511   5.898   3.887   5.375  0.7284 -0.7603 -0.3163
  150SAPE   H3R16512   5.809   3.824   5.352 -0.2817  0.9222 -1.2705
  150SAPE   H3S16513   5.980   3.818   5.343  0.9378 -0.8919  0.4957
  150SAPE   C2416514   5.896   4.014   5.279  0.2899 -0.5070  0.0017
  150SAPE   H4R16515   5.979   4.080   5.310 -0.0951  0.8599 -1.6961
  150SAPE   H4S16516   5.796   4.063   5.281 -0.1060 -1.2512 -0.7115
  150SAPE   C2516517   5.930   3.987   5.132  0.0529 -0.4919  0.0384
  150SAPE   H5R16518   5.843   3.962   5.069  1.3142 -0.3092 -1.8595
  150SAPE   C2616519   6.048   3.985   5.071 -1.0919 -0.6865 -0.0973
  150SAPE   H6R16520   6.059   3.988   4.961 -1.3044  0.0244 -0.1086
  150SAPE   C2716521   6.178   4.005   5.139 -0.6819 -0.0189 -0.3612
  150SAPE   H7R16522   6.185   4.084   5.217  1.7063 -0.8948  0.4280
  150SAPE   H7S16523   6.241   4.052   5.060  0.1758  0.3703  0.5284
  150SAPE   C2816524   6.229   3.874   5.194 -0.3358  0.2729  0.5308
  150SAPE   H8R16525   6.161   3.833   5.270 -1.1138 -0.9558 -0.7762
  150SAPE   C2916526   6.336   3.802   5.159  0.0604 -0.3839 -0.2363
  150SAPE   H9R16527   6.343   3.704   5.209 -2.3447  0.0137  1.0215
  150SAPE  C21016528   6.446   3.835   5.060  0.0258 -0.1638  0.4668
  150SAPE  H10R16529   6.404   3.821   4.958  0.7032 -0.4590  0.2284
  150SAPE  H10S16530   6.521   3.755   5.076 -0.3051 -0.2199  1.8416
  150SAPE  C21116531   6.512   3.968   5.067 -0.3777  0.1555 -0.1625
  150SAPE  H11R16532   6.548   3.991   5.169  2.6334  0.1078 -1.1261
  150SAPE  C21216533   6.535   4.056   4.970 -0.6807  0.6615 -0.4190
  150SAPE  H12R16534   6.596   4.141   5.004  0.1737  0.9443 -2.5082
  150SAPE  C21316535   6.513   4.031   4.826 -0.4516 -0.4257 -0.1219
  150SAPE  H13R16536   6.488   4.128   4.777  0.3163 -0.8523 -1.4233
  150SAPE  H13S16537   6.430   3.959   4.808 -0.0107 -0.8297 -0.5637
  150SAPE  C21416538   6.632   3.972   4.747 -0.5954 -0.4002  0.7556
  150SAPE  H14R16539   6.691   3.900   4.805  0.4249  1.2208  1.7904
  150SAPE  C21516540   6.670   4.009   4.617 -0.0429 -0.4075  0.2347
  150SAPE  H15R16541   6.749   3.948   4.571  1.5469 -0.1597  2.4540
  150SAPE  C21616542   6.608   4.107   4.523  0.7445 -0.9811 -0.2120
  150SAPE  H16R16543   6.640   4.209   4.553  2.5286 -1.6868  0.4222
  150SAPE  H16S16544   6.497   4.098   4.524  0.7748 -1.4190 -0.6427
  150SAPE  C21716545   6.645   4.086   4.376  0.9966  0.0051  0.5031
  150SAPE  H17R16546   6.578   4.138   4.304  1.0632  2.5343  2.1580
  150SAPE  H17S16547   6.615   3.981   4.353 -3.0732  1.3316 -1.2014
  150SAPE  C21816548   6.789   4.124   4.326 -0.3743 -0.0957  0.0807
  150SAPE  H18R16549   6.864   4.066   4.384 -1.1956 -1.4898 -0.2103
  150SAPE  H18S16550   6.798   4.232   4.350 -0.5974  0.5794 -2.5904
  150SAPE  C21916551   6.799   4.102   4.179  0.5513 -0.5524 -0.3129
  150SAPE  H19R16552   6.712   4.152   4.130 -0.0521 -1.7628 -0.5285
  150SAPE  H19S16553   6.779   3.993   4.165  0.2180 -0.6444  0.8056
  150SAPE  C22016554   6.928   4.150   4.107  0.9526 -0.1287 -0.0946
  150SAPE  H20R16555   6.925   4.261   4.100 -0.1168 -0.1096  0.6021
  150SAPE  H20S16556   6.924   4.097   4.009 -0.6418  2.1553 -1.3638
  150SAPE  H20T16557   7.019   4.112   4.158  0.5489 -1.8836 -0.6151
  150SAPE   C3316558   5.813   3.630   5.061  0.7092  0.7140 -1.1593
  150SAPE   H3X16559   5.863   3.720   5.102 -1.6977  1.3298  0.6506
  150SAPE   H3Y16560   5.727   3.673   5.005  0.1038  1.4766  0.3224
  150SAPE   C3416561   5.920   3.562   4.975 -0.3979 -0.0006  0.2915
  150SAPE   H4X16562   5.872   3.493   4.902 -0.4668  0.2233  0.1238
  150SAPE   H4Y16563   5.987   3.513   5.048  1.9894  0.1983 -1.6679
  150SAPE   C3516564   6.013   3.656   4.890  0.5904 -0.0071 -0.1598
  150SAPE   H5X16565   6.040   3.735   4.963  3.0987 -1.2324  0.3515
  150SAPE   H5Y16566   5.960   3.703   4.805  0.6651 -0.9084 -0.7188
  150SAPE   C3616567   6.144   3.587   4.839 -0.0805  0.1253  0.3264
  150SAPE   H6X16568   6.117   3.501   4.775 -0.4653  1.3818 -1.2679
  150SAPE   H6Y16569   6.196   3.548   4.929  2.2037  1.5323 -0.2927
  150SAPE   C3716570   6.245   3.671   4.761  0.5048  0.0789  0.4914
  150SAPE   H7X16571   6.340   3.613   4.754 -0.8361 -2.4241  1.4762
  150SAPE   H7Y16572   6.267   3.760   4.823  1.2473  0.3107 -0.0858
  150SAPE   C3816573   6.214   3.714   4.617 -0.1187 -0.5844  0.1698
  150SAPE   H8X16574   6.294   3.781   4.579  1.4175 -0.4021  3.4087
  150SAPE   H8Y16575   6.115   3.764   4.619  1.1882  2.3103 -1.2078
  150SAPE   C3916576   6.203   3.603   4.512 -0.6970  0.5058 -1.2903
  150SAPE   H9X16577   6.160   3.522   4.574 -1.2406  1.5772 -0.2326
  150SAPE   H9Y16578   6.306   3.576   4.479 -0.4158 -0.1564  0.0610
  150SAPE  C31016579   6.117   3.642   4.390 -0.6457 -0.0315 -0.1477
  150SAPE  H10X16580   6.136   3.569   4.308  0.3004 -0.1501  0.1663
  150SAPE  H10Y16581   6.157   3.737   4.349  0.2489 -0.5445 -0.4984
  150SAPE  C31116582   5.974   3.634   4.416  0.7476  0.0312 -0.2778
  150SAPE  H11X16583   5.954   3.681   4.514 -2.6164 -1.2577 -0.2044
  150SAPE  H11Y16584   5.945   3.531   4.446  2.9973  0.0956  2.5341
  150SAPE  C31216585   5.876   3.701   4.309 -0.1951  0.1158  0.3893
  150SAPE  H12X16586   5.879   3.647   4.212 -0.0687 -1.2818  1.1585
  150SAPE  H12Y16587   5.919   3.799   4.278  0.5218 -0.8951 -2.0779
  150SAPE  C31316588   5.728   3.711   4.343 -0.4761  0.0961  0.3121
  150SAPE  H13X16589   5.690   3.625   4.402  1.5828 -0.8412  0.3643
  150SAPE  H13Y16590   5.666   3.705   4.251  0.7325  2.1036 -0.7253
  150SAPE  C31416591   5.690   3.829   4.434  0.3714  0.3502  0.3771
  150SAPE  H14X16592   5.735   3.917   4.383  0.3479 -1.2580 -2.6026
  150SAPE  H14Y16593   5.730   3.820   4.537  1.3481  0.2804  0.0053
  150SAPE  C31516594   5.530   3.834   4.447 -0.3511  0.0461 -0.3143
  150SAPE  H15X16595   5.480   3.827   4.349  0.5912  1.8004 -0.9789
  150SAPE  H15Y16596   5.509   3.935   4.489  1.7999 -0.2573  1.7834
  150SAPE  C31616597   5.481   3.732   4.545 -1.0693  0.7182 -0.4138
  150SAPE  H16X16598   5.547   3.739   4.633 -0.6288 -1.4814 -0.5282
  150SAPE  H16Y16599   5.477   3.630   4.501  1.9951  0.6815 -0.8212
  150SAPE  C31716600   5.347   3.767   4.613  0.1456 -0.2081  0.4920
  150SAPE  H17X16601   5.267   3.776   4.537  0.1843  1.8151  0.6373
  150SAPE  H17Y16602   5.355   3.872   4.650  1.4790  0.0180 -0.3857
  150SAPE  C31816603   5.295   3.671   4.718  0.0539 -0.0841 -0.1904
  150SAPE  H18X16604   5.226   3.720   4.791  1.3053  0.1982  0.8446
  150SAPE  H18Y16605   5.377   3.625   4.778  0.9558  1.6454 -0.0185
  150SAPE  H18Z16606   5.237   3.587   4.675  1.3467 -1.8906  1.4417
  151SAPE     N16607   4.485   1.661   6.015 -0.5159 -0.0762  0.0151
  151SAPE   HN116608   4.546   1.693   6.093  0.4310 -0.4642 -0.5479
  151SAPE   HN216609   4.391   1.636   6.050 -1.3932  3.6253  0.7606
  151SAPE   HN316610   4.535   1.578   5.977  1.1774 -0.1129  2.1336
  151SAPE   C1216611   4.486   1.767   5.908  0.3875 -0.4611  0.0731
  151SAPE  H12A16612   4.454   1.861   5.958  4.9630  0.6146  1.4532
  151SAPE  H12B16613   4.409   1.737   5.833 -0.7645  1.5532  0.3636
  151SAPE   C1116614   4.617   1.780   5.832 -0.2669  0.0668  0.0151
  151SAPE  H11A16615   4.619   1.870   5.766  0.3936 -0.3804 -0.5948
  151SAPE  H11B16616   4.626   1.688   5.770 -0.7314 -0.0490  0.1180
  151SAPE     P16617   4.869   1.797   5.909  0.2884  0.1737 -0.2973
  151SAPE   O1316618   4.921   1.938   5.932 -0.3409 -0.2748 -0.6372
  151SAPE   O1416619   4.930   1.700   5.998 -0.0282 -0.1509 -0.5390
  151SAPE   O1216620   4.713   1.796   5.935  0.1873 -0.4538 -0.3530
  151SAPE   O1116621   4.898   1.760   5.761  0.6688 -0.3471  0.9560
  151SAPE    C116622   4.899   1.635   5.711 -0.1368  0.6293 -0.0975
  151SAPE    HA16623   4.855   1.566   5.786 -0.6231  0.9036 -0.1247
  151SAPE    HB16624   4.845   1.648   5.615 -1.1419 -0.1417  0.3415
  151SAPE    C216625   5.039   1.578   5.677 -0.0347  0.0015  0.1576
  151SAPE    HS16626   5.086   1.554   5.775  0.1212  1.4120  0.4502
  151SAPE   O2116627   5.108   1.677   5.597  0.2134 -0.3220 -0.2653
  151SAPE   C2116628   5.238   1.655   5.596 -0.3289  0.4870 -0.3502
  151SAPE   O2216629   5.299   1.561   5.647  0.1960 -0.1056 -0.7693
  151SAPE   C2216630   5.293   1.743   5.488  0.5712 -0.6776  0.0352
  151SAPE   H2R16631   5.297   1.682   5.395 -2.9744  0.4740 -1.0353
  151SAPE   H2S16632   5.227   1.826   5.456  1.2449 -0.3873 -0.6314
  151SAPE    C316633   5.035   1.446   5.596  0.0739  0.1583 -0.6825
  151SAPE    HX16634   4.960   1.383   5.648  0.1058  3.8599  4.6274
  151SAPE    HY16635   5.136   1.399   5.601 -0.3195 -0.6175  1.4944
  151SAPE   O3116636   4.986   1.469   5.462 -0.3677  0.2297  0.1433
  151SAPE   C3116637   5.052   1.422   5.361  0.3320 -0.3958 -0.1902
  151SAPE   O3216638   5.156   1.364   5.367  0.0995 -0.0670 -0.1252
  151SAPE   C3216639   4.981   1.455   5.228 -0.4835 -0.5738  0.1719
  151SAPE   H2X16640   5.044   1.429   5.141  0.0486 -0.8442  0.6336
  151SAPE   H2Y16641   4.952   1.562   5.226 -0.4341 -0.5675 -0.4075
  151SAPE   C2316642   5.430   1.804   5.523 -0.5923  0.2928  0.1349
  151SAPE   H3R16643   5.502   1.725   5.552 -0.1410 -0.4699 -2.7326
  151SAPE   H3S16644   5.421   1.867   5.614 -0.4386 -0.3225  0.5803
  151SAPE   C2416645   5.487   1.888   5.407  0.9138 -0.3318 -0.2535
  151SAPE   H4R16646   5.589   1.921   5.436  0.5391  0.0220  0.6789
  151SAPE   H4S16647   5.423   1.979   5.415  0.9097  0.0062 -3.0722
  151SAPE   C2516648   5.481   1.822   5.270  0.1722  0.2676  0.3655
  151SAPE   H5R16649   5.567   1.756   5.252 -0.3890 -0.3711 -0.0299
  151SAPE   C2616650   5.397   1.841   5.171 -0.5234  0.0211  0.0893
  151SAPE   H6R16651   5.408   1.775   5.084  0.7240  0.1522  0.1243
  151SAPE   C2716652   5.276   1.937   5.182 -1.4323 -0.2356  0.5174
  151SAPE   H7R16653   5.266   2.014   5.102  0.6434 -1.0887 -0.6427
  151SAPE   H7S16654   5.270   1.993   5.277 -0.9791  1.0400 -0.1772
  151SAPE   C2816655   5.148   1.863   5.163 -0.1428 -0.1955 -0.0048
  151SAPE   H8R16656   5.099   1.833   5.256  1.0511 -0.1334  0.6602
  151SAPE   C2916657   5.094   1.819   5.040 -0.4881  0.1136  0.0394
  151SAPE   H9R16658   4.993   1.776   5.031 -0.8760  0.8821  0.6597
  151SAPE  C21016659   5.166   1.833   4.907 -0.2327 -0.6513  0.5432
  151SAPE  H10R16660   5.264   1.884   4.922 -1.6509  2.7925 -0.7578
  151SAPE  H10S16661   5.114   1.908   4.843  0.6673 -2.2653 -2.2602
  151SAPE  C21116662   5.179   1.716   4.810  0.1136  0.2364 -0.7374
  151SAPE  H11R16663   5.137   1.621   4.847  0.7490  0.3601  0.3619
  151SAPE  C21216664   5.224   1.726   4.683  0.4189  0.1822  0.2228
  151SAPE  H12R16665   5.235   1.628   4.635 -1.0693 -0.5885  1.4055
  151SAPE  C21316666   5.267   1.857   4.619 -0.7102 -0.6327  0.1185
  151SAPE  H13R16667   5.377   1.855   4.600 -1.1491  1.8212 -3.8006
  151SAPE  H13S16668   5.252   1.948   4.682 -1.7029  0.1606 -1.2225
  151SAPE  C21416669   5.206   1.857   4.486 -0.5116  0.6238 -0.0998
  151SAPE  H14R16670   5.167   1.760   4.451  2.5335 -1.2464  1.3214
  151SAPE  C21516671   5.210   1.968   4.407  0.8607 -0.2915 -0.7020
  151SAPE  H15R16672   5.181   1.950   4.302 -0.6659  0.7858 -0.4961
  151SAPE  C21616673   5.267   2.105   4.440  0.4041  0.4399  0.2401
  151SAPE  H16R16674   5.357   2.092   4.505  0.8069  1.2859 -0.1363
  151SAPE  H16S16675   5.199   2.169   4.501  0.6043  0.2590  0.6558
  151SAPE  C21716676   5.319   2.194   4.324  0.3596 -0.0431  0.2276
  151SAPE  H17R16677   5.369   2.130   4.248  1.5976 -1.7268  2.3642
  151SAPE  H17S16678   5.383   2.280   4.353 -0.8325  1.5587 -1.6452
  151SAPE  C21816679   5.193   2.266   4.251 -0.2939  0.5379 -0.1227
  151SAPE  H18R16680   5.110   2.192   4.259  0.1688  0.1608  1.9091
  151SAPE  H18S16681   5.207   2.270   4.141  0.1586 -1.1103 -0.1420
  151SAPE  C21916682   5.167   2.404   4.307  0.5909 -0.1172 -0.5846
  151SAPE  H19R16683   5.257   2.468   4.307  0.5416 -0.0477 -1.0353
  151SAPE  H19S16684   5.150   2.395   4.417  0.4048  1.4449 -0.4679
  151SAPE  C22016685   5.046   2.474   4.241 -0.9986  0.1436 -0.2797
  151SAPE  H20R16686   5.058   2.489   4.132  0.2334  0.7231 -0.0730
  151SAPE  H20S16687   5.026   2.576   4.281  0.0972  0.2568  0.0157
  151SAPE  H20T16688   4.951   2.419   4.259 -0.8167 -0.0834 -0.0064
  151SAPE   C3316689   4.845   1.385   5.227 -0.0222 -0.2258 -0.8209
  151SAPE   H3X16690   4.790   1.411   5.320  0.3054  1.1974 -1.0022
  151SAPE   H3Y16691   4.853   1.279   5.195  0.3962 -0.2099 -0.7685
  151SAPE   C3416692   4.762   1.451   5.108  0.4549 -0.4216 -0.8165
  151SAPE   H4X16693   4.733   1.556   5.134 -1.1075 -0.3046 -2.7775
  151SAPE   H4Y16694   4.664   1.403   5.089  0.5716 -0.7725 -0.5468
  151SAPE   C3516695   4.833   1.445   4.975  0.0008  0.8252 -0.7041
  151SAPE   H5X16696   4.870   1.341   4.963  0.1900  0.9182 -0.9381
  151SAPE   H5Y16697   4.927   1.505   4.975  1.2354 -0.8707 -3.6704
  151SAPE   C3616698   4.753   1.481   4.847 -0.0937  0.2817  0.0923
  151SAPE   H6X16699   4.700   1.579   4.853 -0.2476  0.3042 -1.2569
  151SAPE   H6Y16700   4.674   1.404   4.835  1.6203 -1.4093 -0.7520
  151SAPE   C3716701   4.840   1.482   4.720 -0.0991 -0.4759  0.2390
  151SAPE   H7X16702   4.915   1.401   4.727 -1.1349 -1.3808  1.3012
  151SAPE   H7Y16703   4.894   1.579   4.711  0.9340 -1.1353 -1.2669
  151SAPE   C3816704   4.761   1.450   4.589 -0.4781 -0.2129 -0.3014
  151SAPE   H8X16705   4.720   1.347   4.597  2.2238 -1.8947 -4.5175
  151SAPE   H8Y16706   4.834   1.450   4.505 -0.1372  3.2540 -0.1388
  151SAPE   C3916707   4.644   1.550   4.567 -0.5071  0.1958 -0.2023
  151SAPE   H9X16708   4.666   1.638   4.631  0.9673  0.3884 -0.9372
  151SAPE   H9Y16709   4.548   1.500   4.594 -1.4403  0.8176 -2.2113
  151SAPE  C31016710   4.616   1.601   4.429  0.0204  0.1679 -0.4204
  151SAPE  H10X16711   4.614   1.514   4.361  0.2255  0.0440 -0.2672
  151SAPE  H10Y16712   4.700   1.664   4.393 -0.0293  0.1875 -0.5018
  151SAPE  C31116713   4.480   1.676   4.431 -0.2010 -0.1711  0.3687
  151SAPE  H11X16714   4.485   1.769   4.491  1.0180 -0.2626  0.4192
  151SAPE  H11Y16715   4.412   1.600   4.476  2.3030 -2.4995  0.4860
  151SAPE  C31216716   4.423   1.689   4.279 -0.9297 -0.5559 -0.2345
  151SAPE  H12X16717   4.317   1.722   4.278 -1.8508 -3.2775  0.1380
  151SAPE  H12Y16718   4.416   1.591   4.228 -2.2842  0.6269 -2.4648
  151SAPE  C31316719   4.504   1.786   4.188  0.1876 -0.3602  0.1586
  151SAPE  H13X16720   4.454   1.775   4.089 -1.9767  0.8931  1.0549
  151SAPE  H13Y16721   4.608   1.747   4.180  0.5148  0.2577  1.2535
  151SAPE  C31416722   4.507   1.931   4.233 -0.0521 -0.5801 -0.8544
  151SAPE  H14X16723   4.577   1.927   4.319  2.8411 -0.2121 -3.0388
  151SAPE  H14Y16724   4.405   1.954   4.271 -0.6151 -1.9836 -1.4384
  151SAPE  C31516725   4.551   2.025   4.124 -0.3079 -0.3687  0.0918
  151SAPE  H15X16726   4.494   2.006   4.031 -0.3615  0.7621 -0.1257
  151SAPE  H15Y16727   4.655   1.996   4.102 -0.0605  0.8457 -0.4088
  151SAPE  C31616728   4.533   2.172   4.169 -0.8289 -0.2564 -0.2714
  151SAPE  H16X16729   4.584   2.199   4.264  1.0347 -1.1923 -0.9697
  151SAPE  H16Y16730   4.424   2.179   4.190 -0.7212 -0.5634  0.4134
  151SAPE  C31716731   4.589   2.281   4.065  0.1858 -0.3135 -0.9375
  151SAPE  H17X16732   4.700   2.285   4.072  0.4144 -0.1998 -3.5968
  151SAPE  H17Y16733   4.555   2.382   4.097  1.4162 -0.0057 -0.5104
  151SAPE  C31816734   4.560   2.255   3.916  0.4636 -0.3640 -0.3214
  151SAPE  H18X16735   4.578   2.338   3.845  1.7913 -1.4505 -1.3196
  151SAPE  H18Y16736   4.452   2.231   3.906 -0.1493  0.9319  2.1715
  151SAPE  H18Z16737   4.634   2.183   3.875  2.2169 -0.5827  2.8321
  152SAPE     N16738   1.540   2.852   6.041 -0.1703 -0.3370  0.5176
  152SAPE   HN116739   1.578   2.766   6.086  0.0502  1.5415  4.2772
  152SAPE   HN216740   1.624   2.897   5.999 -0.8205 -1.2841 -2.0249
  152SAPE   HN316741   1.506   2.910   6.119 -1.5656 -2.3551  1.4906
  152SAPE   C1216742   1.430   2.847   5.940  0.9448 -0.0738  0.0567
  152SAPE  H12A16743   1.464   2.911   5.856 -2.0846  0.7094 -0.7010
  152SAPE  H12B16744   1.350   2.902   5.994  1.4013 -0.2524  0.9358
  152SAPE   C1116745   1.391   2.702   5.901 -0.2052  0.5029 -0.0541
  152SAPE  H11A16746   1.479   2.639   5.927 -0.8160 -0.4297 -0.2193
  152SAPE  H11B16747   1.362   2.681   5.796 -2.4751 -2.4026  1.0373
  152SAPE     P16748   1.280   2.589   6.122  0.4782 -0.1080 -0.1391
  152SAPE   O1316749   1.385   2.482   6.135  0.4443 -0.4264  0.2626
  152SAPE   O1416750   1.274   2.698   6.220 -0.9131 -0.2829  0.0860
  152SAPE   O1216751   1.281   2.654   5.972  0.5812  0.4197 -0.6186
  152SAPE   O1116752   1.142   2.502   6.125 -0.4106 -0.2392  0.0047
  152SAPE    C116753   1.017   2.564   6.091 -0.0770 -0.1917  0.2432
  152SAPE    HA16754   0.957   2.563   6.185  0.6702 -2.3545  0.7717
  152SAPE    HB16755   1.025   2.669   6.058 -1.6911  0.2505  1.1474
  152SAPE    C216756   0.937   2.497   5.974 -0.1198  0.2437 -0.3100
  152SAPE    HS16757   0.900   2.404   6.023 -0.0949  2.2493  4.0151
  152SAPE   O2116758   1.024   2.479   5.854  0.1705 -0.2609  0.2176
  152SAPE   C2116759   1.100   2.371   5.862 -0.3889  0.8042 -0.4666
  152SAPE   O2216760   1.095   2.285   5.953 -0.8262 -0.5671 -0.0803
  152SAPE   C2216761   1.200   2.370   5.744 -0.2777  0.8517  0.2183
  152SAPE   H2R16762   1.277   2.448   5.762  0.0013  0.7630 -0.5624
  152SAPE   H2S16763   1.249   2.272   5.730 -1.6005  0.5720 -3.5701
  152SAPE    C316764   0.805   2.577   5.947 -0.6613  0.0726  0.0013
  152SAPE    HX16765   0.845   2.677   5.919 -0.6331  0.2476  0.6559
  152SAPE    HY16766   0.746   2.588   6.041  2.9176 -2.8469  2.9246
  152SAPE   O3116767   0.733   2.522   5.838  0.0502 -0.1010  0.1479
  152SAPE   C3116768   0.642   2.427   5.869  1.4856  0.1550  0.2831
  152SAPE   O3216769   0.645   2.366   5.974  0.2203 -0.3810 -0.1098
  152SAPE   C3216770   0.557   2.383   5.741  0.8137  0.5211  0.4371
  152SAPE   H2X16771   0.536   2.474   5.682  0.8046 -0.3618 -0.9695
  152SAPE   H2Y16772   0.462   2.337   5.777  2.0690 -0.6314  2.5215
  152SAPE   C2316773   1.129   2.386   5.602 -0.7523  0.4130  0.3959
  152SAPE   H3R16774   1.085   2.488   5.604 -1.6882  0.0088  1.7472
  152SAPE   H3S16775   1.061   2.298   5.595  0.8036 -0.8202  0.1586
  152SAPE   C2416776   1.218   2.347   5.481  0.8252  0.6472  0.7683
  152SAPE   H4R16777   1.153   2.308   5.400 -2.9792 -1.3321  4.3932
  152SAPE   H4S16778   1.280   2.262   5.517 -0.6256  0.1654  2.2775
  152SAPE   C2516779   1.304   2.459   5.440 -0.5571 -0.5206  0.1564
  152SAPE   H5R16780   1.361   2.497   5.526 -1.8473 -0.4376  1.0018
  152SAPE   C2616781   1.328   2.488   5.309  0.2438  0.0682 -0.3361
  152SAPE   H6R16782   1.401   2.565   5.278  0.1290  0.2303 -0.2043
  152SAPE   C2716783   1.280   2.441   5.176  1.1562 -0.3329 -0.3355
  152SAPE   H7R16784   1.254   2.333   5.175 -1.1231  0.1351  1.1092
  152SAPE   H7S16785   1.354   2.461   5.096 -0.7842  0.3591 -2.0445
  152SAPE   C2816786   1.154   2.515   5.151  0.4844 -0.1030  0.0949
  152SAPE   H8R16787   1.080   2.496   5.230  0.2467 -0.2608 -0.1641
  152SAPE   C2916788   1.127   2.583   5.041  0.0878 -0.1685  0.1489
  152SAPE   H9R16789   1.031   2.636   5.034 -0.3012 -0.8084  0.5265
  152SAPE  C21016790   1.218   2.602   4.916 -0.3671 -0.0857  0.4864
  152SAPE  H10R16791   1.231   2.504   4.865 -0.6333  0.3837 -0.4989
  152SAPE  H10S16792   1.322   2.628   4.947 -0.7516  1.0727  0.8365
  152SAPE  C21116793   1.162   2.702   4.815  0.3141  0.3093  0.4798
  152SAPE  H11R16794   1.058   2.735   4.829 -0.5278 -1.6599 -0.7550
  152SAPE  C21216795   1.230   2.738   4.704  0.3195 -0.5338 -0.3246
  152SAPE  H12R16796   1.181   2.804   4.631 -0.2167 -0.4848  0.0689
  152SAPE  C21316797   1.361   2.679   4.659  0.1419  0.0110 -0.2163
  152SAPE  H13R16798   1.412   2.645   4.752 -1.7813  2.3147  1.8118
  152SAPE  H13S16799   1.432   2.757   4.625  1.8358 -1.6731 -0.7285
  152SAPE  C21416800   1.345   2.566   4.563  0.6546  0.5035  0.2517
  152SAPE  H14R16801   1.348   2.467   4.612 -1.2846  0.7338  0.9173
  152SAPE  C21516802   1.332   2.574   4.428 -0.0948  0.3606  0.4679
  152SAPE  H15R16803   1.341   2.478   4.375  2.2919  0.9646 -0.3798
  152SAPE  C21616804   1.344   2.689   4.339  0.2769 -0.0783  0.3141
  152SAPE  H16R16805   1.433   2.691   4.273 -1.6048 -0.1561 -2.3866
  152SAPE  H16S16806   1.350   2.783   4.399  1.1496  0.9470 -1.2935
  152SAPE  C21716807   1.224   2.705   4.243  0.4272  0.6998 -0.5501
  152SAPE  H17R16808   1.128   2.692   4.298  1.2392  0.8573  0.9620
  152SAPE  H17S16809   1.234   2.641   4.153  0.8220 -0.8079  0.5310
  152SAPE  C21816810   1.212   2.847   4.172 -0.7540 -0.9390  0.3310
  152SAPE  H18R16811   1.197   2.921   4.254 -0.3869  1.7189 -1.8804
  152SAPE  H18S16812   1.120   2.858   4.112  1.1416  1.5453 -2.4030
  152SAPE  C21916813   1.328   2.874   4.084 -0.3704  0.4289 -0.2880
  152SAPE  H19R16814   1.427   2.863   4.133 -0.2877 -0.1520 -0.5678
  152SAPE  H19S16815   1.320   2.980   4.051  0.3641  0.5026 -0.2393
  152SAPE  C22016816   1.325   2.797   3.951 -0.3309  0.0574  0.2116
  152SAPE  H20R16817   1.425   2.806   3.904 -0.7247  0.3440 -0.5901
  152SAPE  H20S16818   1.244   2.829   3.883 -0.4917 -1.4939 -0.3731
  152SAPE  H20T16819   1.303   2.691   3.977 -1.8177 -0.0584 -1.3662
  152SAPE   C3316820   0.635   2.279   5.644 -0.5049  0.0326  0.3350
  152SAPE   H3X16821   0.554   2.212   5.606 -1.1526 -0.1425  1.9604
  152SAPE   H3Y16822   0.707   2.215   5.698 -0.1042 -0.8653 -1.2034
  152SAPE   C3416823   0.715   2.336   5.527 -0.3054  0.0461 -0.0006
  152SAPE   H4X16824   0.776   2.255   5.482 -0.7247  1.0369 -2.4914
  152SAPE   H4Y16825   0.779   2.416   5.570  0.0031  0.0416 -0.4464
  152SAPE   C3516826   0.634   2.398   5.410 -0.7258  0.7230  0.2902
  152SAPE   H5X16827   0.575   2.483   5.451 -0.5729  0.5172  0.9571
  152SAPE   H5Y16828   0.556   2.336   5.361  1.5944 -0.9574 -1.4796
  152SAPE   C3616829   0.728   2.460   5.303 -0.1513 -0.0468  0.2711
  152SAPE   H6X16830   0.813   2.390   5.289  1.6278  1.8500  1.1917
  152SAPE   H6Y16831   0.778   2.551   5.342 -4.2021  0.4842  5.1167
  152SAPE   C3716832   0.656   2.502   5.172  0.1760 -0.1117  0.7130
  152SAPE   H7X16833   0.588   2.587   5.193 -1.3296 -1.4222  1.3826
  152SAPE   H7Y16834   0.588   2.421   5.138 -1.0858 -0.0995  3.0005
  152SAPE   C3816835   0.753   2.545   5.064  0.7839 -0.0052 -0.4126
  152SAPE   H8X16836   0.818   2.459   5.039 -0.3007 -1.2454  0.8510
  152SAPE   H8Y16837   0.823   2.624   5.097  0.5426 -0.7599  2.1420
  152SAPE   C3916838   0.680   2.591   4.936  0.8162 -0.3386 -0.8640
  152SAPE   H9X16839   0.614   2.678   4.955  1.6581  0.1357 -0.0338
  152SAPE   H9Y16840   0.606   2.514   4.905  1.6299 -2.9715  2.9512
  152SAPE  C31016841   0.787   2.623   4.829 -0.1758 -0.2026  0.3341
  152SAPE  H10X16842   0.863   2.542   4.823  2.5035  2.0711  1.5488
  152SAPE  H10Y16843   0.836   2.715   4.868 -0.3826 -0.6801  1.7802
  152SAPE  C31116844   0.726   2.654   4.698  0.0069  0.3638  0.5412
  152SAPE  H11X16845   0.644   2.728   4.711  0.7843  1.9047 -2.4277
  152SAPE  H11Y16846   0.686   2.559   4.656  2.0397 -0.8396  1.2460
  152SAPE  C31216847   0.812   2.714   4.588 -0.2579 -0.1179 -0.0984
  152SAPE  H12X16848   0.909   2.661   4.597 -0.8472 -1.1638  0.1713
  152SAPE  H12Y16849   0.829   2.823   4.604 -0.5970  0.0283 -0.7059
  152SAPE  C31316850   0.747   2.712   4.451 -0.3031 -0.0772  0.1588
  152SAPE  H13X16851   0.712   2.609   4.431 -4.4996  1.1787  0.0061
  152SAPE  H13Y16852   0.827   2.731   4.377  0.7296 -0.7080  1.0818
  152SAPE  C31416853   0.636   2.812   4.425 -0.3525  0.1708 -0.6082
  152SAPE  H14X16854   0.688   2.911   4.420  0.2119 -0.1638 -1.6955
  152SAPE  H14Y16855   0.571   2.803   4.514  1.5771 -3.7218  0.6076
  152SAPE  C31516856   0.583   2.798   4.288 -0.3211  0.7619  0.0565
  152SAPE  H15X16857   0.547   2.695   4.269 -1.2742  1.1979 -0.5904
  152SAPE  H15Y16858   0.670   2.818   4.223  0.2676 -1.5149  0.0456
  152SAPE  C31616859   0.472   2.900   4.257 -0.2598 -0.4450 -0.2524
  152SAPE  H16X16860   0.503   3.002   4.291  1.1573 -1.1590  0.7025
  152SAPE  H16Y16861   0.392   2.875   4.331  2.8424 -1.7356  2.9645
  152SAPE  C31716862   0.438   2.918   4.112  0.6194  0.4915  0.5126
  152SAPE  H17X16863   0.392   2.823   4.077 -1.3561  1.1223  1.2752
  152SAPE  H17Y16864   0.525   2.946   4.047 -0.8351 -0.8171 -2.1579
  152SAPE  C31816865   0.340   3.029   4.086  0.4538  0.2479  0.1564
  152SAPE  H18X16866   0.390   3.127   4.076 -0.0764  0.3429 -2.1491
  152SAPE  H18Y16867   0.264   3.039   4.167 -1.6208 -0.8959 -1.5338
  152SAPE  H18Z16868   0.277   3.007   3.997  0.6075 -0.5495  0.2339
  153SAPE     N16869   5.962   3.077   5.665 -0.4819 -0.4888 -0.3078
  153SAPE   HN116870   5.905   2.995   5.694 -0.7168 -0.2676 -0.1443
  153SAPE   HN216871   6.060   3.046   5.683 -0.3711 -0.2583 -0.5086
  153SAPE   HN316872   5.926   3.153   5.726 -1.1857  0.1800 -1.5269
  153SAPE   C1216873   5.939   3.103   5.519 -0.0579  0.3342  0.0344
  153SAPE  H12A16874   5.833   3.128   5.499  0.2411  1.4277 -0.2622
  153SAPE  H12B16875   5.958   3.008   5.465  1.7578  1.5091 -1.5393
  153SAPE   C1116876   6.033   3.202   5.462 -0.4900  0.5244 -0.0921
  153SAPE  H11A16877   6.009   3.301   5.505 -3.2758 -0.0130 -0.2205
  153SAPE  H11B16878   6.039   3.197   5.351  6.3145 -0.0964 -0.1450
  153SAPE     P16879   6.272   3.283   5.529  0.0318 -0.2575  0.0337
  153SAPE   O1316880   6.200   3.376   5.618 -0.2145  0.3481 -0.2629
  153SAPE   O1416881   6.393   3.212   5.583 -0.1259  0.7181  0.6568
  153SAPE   O1216882   6.169   3.165   5.496 -0.1075  0.3709  0.4989
  153SAPE   O1116883   6.300   3.370   5.398  0.5206  0.1812  0.0339
  153SAPE    C116884   6.348   3.296   5.286  0.7253  0.0310 -0.1162
  153SAPE    HA16885   6.286   3.206   5.263  0.2338  0.5326 -0.7705
  153SAPE    HB16886   6.334   3.366   5.201 -0.8575  1.3130  1.1355
  153SAPE    C216887   6.505   3.263   5.288  0.2234  0.1294 -0.1510
  153SAPE    HS16888   6.526   3.190   5.369 -0.1001 -0.6476 -0.7532
  153SAPE   O2116889   6.594   3.376   5.296  0.8733  0.4649  0.6397
  153SAPE   C2116890   6.716   3.367   5.326 -0.4048 -0.2428  0.4576
  153SAPE   O2216891   6.776   3.262   5.362  0.2248 -0.2504  0.0266
  153SAPE   C2216892   6.781   3.507   5.307 -0.8156 -0.4520 -0.4886
  153SAPE   H2R16893   6.744   3.585   5.377  1.9830  2.1415 -1.6747
  153SAPE   H2S16894   6.889   3.504   5.334 -0.7841  0.3820 -0.4999
  153SAPE    C316895   6.534   3.182   5.159 -0.1333 -0.0159  0.2013
  153SAPE    HX16896   6.462   3.098   5.153 -1.3939  1.1290 -2.8595
  153SAPE    HY16897   6.638   3.144   5.158 -0.2954 -0.5438  1.6866
  153SAPE   O3116898   6.506   3.264   5.042 -0.4132 -0.2332 -0.4505
  153SAPE   C3116899   6.604   3.309   4.963 -0.6758  0.5084  0.5221
  153SAPE   O3216900   6.720   3.283   4.980 -0.4372  0.2071  0.1225
  153SAPE   C3216901   6.550   3.398   4.851 -0.5878 -0.4167 -0.1294
  153SAPE   H2X16902   6.499   3.486   4.897 -0.6463 -1.1528  1.2805
  153SAPE   H2Y16903   6.474   3.346   4.790 -1.4717 -1.6845  1.9291
  153SAPE   C2316904   6.765   3.558   5.164 -0.0151 -0.3049  0.2338
  153SAPE   H3R16905   6.659   3.584   5.143  1.4766  3.7648 -3.9039
  153SAPE   H3S16906   6.792   3.480   5.091 -0.5508  0.2843 -0.6111
  153SAPE   C2416907   6.846   3.679   5.127  0.2932  0.2803 -0.9426
  153SAPE   H4R16908   6.817   3.764   5.193 -0.3125 -0.3678 -0.3646
  153SAPE   H4S16909   6.811   3.702   5.023 -1.0888  2.3428 -0.0843
  153SAPE   C2516910   6.992   3.642   5.132  0.1692 -0.4632  0.5176
  153SAPE   H5R16911   7.039   3.669   5.227 -0.8198  3.2558  0.1117
  153SAPE   C2616912   7.071   3.600   5.035  0.0000 -0.3704 -0.6627
  153SAPE   H6R16913   7.180   3.597   5.049 -0.1290 -3.0700  0.4079
  153SAPE   C2716914   7.020   3.574   4.894 -0.4629 -0.1216  0.8014
  153SAPE   H7R16915   7.003   3.678   4.861  1.1907 -0.6865 -2.2536
  153SAPE   H7S16916   6.924   3.518   4.893 -0.6136  0.0613 -2.2037
  153SAPE   C2816917   7.113   3.492   4.804  0.4122  0.2157  1.0042
  153SAPE   H8R16918   7.093   3.385   4.818 -0.7608  0.5113  1.7259
  153SAPE   C2916919   7.217   3.524   4.732  0.3407 -0.2950 -0.3690
  153SAPE   H9R16920   7.281   3.446   4.686  0.2159 -0.2854 -0.5621
  153SAPE  C21016921   7.277   3.665   4.727 -0.6394 -0.0478  1.0783
  153SAPE  H10R16922   7.382   3.660   4.763 -0.1923  1.0812  0.0019
  153SAPE  H10S16923   7.233   3.738   4.798  0.1104 -0.7568  2.3092
  153SAPE  C21116924   7.278   3.705   4.583 -0.5477  0.5579  0.3111
  153SAPE  H11R16925   7.183   3.703   4.527 -0.1054 -2.7465 -0.5207
  153SAPE  C21216926   7.387   3.716   4.503  0.1075  0.0797  0.2052
  153SAPE  H12R16927   7.372   3.739   4.396 -0.3584 -0.7702  0.0823
  153SAPE  C21316928   7.534   3.701   4.534  0.2519  0.1924  0.1360
  153SAPE  H13R16929   7.564   3.595   4.519 -2.5745 -0.5986 -0.7526
  153SAPE  H13S16930   7.559   3.730   4.638 -1.8754  0.8081  0.5391
  153SAPE  C21416931   7.619   3.793   4.441  0.6340  0.0536 -0.0152
  153SAPE  H14R16932   7.641   3.893   4.482 -2.3351  0.1944  1.5036
  153SAPE  C21516933   7.677   3.760   4.328  0.4389 -0.7848  0.3392
  153SAPE  H15R16934   7.743   3.834   4.279  0.7495 -0.8653  0.6365
  153SAPE  C21616935   7.670   3.637   4.256 -0.9092  0.0668  0.3584
  153SAPE  H16R16936   7.663   3.664   4.149  0.4315  0.4334  0.3536
  153SAPE  H16S16937   7.577   3.580   4.280 -0.2752 -0.2921  2.1396
  153SAPE  C21716938   7.803   3.556   4.273  0.0170  0.1729 -1.0828
  153SAPE  H17R16939   7.805   3.536   4.382  1.8620 -1.4055 -1.3580
  153SAPE  H17S16940   7.886   3.617   4.232 -1.1360  1.7664 -1.1697
  153SAPE  C21816941   7.798   3.423   4.191 -0.2050 -0.3989  0.4271
  153SAPE  H18R16942   7.799   3.452   4.084 -1.0850  1.4146  0.8876
  153SAPE  H18S16943   7.705   3.364   4.205 -0.8627  0.6414  0.4841
  153SAPE  C21916944   7.917   3.329   4.215 -0.4417 -0.1622  0.3391
  153SAPE  H19R16945   7.956   3.357   4.315  3.1823  4.1245 -1.9054
  153SAPE  H19S16946   7.999   3.355   4.145  1.3878 -2.0504  1.6471
  153SAPE  C22016947   7.882   3.180   4.202  0.5890 -0.1423 -0.4677
  153SAPE  H20R16948   7.975   3.122   4.221  0.9526  0.2436 -1.0672
  153SAPE  H20S16949   7.833   3.157   4.105 -5.0640 -0.4154  2.0708
  153SAPE  H20T16950   7.810   3.151   4.281  1.9349 -0.7553  0.5849
  153SAPE   C3316951   6.663   3.444   4.753  0.7047  0.2325  0.1602
  153SAPE   H3X16952   6.714   3.358   4.705  0.3471  0.4969 -0.7065
  153SAPE   H3Y16953   6.737   3.498   4.817  0.4383 -2.4542  2.9291
  153SAPE   C3416954   6.616   3.546   4.652 -0.5951 -0.1579 -0.2865
  153SAPE   H4X16955   6.571   3.634   4.702 -0.6552 -0.8065  0.8289
  153SAPE   H4Y16956   6.539   3.504   4.583 -0.2913 -2.6775  0.7911
  153SAPE   C3516957   6.728   3.583   4.556 -0.3344 -0.0988 -0.0549
  153SAPE   H5X16958   6.759   3.494   4.496  1.1223 -0.4140  1.1141
  153SAPE   H5Y16959   6.812   3.609   4.623 -0.7128 -2.0814  1.2713
  153SAPE   C3616960   6.701   3.691   4.456  0.6505 -0.5692 -0.1256
  153SAPE   H6X16961   6.643   3.771   4.505  0.5167 -0.3435 -0.6463
  153SAPE   H6Y16962   6.633   3.657   4.375 -0.0958  0.8966 -0.1276
  153SAPE   C3716963   6.830   3.742   4.380  0.2753  0.0835 -0.2086
  153SAPE   H7X16964   6.884   3.800   4.459  1.8217 -0.3813 -0.8879
  153SAPE   H7Y16965   6.800   3.810   4.297 -1.7847  0.7181  0.9773
  153SAPE   C3816966   6.928   3.641   4.318 -0.7235  0.2114 -0.2306
  153SAPE   H8X16967   6.865   3.575   4.255 -2.7029  0.9073  0.9119
  153SAPE   H8Y16968   6.981   3.591   4.402  1.7633  0.4573 -1.5432
  153SAPE   C3916969   7.036   3.693   4.231 -0.3993 -0.3542  0.8617
  153SAPE   H9X16970   7.090   3.763   4.298  1.1923 -1.5612  0.8706
  153SAPE   H9Y16971   7.008   3.769   4.154  0.2189  0.5667  1.5197
  153SAPE  C31016972   7.123   3.584   4.175 -0.1594  0.3585  0.1442
  153SAPE  H10X16973   7.162   3.517   4.255  2.3500 -0.4291 -1.5882
  153SAPE  H10Y16974   7.221   3.626   4.144  0.3551 -0.6386  0.3593
  153SAPE  C31116975   7.067   3.499   4.057 -0.5411 -0.9862 -0.0970
  153SAPE  H11X16976   7.031   3.572   3.981 -1.7308  1.6589  2.8230
  153SAPE  H11Y16977   6.980   3.442   4.095  0.1458 -2.2429 -0.3436
  153SAPE  C31216978   7.177   3.404   3.995  0.7801 -0.1142 -0.6505
  153SAPE  H12X16979   7.210   3.335   4.076 -1.1087 -1.4442 -0.9587
  153SAPE  H12Y16980   7.266   3.464   3.968 -0.4092  1.2997 -1.5557
  153SAPE  C31316981   7.117   3.323   3.875  0.2194 -0.4837  0.0441
  153SAPE  H13X16982   7.017   3.283   3.903  0.6262 -2.5074 -1.1809
  153SAPE  H13Y16983   7.187   3.239   3.854  0.0576 -0.8660  0.9730
  153SAPE  C31416984   7.089   3.402   3.745  0.2155  0.1759  1.1704
  153SAPE  H14X16985   7.044   3.502   3.763  0.2752  0.4722 -0.2008
  153SAPE  H14Y16986   7.024   3.328   3.694 -0.0951  2.0117 -1.2364
  153SAPE  C31516987   7.212   3.417   3.661  0.3683 -0.7849  0.4432
  153SAPE  H15X16988   7.249   3.316   3.634  0.8684 -0.9529  1.7179
  153SAPE  H15Y16989   7.286   3.474   3.720 -0.4590 -0.2573  0.9976
  153SAPE  C31616990   7.194   3.477   3.523  0.0358  0.2604  0.2122
  153SAPE  H16X16991   7.156   3.578   3.550 -0.6768  0.1806 -0.4535
  153SAPE  H16Y16992   7.116   3.424   3.465  1.8492 -0.1255 -2.0050
  153SAPE  C31716993   7.320   3.478   3.438 -0.2981  0.5199 -0.2558
  153SAPE  H17X16994   7.353   3.374   3.417  1.2360  1.2424 -1.6352
  153SAPE  H17Y16995   7.393   3.537   3.498  1.1277  0.3995 -1.7990
  153SAPE  C31816996   7.314   3.545   3.296  0.2172 -0.3704  0.3298
  153SAPE  H18X16997   7.212   3.578   3.268  0.6636 -0.7316 -1.8715
  153SAPE  H18Y16998   7.352   3.468   3.226 -0.7876 -0.8522  0.2967
  153SAPE  H18Z16999   7.379   3.635   3.293 -1.3742  0.7880 -1.2698
  154SAPE     N17000   3.381   7.142   6.120 -0.2404 -0.2074  0.6052
  154SAPE   HN117001   3.409   7.042   6.119  2.5094  0.4614  1.3585
  154SAPE   HN217002   3.358   7.158   6.220 -0.5926 -1.5867  0.7687
  154SAPE   HN317003   3.299   7.157   6.058  0.1455 -0.7551 -0.0637
  154SAPE   C1217004   3.506   7.228   6.080  0.1625 -0.2966 -0.4139
  154SAPE  H12A17005   3.563   7.227   6.175 -1.1994 -0.4051  0.4299
  154SAPE  H12B17006   3.472   7.332   6.062 -0.3582 -0.5351 -0.8453
  154SAPE   C1117007   3.585   7.171   5.964 -0.4000  0.3720 -0.7290
  154SAPE  H11A17008   3.681   7.224   5.944  0.4934 -1.1965 -0.7816
  154SAPE  H11B17009   3.524   7.184   5.871  0.2172  1.4682 -0.9977
  154SAPE     P17010   3.741   6.966   5.988 -0.4977 -0.1400  0.0110
  154SAPE   O1317011   3.814   7.048   6.089 -0.0077  0.7943 -0.4765
  154SAPE   O1417012   3.733   6.822   6.018 -0.0701 -0.3026 -0.3546
  154SAPE   O1217013   3.601   7.025   5.972  0.5105 -0.4344 -0.1012
  154SAPE   O1117014   3.812   6.980   5.846 -0.6693 -0.2190 -0.5169
  154SAPE    C117015   3.773   6.903   5.733  0.4623  0.1807 -0.2015
  154SAPE    HA17016   3.700   6.824   5.761 -1.5869  2.1775  0.4769
  154SAPE    HB17017   3.728   6.973   5.659  2.1300 -0.8444 -2.2698
  154SAPE    C217018   3.895   6.821   5.676  0.0346 -0.2763 -0.5477
  154SAPE    HS17019   3.949   6.795   5.770 -2.3451  1.4606  1.4181
  154SAPE   O2117020   3.970   6.915   5.587  0.1854  0.0845  0.3736
  154SAPE   C2117021   4.099   6.894   5.592 -0.4580  0.5170  0.2926
  154SAPE   O2217022   4.160   6.794   5.623  0.5386  0.7655 -0.0933
  154SAPE   C2217023   4.182   7.024   5.557  0.4154 -0.3897  0.2972
  154SAPE   H2R17024   4.130   7.092   5.486  0.6704 -0.4432  0.0582
  154SAPE   H2S17025   4.182   7.082   5.652  1.1976 -0.4973  0.3697
  154SAPE    C317026   3.851   6.690   5.611  0.3258 -0.3301  0.7328
  154SAPE    HX17027   3.806   6.629   5.692 -4.4727 -0.1431 -1.4572
  154SAPE    HY17028   3.939   6.631   5.578  0.0631 -0.5962  0.5015
  154SAPE   O3117029   3.749   6.722   5.510 -0.1038  0.0788 -0.4516
  154SAPE   C3117030   3.775   6.658   5.399 -0.0722 -0.7508  0.7407
  154SAPE   O3217031   3.862   6.579   5.373 -0.1762  0.0712 -0.2861
  154SAPE   C3217032   3.652   6.685   5.306 -0.1765  0.4510  0.0730
  154SAPE   H2X17033   3.570   6.748   5.347 -1.4861 -0.4831 -1.0383
  154SAPE   H2Y17034   3.621   6.579   5.296  1.3823 -0.2314  1.8730
  154SAPE   C2317035   4.324   7.002   5.513  0.2786  0.2225 -0.0280
  154SAPE   H3R17036   4.348   6.950   5.418  0.6168 -2.0692  1.2364
  154SAPE   H3S17037   4.380   6.931   5.579 -1.1017  1.1109  2.2171
  154SAPE   C2417038   4.404   7.135   5.529  0.0390  0.5635  0.6972
  154SAPE   H4R17039   4.507   7.115   5.493  0.4255  1.0846  1.4859
  154SAPE   H4S17040   4.401   7.141   5.639 -1.1880 -2.2712  0.9098
  154SAPE   C2517041   4.350   7.258   5.451 -0.4016  0.0983 -0.3749
  154SAPE   H5R17042   4.335   7.332   5.532 -1.4184  0.7094 -1.0922
  154SAPE   C2617043   4.330   7.283   5.325 -0.4428  0.0560 -0.0906
  154SAPE   H6R17044   4.305   7.386   5.296  0.4896  0.1512 -0.6046
  154SAPE   C2717045   4.361   7.190   5.214  0.2444 -0.1819 -0.3117
  154SAPE   H7R17046   4.276   7.119   5.213  0.6032 -0.6447 -2.2595
  154SAPE   H7S17047   4.447   7.121   5.231  0.1839 -0.3151 -0.5539
  154SAPE   C2817048   4.361   7.254   5.075  0.9591  0.2715 -0.3524
  154SAPE   H8R17049   4.458   7.287   5.037  1.7738  0.6064  1.8859
  154SAPE   C2917050   4.251   7.291   5.003  0.4755  0.3221  0.6553
  154SAPE   H9R17051   4.258   7.322   4.898  2.4719 -0.8074  0.4125
  154SAPE  C21017052   4.110   7.266   5.052 -0.0244 -0.7534 -0.5222
  154SAPE  H10R17053   4.103   7.232   5.157 -1.6862  3.6322  0.9812
  154SAPE  H10S17054   4.061   7.184   4.995  2.3163 -3.1160  0.5983
  154SAPE  C21117055   4.024   7.386   5.049 -0.4694 -0.4238  0.3414
  154SAPE  H11R17056   4.063   7.473   4.993 -2.0521 -1.3387 -2.3337
  154SAPE  C21217057   3.895   7.392   5.097 -0.2559  0.1660  0.6356
  154SAPE  H12R17058   3.840   7.487   5.091 -1.5025 -0.4312  2.1453
  154SAPE  C21317059   3.811   7.280   5.148 -0.3638 -0.4402  0.2739
  154SAPE  H13R17060   3.833   7.252   5.253  1.1443  2.4707  0.8256
  154SAPE  H13S17061   3.827   7.188   5.087  0.1975  0.3760 -0.8358
  154SAPE  C21417062   3.668   7.314   5.142 -0.6204  0.6392  0.1613
  154SAPE  H14R17063   3.620   7.366   5.226 -0.9172  0.3604  0.1687
  154SAPE  C21517064   3.586   7.294   5.033  0.6871 -0.4496 -0.8217
  154SAPE  H15R17065   3.479   7.316   5.045  1.1818  0.8568  2.0084
  154SAPE  C21617066   3.630   7.244   4.897 -0.5814 -0.0952 -0.7657
  154SAPE  H16R17067   3.740   7.231   4.889 -0.6027 -1.3050  0.5234
  154SAPE  H16S17068   3.596   7.319   4.822 -4.7447 -1.0488 -0.0255
  154SAPE  C21717069   3.563   7.113   4.853  0.1795  0.1671  0.0797
  154SAPE  H17R17070   3.459   7.138   4.824  0.9565  1.0002 -2.2001
  154SAPE  H17S17071   3.566   7.041   4.938 -2.0410 -0.7362 -0.5390
  154SAPE  C21817072   3.620   7.051   4.721  0.1590 -0.2880 -0.3811
  154SAPE  H18R17073   3.624   7.124   4.637 -0.1518  0.4209  0.2084
  154SAPE  H18S17074   3.553   6.966   4.696  0.4261 -1.7815  3.3467
  154SAPE  C21917075   3.761   6.995   4.745 -0.7609  0.4839 -0.0792
  154SAPE  H19R17076   3.757   6.918   4.824 -0.7826  0.1362 -0.4207
  154SAPE  H19S17077   3.823   7.076   4.789  2.3196 -1.0974 -1.2198
  154SAPE  C22017078   3.838   6.954   4.616  0.4983 -0.0621  0.2383
  154SAPE  H20R17079   3.784   6.881   4.552  1.0277 -1.0017  0.8417
  154SAPE  H20S17080   3.935   6.911   4.648  0.0313  0.0505  1.9343
  154SAPE  H20T17081   3.861   7.040   4.549  0.6642 -1.0102 -0.9518
  154SAPE   C3317082   3.677   6.728   5.158  0.5811  0.3285  0.6383
  154SAPE   H3X17083   3.586   6.701   5.101  0.5012 -1.2010  1.4417
  154SAPE   H3Y17084   3.760   6.674   5.108  0.5593  1.2058 -0.3959
  154SAPE   C3417085   3.699   6.881   5.158  0.7467  0.1111  0.3045
  154SAPE   H4X17086   3.623   6.926   5.226  0.1383 -2.3176  1.3704
  154SAPE   H4Y17087   3.686   6.914   5.053 -2.4938  0.5364  0.7215
  154SAPE   C3517088   3.840   6.911   5.208 -1.0912 -0.0122  0.0778
  154SAPE   H5X17089   3.858   6.862   5.306 -2.5959 -1.5239 -0.3549
  154SAPE   H5Y17090   3.859   7.018   5.230 -0.7957 -0.2073  0.8297
  154SAPE   C3617091   3.946   6.873   5.100 -0.2578  0.7915 -0.5549
  154SAPE   H6X17092   3.927   6.936   5.011 -0.9124  2.9774  1.0448
  154SAPE   H6Y17093   3.939   6.765   5.078  0.2194  0.3253  1.3574
  154SAPE   C3717094   4.084   6.895   5.159 -0.3839  0.9793  0.3116
  154SAPE   H7X17095   4.090   6.844   5.257  1.8929  1.6163  0.5572
  154SAPE   H7Y17096   4.094   7.002   5.189  0.2847  0.4450  2.1513
  154SAPE   C3817097   4.203   6.862   5.072 -0.0832 -0.3568  0.0636
  154SAPE   H8X17098   4.212   6.754   5.046 -0.2727 -0.1267 -0.9785
  154SAPE   H8Y17099   4.297   6.870   5.131  0.8232  2.0664 -1.5532
  154SAPE   C3917100   4.208   6.928   4.929  0.2209  0.2195 -0.4729
  154SAPE   H9X17101   4.283   7.009   4.937  0.1734  0.2653 -0.4906
  154SAPE   H9Y17102   4.108   6.971   4.905 -0.8282 -0.3000  2.5208
  154SAPE  C31017103   4.248   6.829   4.814  0.7863 -0.0867 -0.2238
  154SAPE  H10X17104   4.168   6.752   4.822  1.2186 -0.5937 -0.7225
  154SAPE  H10Y17105   4.344   6.795   4.859  1.4466  1.0384 -0.7642
  154SAPE  C31117106   4.264   6.899   4.686 -0.3002 -0.0804 -0.3559
  154SAPE  H11X17107   4.355   6.960   4.704 -0.8050  0.9931 -1.3113
  154SAPE  H11Y17108   4.178   6.968   4.665 -0.0127 -0.2201 -2.2018
  154SAPE  C31217109   4.267   6.803   4.572 -0.2361  0.2888 -0.3088
  154SAPE  H12X17110   4.177   6.740   4.591 -0.9461  1.5400  0.6656
  154SAPE  H12Y17111   4.361   6.746   4.587  0.3222  1.5618  1.2470
  154SAPE  C31317112   4.256   6.860   4.432 -0.5025  0.6109  0.0945
  154SAPE  H13X17113   4.154   6.903   4.425 -0.2859  1.2628  0.8547
  154SAPE  H13Y17114   4.256   6.773   4.363 -0.4244  1.6108 -1.2015
  154SAPE  C31417115   4.368   6.965   4.398 -0.2873  0.7911 -0.2388
  154SAPE  H14X17116   4.460   6.910   4.428 -0.9813 -0.9102 -1.0984
  154SAPE  H14Y17117   4.352   7.048   4.469 -1.0935 -0.4698  1.1114
  154SAPE  C31517118   4.370   7.004   4.253 -0.1526 -0.6407  0.7705
  154SAPE  H15X17119   4.355   6.917   4.186  0.1959 -1.9438  2.3218
  154SAPE  H15Y17120   4.469   7.056   4.246  0.2875 -1.5771 -0.3174
  154SAPE  C31617121   4.267   7.113   4.224 -0.3986  0.4408  0.5965
  154SAPE  H16X17122   4.280   7.187   4.305  0.1446 -0.5467  1.4479
  154SAPE  H16Y17123   4.166   7.068   4.215  0.9116 -2.8280  0.7275
  154SAPE  C31717124   4.291   7.189   4.096 -0.5161 -0.3000  0.9699
  154SAPE  H17X17125   4.401   7.203   4.087 -0.6580  0.1248 -0.3343
  154SAPE  H17Y17126   4.233   7.283   4.112 -2.6159 -0.7336 -2.8604
  154SAPE  C31817127   4.237   7.136   3.966  0.4944 -0.2918 -0.3751
  154SAPE  H18X17128   4.306   7.178   3.889 -0.8239 -2.0836 -2.6538
  154SAPE  H18Y17129   4.132   7.160   3.937 -0.0289 -1.8150  0.1517
  154SAPE  H18Z17130   4.246   7.026   3.959 -1.0177 -0.4503 -0.2008
  155SAPE     N17131   5.398   7.132   5.807 -0.8546 -0.6608  0.3033
  155SAPE   HN117132   5.391   7.225   5.854  2.9538  1.5580 -2.8030
  155SAPE   HN217133   5.358   7.060   5.870 -0.8890  0.1393  1.2234
  155SAPE   HN317134   5.499   7.114   5.788 -1.2170 -1.4128 -1.0029
  155SAPE   C1217135   5.324   7.133   5.676 -0.0475  0.2041 -0.6477
  155SAPE  H12A17136   5.285   7.030   5.660 -0.9293  0.4258  0.0170
  155SAPE  H12B17137   5.394   7.159   5.593 -0.0315 -0.4666 -0.8539
  155SAPE   C1117138   5.211   7.230   5.685  0.5691 -0.0875  0.1218
  155SAPE  H11A17139   5.146   7.196   5.768  1.2249 -2.5018 -0.2731
  155SAPE  H11B17140   5.143   7.223   5.598 -0.7733  0.1169  1.1256
  155SAPE     P17141   5.240   7.438   5.845 -0.6568 -0.3442 -0.2907
  155SAPE   O1317142   5.338   7.370   5.940  0.4045 -0.7013  0.2220
  155SAPE   O1417143   5.263   7.582   5.817 -0.1852 -0.2752 -0.1914
  155SAPE   O1217144   5.249   7.364   5.703  0.0167 -0.5156  0.0467
  155SAPE   O1117145   5.082   7.405   5.881  0.0754  0.1990  0.2104
  155SAPE    C117146   4.989   7.491   5.806 -0.3820  0.3607 -0.5900
  155SAPE    HA17147   5.002   7.597   5.837  2.5246 -0.6202  2.0787
  155SAPE    HB17148   5.006   7.478   5.697  0.6686  0.1282 -0.4102
  155SAPE    C217149   4.842   7.450   5.837  0.6734 -0.3205 -0.6376
  155SAPE    HS17150   4.834   7.453   5.948 -1.6241  1.6138 -0.7724
  155SAPE   O2117151   4.830   7.317   5.794 -0.2272 -0.6282  0.3285
  155SAPE   C2117152   4.731   7.253   5.851  0.2519  0.5067 -0.2982
  155SAPE   O2217153   4.655   7.291   5.940  0.1913  0.3203 -0.5072
  155SAPE   C2217154   4.706   7.123   5.776  0.1435  0.1614  0.0605
  155SAPE   H2R17155   4.632   7.055   5.823 -2.1413  2.9358  0.7593
  155SAPE   H2S17156   4.656   7.160   5.683 -0.3262 -1.5611 -0.4181
  155SAPE    C317157   4.736   7.546   5.775 -0.0115  0.2725 -0.4447
  155SAPE    HX17158   4.755   7.645   5.821  1.2454 -0.5292  0.8559
  155SAPE    HY17159   4.634   7.516   5.807  0.3815  0.0239  0.6146
  155SAPE   O3117160   4.745   7.564   5.628  0.4218 -0.8761 -0.0221
  155SAPE   C3117161   4.682   7.472   5.564  0.6897 -0.4913 -0.6593
  155SAPE   O3217162   4.587   7.401   5.609 -0.9058  0.1156  0.0113
  155SAPE   C3217163   4.746   7.469   5.421  0.3764  0.1308  0.1808
  155SAPE   H2X17164   4.845   7.518   5.414  0.0199  0.7849 -0.5505
  155SAPE   H2Y17165   4.674   7.530   5.362 -0.8472 -1.0918  0.3520
  155SAPE   C2317166   4.829   7.039   5.729 -0.0784 -0.0174  0.2309
  155SAPE   H3R17167   4.883   7.008   5.821 -2.2473 -2.4809  0.7544
  155SAPE   H3S17168   4.899   7.087   5.656 -1.2142 -0.0609 -0.9145
  155SAPE   C2417169   4.800   6.908   5.652  0.1652  0.7359 -0.4519
  155SAPE   H4R17170   4.757   6.942   5.555  0.5160  0.3082 -0.7624
  155SAPE   H4S17171   4.728   6.849   5.714  0.8546  1.4755  1.0965
  155SAPE   C2517172   4.922   6.815   5.641  0.5961 -0.1945 -0.3130
  155SAPE   H5R17173   4.946   6.760   5.733  1.0534 -1.4359 -1.1524
  155SAPE   C2617174   5.009   6.808   5.539 -0.6297 -0.3882 -0.1843
  155SAPE   H6R17175   5.099   6.747   5.553  0.0569  0.9306  1.5117
  155SAPE   C2717176   4.989   6.894   5.419  0.3024 -0.0496 -0.6205
  155SAPE   H7R17177   4.992   7.002   5.444 -3.7264  1.0878 -3.9049
  155SAPE   H7S17178   4.884   6.885   5.383  0.4006  1.7155 -1.4764
  155SAPE   C2817179   5.084   6.865   5.302  0.1411  0.1823 -0.2722
  155SAPE   H8R17180   5.177   6.813   5.330  1.8581  3.0415 -0.1743
  155SAPE   C2917181   5.056   6.872   5.173 -0.2381  0.0485 -0.0266
  155SAPE   H9R17182   5.141   6.853   5.106 -0.5979 -0.4058 -0.3582
  155SAPE  C21017183   4.921   6.902   5.105 -0.8169  0.7959  0.6248
  155SAPE  H10R17184   4.893   7.007   5.125 -0.2122  1.1100 -0.1517
  155SAPE  H10S17185   4.827   6.856   5.144 -1.0648 -0.6518 -1.4807
  155SAPE  C21117186   4.923   6.885   4.954 -0.4635  0.2587 -0.4859
  155SAPE  H11R17187   5.003   6.816   4.921  1.3817  1.8778  0.3686
  155SAPE  C21217188   4.845   6.941   4.865 -1.3050 -0.0319  0.1769
  155SAPE  H12R17189   4.851   6.894   4.766  0.6205 -2.5785  1.3658
  155SAPE  C21317190   4.729   7.028   4.899 -0.3421 -0.2088 -1.0514
  155SAPE  H13R17191   4.701   7.007   5.004 -0.5269  3.2201 -0.3036
  155SAPE  H13S17192   4.644   6.990   4.838 -1.4060  0.2147  0.1203
  155SAPE  C21417193   4.758   7.177   4.897  0.1011  0.1870 -0.2062
  155SAPE  H14R17194   4.831   7.210   4.972 -0.8532 -0.0120  0.8334
  155SAPE  C21517195   4.684   7.254   4.820  0.5754 -0.1007 -0.0100
  155SAPE  H15R17196   4.714   7.360   4.829 -1.1694  0.4735 -0.5966
  155SAPE  C21617197   4.587   7.214   4.716 -0.0634 -0.2766  1.1589
  155SAPE  H16R17198   4.499   7.164   4.762 -1.1375 -1.7303 -2.2209
  155SAPE  H16S17199   4.634   7.132   4.657  2.1145  1.5449  0.2111
  155SAPE  C21717200   4.544   7.338   4.631  0.3233  0.5419 -0.0040
  155SAPE  H17R17201   4.638   7.372   4.583  1.4781 -0.0272  1.7704
  155SAPE  H17S17202   4.490   7.411   4.695 -1.5966  0.2236 -1.1713
  155SAPE  C21817203   4.435   7.298   4.524 -0.2235  0.0389  0.0691
  155SAPE  H18R17204   4.352   7.253   4.581  1.3511 -1.5510  1.2355
  155SAPE  H18S17205   4.478   7.226   4.451 -1.2945  1.3773 -1.9717
  155SAPE  C21917206   4.380   7.425   4.447  0.1422 -0.3373 -0.0862
  155SAPE  H19R17207   4.314   7.480   4.517  2.1550 -0.2240  1.8368
  155SAPE  H19S17208   4.314   7.389   4.365  1.4448 -0.0058 -1.3193
  155SAPE  C22017209   4.490   7.518   4.382  0.6352 -0.2567 -0.0398
  155SAPE  H20R17210   4.558   7.459   4.318 -0.4550 -0.3288 -1.1661
  155SAPE  H20S17211   4.550   7.577   4.455  0.8096 -0.0620 -0.3412
  155SAPE  H20T17212   4.434   7.586   4.315 -0.6534 -0.5080  0.7461
  155SAPE   C3317213   4.760   7.323   5.372 -0.7565  0.2726 -0.0218
  155SAPE   H3X17214   4.662   7.272   5.361 -1.3340  0.8513  2.0725
  155SAPE   H3Y17215   4.824   7.248   5.424 -0.1303 -1.8344 -3.4970
  155SAPE   C3417216   4.827   7.321   5.232 -0.2630  0.0089 -0.0278
  155SAPE   H4X17217   4.782   7.394   5.161 -0.9065 -2.3790 -2.2194
  155SAPE   H4Y17218   4.802   7.224   5.184  1.2820 -0.7217  0.5589
  155SAPE   C3517219   4.983   7.330   5.232 -0.9829 -0.1034  0.4758
  155SAPE   H5X17220   5.014   7.238   5.287  0.5297  0.2004  0.1607
  155SAPE   H5Y17221   5.012   7.421   5.290 -0.7786 -1.2866  2.3191
  155SAPE   C3617222   5.054   7.325   5.100  0.3747 -0.4772 -0.6238
  155SAPE   H6X17223   5.030   7.229   5.051 -0.2562 -1.7524  2.0051
  155SAPE   H6Y17224   5.164   7.316   5.115  0.0085 -1.3729  2.0202
  155SAPE   C3717225   5.019   7.451   5.023  0.4439  0.5356 -0.4653
  155SAPE   H7X17226   5.034   7.543   5.084 -2.1366  0.7101 -0.0123
  155SAPE   H7Y17227   4.913   7.460   4.990 -0.5330 -2.3590  1.5724
  155SAPE   C3817228   5.097   7.457   4.891 -0.4478 -0.3842  0.2199
  155SAPE   H8X17229   5.198   7.420   4.920 -0.9924 -0.0088  2.8599
  155SAPE   H8Y17230   5.108   7.565   4.870  2.2203  0.3372  4.1877
  155SAPE   C3917231   5.034   7.383   4.772 -0.2511  0.6209  1.0093
  155SAPE   H9X17232   4.928   7.416   4.783  0.0207  1.2763  1.6969
  155SAPE   H9Y17233   5.038   7.276   4.801  1.9396  0.1916 -0.6048
  155SAPE  C31017234   5.084   7.414   4.631  0.2446  0.4044 -0.5445
  155SAPE  H10X17235   5.091   7.524   4.617 -0.1720  0.5379  0.2710
  155SAPE  H10Y17236   5.024   7.367   4.550  2.2539  1.1156 -2.5364
  155SAPE  C31117237   5.225   7.347   4.604  0.0656  0.9396 -0.0569
  155SAPE  H11X17238   5.216   7.237   4.616  0.3104  0.8375 -0.7396
  155SAPE  H11Y17239   5.292   7.380   4.686 -1.3454 -1.6357  2.3060
  155SAPE  C31217240   5.282   7.378   4.466 -0.3099  0.5924  0.4376
  155SAPE  H12X17241   5.392   7.390   4.478 -0.4601  1.7562  0.8228
  155SAPE  H12Y17242   5.249   7.479   4.431 -1.3971  0.9501  2.3410
  155SAPE  C31317243   5.252   7.272   4.355  0.4402  0.1743  0.5434
  155SAPE  H13X17244   5.150   7.229   4.365  1.1056 -1.3596  1.0796
  155SAPE  H13Y17245   5.320   7.185   4.364  0.9618  0.6698  1.6515
  155SAPE  C31417246   5.263   7.330   4.215  0.4129  0.0185  0.1047
  155SAPE  H14X17247   5.185   7.408   4.203  1.6374  1.0991 -1.2434
  155SAPE  H14Y17248   5.246   7.246   4.144  1.2463  0.9353 -1.2356
  155SAPE  C31517249   5.392   7.386   4.172 -0.5973  0.3795  0.0288
  155SAPE  H15X17250   5.468   7.305   4.178 -0.5129  0.5488  3.8055
  155SAPE  H15Y17251   5.421   7.457   4.252 -0.5882 -0.8785  1.1786
  155SAPE  C31617252   5.398   7.459   4.036  0.0939 -0.4098  0.1282
  155SAPE  H16X17253   5.315   7.530   4.020 -1.5352 -2.1140  0.7157
  155SAPE  H16Y17254   5.394   7.383   3.955 -0.7018  0.0016 -0.2278
  155SAPE  C31717255   5.537   7.527   4.013  0.2330 -0.0043 -0.5326
  155SAPE  H17X17256   5.613   7.447   4.022 -0.4189 -0.5224  0.5497
  155SAPE  H17Y17257   5.560   7.601   4.094  0.7296  0.0430 -0.7153
  155SAPE  C31817258   5.565   7.591   3.881 -1.0184  0.3145  0.4850
  155SAPE  H18X17259   5.575   7.521   3.796  2.3599 -0.1566  1.1237
  155SAPE  H18Y17260   5.664   7.641   3.888 -1.0353  0.1871  1.9647
  155SAPE  H18Z17261   5.501   7.674   3.845  0.7614  0.9661 -1.3292
  156SAPE     N17262   6.418   1.936   5.949 -0.2152 -0.6929 -0.0998
  156SAPE   HN117263   6.500   1.953   6.011 -0.6367 -0.0866  0.3055
  156SAPE   HN217264   6.338   1.995   5.980 -0.9104 -1.3567 -0.6169
  156SAPE   HN317265   6.376   1.843   5.966 -2.8932  0.4549  0.1499
  156SAPE   C1217266   6.459   1.962   5.812 -0.0763 -0.6515  0.5837
  156SAPE  H12A17267   6.457   2.072   5.799  2.4365 -0.6847 -0.6572
  156SAPE  H12B17268   6.380   1.926   5.742 -1.1955  0.5151  1.2269
  156SAPE   C1117269   6.588   1.896   5.765  0.3109  0.6539 -0.1598
  156SAPE  H11A17270   6.675   1.956   5.802 -0.2959  0.3673  1.8428
  156SAPE  H11B17271   6.597   1.903   5.654  0.1089 -0.6678 -0.2731
  156SAPE     P17272   6.696   1.642   5.749 -0.0694  0.1627 -0.3133
  156SAPE   O1317273   6.692   1.521   5.832  0.3538 -0.4684  0.0487
  156SAPE   O1417274   6.662   1.608   5.610  0.5952 -0.1435  0.0801
  156SAPE   O1217275   6.605   1.762   5.808  0.2923  0.2273 -0.4951
  156SAPE   O1117276   6.847   1.687   5.769 -0.5321 -0.3302 -0.0822
  156SAPE    C117277   6.910   1.731   5.893  0.8060  0.0744  0.3063
  156SAPE    HA17278   6.848   1.818   5.923  0.1068 -0.1732 -0.3685
  156SAPE    HB17279   6.901   1.659   5.977  1.9317  0.3852  0.7116
  156SAPE    C217280   7.058   1.759   5.868 -0.5396  0.7106 -0.0815
  156SAPE    HS17281   7.110   1.806   5.954  0.0322 -2.4649  1.4262
  156SAPE   O2117282   7.065   1.851   5.759  0.3499  0.0737  0.6588
  156SAPE   C2117283   7.007   1.967   5.786 -0.0707 -0.1002 -0.1590
  156SAPE   O2217284   6.978   2.011   5.899 -0.4652 -0.3759  0.8175
  156SAPE   C2217285   6.973   2.044   5.653 -0.5831 -0.3534 -0.0579
  156SAPE   H2R17286   6.905   2.125   5.686 -0.1590 -0.5371  1.3247
  156SAPE   H2S17287   7.067   2.088   5.615  0.1185 -1.6350  0.1311
  156SAPE    C317288   7.142   1.632   5.844  0.5353  0.7872  0.2812
  156SAPE    HX17289   7.110   1.549   5.909  0.4200  0.7318  0.1527
  156SAPE    HY17290   7.244   1.665   5.875 -0.4349  1.1189  3.3672
  156SAPE   O3117291   7.144   1.588   5.709  0.4465  0.6883 -0.5888
  156SAPE   C3117292   7.061   1.496   5.660  0.0628  0.5333  0.6114
  156SAPE   O3217293   6.984   1.425   5.725 -0.2582  0.8849  0.0388
  156SAPE   C3217294   7.066   1.511   5.509 -0.2944  0.4877 -0.2170
  156SAPE   H2X17295   7.174   1.519   5.481 -0.3593 -0.5375 -0.8306
  156SAPE   H2Y17296   7.008   1.603   5.490 -0.8578 -0.3185 -2.8163
  156SAPE   C2317297   6.918   1.947   5.538  0.1883  0.1593  0.8005
  156SAPE   H3R17298   6.838   1.883   5.582 -0.8548  0.2938 -0.7897
  156SAPE   H3S17299   7.010   1.894   5.508 -0.0101  0.4466 -0.3743
  156SAPE   C2417300   6.840   2.022   5.425  0.5243 -0.3885  0.4059
  156SAPE   H4R17301   6.896   2.117   5.408  2.9923 -1.7932  0.2841
  156SAPE   H4S17302   6.744   2.053   5.471  0.5772 -1.1113  1.0297
  156SAPE   C2517303   6.802   1.934   5.310  0.2793 -0.1754  0.2379
  156SAPE   H5R17304   6.742   1.847   5.341  1.6856 -0.6847  1.6741
  156SAPE   C2617305   6.853   1.935   5.180  0.3105 -0.1835  0.8564
  156SAPE   H6R17306   6.821   1.856   5.111 -1.2865  2.2991 -1.4247
  156SAPE   C2717307   6.954   2.037   5.118  0.3338  1.0186 -0.3490
  156SAPE   H7R17308   7.058   2.000   5.129  0.5147  2.0332  1.9429
  156SAPE   H7S17309   6.958   2.123   5.188 -3.2748  0.3846  0.8553
  156SAPE   C2817310   6.921   2.082   4.971  0.0288 -0.8384 -0.3522
  156SAPE   H8R17311   6.847   2.161   4.955  1.9404  0.7028 -2.2809
  156SAPE   C2917312   6.971   2.022   4.855  0.5711 -0.4456 -0.8030
  156SAPE   H9R17313   6.940   2.062   4.758 -1.2577 -0.7143 -0.3545
  156SAPE  C21017314   7.072   1.909   4.844  0.0636 -0.1237  0.0906
  156SAPE  H10R17315   7.025   1.810   4.829  2.4176 -1.1264 -1.1967
  156SAPE  H10S17316   7.118   1.913   4.945 -0.3193 -0.2149  0.2659
  156SAPE  C21117317   7.184   1.932   4.741 -0.0441 -0.5150  0.5549
  156SAPE  H11R17318   7.270   1.988   4.783 -0.9609  0.2449  1.4680
  156SAPE  C21217319   7.188   1.883   4.618  0.7154 -0.5097  0.0010
  156SAPE  H12R17320   7.267   1.910   4.547 -0.1108  0.1533 -0.6837
  156SAPE  C21317321   7.083   1.789   4.560 -0.0275 -0.4206  0.5056
  156SAPE  H13R17322   6.984   1.840   4.552 -0.5507 -1.3175  1.1057
  156SAPE  H13S17323   7.054   1.705   4.626 -1.1562  0.2136  0.8630
  156SAPE  C21417324   7.119   1.723   4.429  0.0510 -0.2888  0.0813
  156SAPE  H14R17325   7.221   1.689   4.407  0.1813 -0.9045  1.5394
  156SAPE  C21517326   7.033   1.706   4.326  0.2680  0.0153  0.3031
  156SAPE  H15R17327   7.069   1.646   4.241 -2.4044  0.8112 -1.5074
  156SAPE  C21617328   6.896   1.748   4.315  0.3273  1.0786  0.1338
  156SAPE  H16R17329   6.864   1.832   4.381 -2.3351  1.4104 -1.4100
  156SAPE  H16S17330   6.831   1.662   4.344 -0.1278  1.0366 -0.9563
  156SAPE  C21717331   6.852   1.782   4.172  0.5394  0.3308 -0.1553
  156SAPE  H17R17332   6.862   1.696   4.103 -0.4273 -1.3295  1.6624
  156SAPE  H17S17333   6.928   1.855   4.138  0.2385  1.4431  1.4464
  156SAPE  C21817334   6.707   1.836   4.158  0.5666 -0.2150 -0.3422
  156SAPE  H18R17335   6.681   1.876   4.057  3.3325 -1.1379 -1.5081
  156SAPE  H18S17336   6.710   1.922   4.228  2.8504 -0.1644 -0.4349
  156SAPE  C21917337   6.611   1.718   4.192  0.0632  0.4390  0.1953
  156SAPE  H19R17338   6.624   1.697   4.300 -1.3029  1.8520  0.6820
  156SAPE  H19S17339   6.625   1.634   4.121 -2.8659  0.1022 -0.1223
  156SAPE  C22017340   6.463   1.764   4.177 -0.6316  0.7430  0.4233
  156SAPE  H20R17341   6.431   1.786   4.073  1.7701 -0.5188 -0.6602
  156SAPE  H20S17342   6.448   1.855   4.239  2.1917  1.0459  0.7833
  156SAPE  H20T17343   6.403   1.682   4.222  2.5183 -2.0228 -0.0569
  156SAPE   C3317344   7.002   1.393   5.435  0.3393 -0.8009 -0.0082
  156SAPE   H3X17345   6.891   1.394   5.446  0.1762 -0.6801 -1.5027
  156SAPE   H3Y17346   7.026   1.290   5.469 -1.2281 -0.9509  0.7780
  156SAPE   C3417347   7.013   1.391   5.280  0.2360  0.4971  0.2048
  156SAPE   H4X17348   6.935   1.455   5.233 -1.1224 -1.6361 -0.5702
  156SAPE   H4Y17349   7.001   1.289   5.239  0.0471  0.2398  0.9011
  156SAPE   C3517350   7.154   1.420   5.227 -0.8128  0.1088  0.2053
  156SAPE   H5X17351   7.218   1.379   5.308 -2.8463  0.5081  2.0820
  156SAPE   H5Y17352   7.164   1.530   5.224  1.0293 -0.0492 -1.1437
  156SAPE   C3617353   7.175   1.352   5.090 -0.4554  0.4406 -0.7059
  156SAPE   H6X17354   7.109   1.265   5.068 -0.8220 -0.5197  3.3959
  156SAPE   H6Y17355   7.279   1.314   5.089 -0.6096 -0.0133 -0.0463
  156SAPE   C3717356   7.142   1.452   4.985 -0.6067 -0.3137  0.1562
  156SAPE   H7X17357   7.205   1.542   5.001 -0.7337 -0.5014  1.9845
  156SAPE   H7Y17358   7.038   1.482   5.011  0.3908  2.7005  1.1404
  156SAPE   C3817359   7.169   1.401   4.841  0.6297  0.4681 -0.0681
  156SAPE   H8X17360   7.124   1.477   4.774  0.3161 -0.3241 -0.7645
  156SAPE   H8Y17361   7.116   1.306   4.822 -0.0572  0.4887  1.5571
  156SAPE   C3917362   7.313   1.393   4.801  0.4078 -0.3226  0.1938
  156SAPE   H9X17363   7.364   1.327   4.875  1.2575 -0.0112 -0.1052
  156SAPE   H9Y17364   7.369   1.488   4.812  1.7740 -1.2563  1.9019
  156SAPE  C31017365   7.340   1.326   4.665  0.0344 -0.6636  0.0728
  156SAPE  H10X17366   7.310   1.219   4.669  0.0851 -0.6533  0.9909
  156SAPE  H10Y17367   7.449   1.321   4.647 -0.0332  0.7334 -0.9065
  156SAPE  C31117368   7.271   1.404   4.551 -0.4504  0.8884  0.3166
  156SAPE  H11X17369   7.280   1.514   4.549  1.0134  0.7855 -0.2095
  156SAPE  H11Y17370   7.163   1.378   4.550 -0.2075 -0.2139 -1.1229
  156SAPE  C31217371   7.332   1.349   4.416 -0.4210  0.3680 -0.1635
  156SAPE  H12X17372   7.349   1.240   4.409 -0.1177  0.5131 -2.6969
  156SAPE  H12Y17373   7.430   1.398   4.395 -0.3238 -0.0989 -0.8297
  156SAPE  C31317374   7.240   1.376   4.301 -0.5400  0.2040 -0.5244
  156SAPE  H13X17375   7.220   1.486   4.299 -0.3239  0.2318 -2.3977
  156SAPE  H13Y17376   7.145   1.322   4.322  0.0437 -0.9964 -0.9201
  156SAPE  C31417377   7.304   1.332   4.165  0.0162 -0.1909 -1.1012
  156SAPE  H14X17378   7.299   1.221   4.158 -1.1274 -0.1673 -0.8293
  156SAPE  H14Y17379   7.408   1.370   4.163 -0.4691  1.4451  0.8034
  156SAPE  C31517380   7.237   1.389   4.043  0.6615  0.2032 -0.2639
  156SAPE  H15X17381   7.128   1.388   4.064  0.8717  0.0934  0.9337
  156SAPE  H15Y17382   7.245   1.319   3.957 -2.6951 -0.5779 -0.0741
  156SAPE  C31617383   7.294   1.520   3.998 -0.7466  0.7326  0.4815
  156SAPE  H16X17384   7.310   1.587   4.086  0.8404 -1.5424  2.0509
  156SAPE  H16Y17385   7.221   1.560   3.925 -1.1800  1.0882  1.0935
  156SAPE  C31717386   7.430   1.506   3.933 -0.0157 -0.1650 -0.3820
  156SAPE  H17X17387   7.436   1.410   3.877  2.3074  0.4025 -1.2099
  156SAPE  H17Y17388   7.514   1.505   4.007 -0.1975 -0.3109 -0.1771
  156SAPE  C31817389   7.453   1.620   3.827 -0.8359  0.5072 -0.4619
  156SAPE  H18X17390   7.541   1.585   3.768 -0.5714 -0.2272  0.3539
  156SAPE  H18Y17391   7.478   1.716   3.877 -0.0320  0.2380 -0.3289
  156SAPE  H18Z17392   7.370   1.628   3.754 -2.4737  2.0396  1.4528
  157SAPE     N17393   6.113   0.369   5.774 -0.4550  0.0407 -0.1676
  157SAPE   HN117394   6.053   0.404   5.696 -0.3674  1.8379  0.5192
  157SAPE   HN217395   6.207   0.413   5.764 -0.5607  0.2361 -0.2963
  157SAPE   HN317396   6.115   0.265   5.765  0.5918  0.0945 -0.7713
  157SAPE   C1217397   6.057   0.396   5.910  0.5570 -0.3821 -0.0010
  157SAPE  H12A17398   6.113   0.331   5.981 -0.6082 -1.8868 -0.3958
  157SAPE  H12B17399   5.956   0.354   5.891  0.3627 -0.7900  1.7764
  157SAPE   C1117400   6.052   0.543   5.944 -0.7313  0.2553 -0.2044
  157SAPE  H11A17401   6.156   0.576   5.961 -1.0377  0.7529  0.7348
  157SAPE  H11B17402   6.016   0.543   6.049 -0.2074 -0.6123 -0.0117
  157SAPE     P17403   5.984   0.777   5.876 -0.2065 -0.3832  0.1418
  157SAPE   O1317404   5.853   0.825   5.831  0.1323 -0.5999  0.1355
  157SAPE   O1417405   6.022   0.813   6.017 -0.0881 -0.1192 -0.2410
  157SAPE   O1217406   5.975   0.618   5.853 -0.1358 -0.2004  0.1074
  157SAPE   O1117407   6.104   0.839   5.780  0.0496  0.5952 -0.2397
  157SAPE    C117408   6.200   0.744   5.746  0.9373  0.5340 -0.0601
  157SAPE    HA17409   6.267   0.715   5.830  2.0259 -0.4699 -1.2312
  157SAPE    HB17410   6.150   0.659   5.696 -1.0512  1.5863  0.0609
  157SAPE    C217411   6.303   0.800   5.647  0.0891 -0.0355  0.1884
  157SAPE    HS17412   6.344   0.881   5.711 -0.4166  0.1604  0.2699
  157SAPE   O2117413   6.237   0.863   5.538 -0.2287  0.5239  0.6991
  157SAPE   C2117414   6.311   0.929   5.461 -0.0366 -0.1579 -0.4988
  157SAPE   O2217415   6.425   0.966   5.485 -0.2106  0.3802  0.3110
  157SAPE   C2217416   6.224   0.977   5.343 -0.0995  0.1695 -0.1446
  157SAPE   H2R17417   6.119   0.967   5.376  0.3558  0.4482  1.4723
  157SAPE   H2S17418   6.235   1.088   5.343 -0.6531  0.2405  1.0407
  157SAPE    C317419   6.411   0.693   5.596 -0.8896  0.8810 -0.5333
  157SAPE    HX17420   6.457   0.652   5.689 -0.2430  0.7194 -0.9255
  157SAPE    HY17421   6.495   0.740   5.541  0.7869  0.5422  1.5624
  157SAPE   O3117422   6.340   0.585   5.521 -0.2747 -0.2572  0.1911
  157SAPE   C3117423   6.360   0.581   5.386  0.1320  0.1631 -0.0321
  157SAPE   O3217424   6.433   0.656   5.326 -0.1619  0.1299  0.1654
  157SAPE   C3217425   6.286   0.471   5.312  0.3227  0.0674  0.3871
  157SAPE   H2X17426   6.193   0.510   5.266  1.0024  1.5978  0.2337
  157SAPE   H2Y17427   6.274   0.392   5.389  1.3476 -1.1852 -0.6914
  157SAPE   C2317428   6.264   0.916   5.201  0.3154  0.0839 -0.1101
  157SAPE   H3R17429   6.183   0.937   5.128 -1.0371 -0.7692  1.0763
  157SAPE   H3S17430   6.270   0.805   5.199 -0.4720  0.0019  0.9114
  157SAPE   C2417431   6.405   0.964   5.153 -0.0718  0.5811  0.2470
  157SAPE   H4R17432   6.469   0.940   5.240  0.0425 -2.1884 -0.5230
  157SAPE   H4S17433   6.403   1.073   5.128  1.4952  0.7698  0.7939
  157SAPE   C2517434   6.457   0.883   5.037 -0.6488 -0.3560  0.0822
  157SAPE   H5R17435   6.558   0.840   5.043 -0.2747  0.5133  0.0839
  157SAPE   C2617436   6.403   0.881   4.915  0.1034  0.2913  0.6111
  157SAPE   H6R17437   6.444   0.828   4.828 -0.3240  2.0961 -0.7464
  157SAPE   C2717438   6.272   0.953   4.875 -0.1927  0.6887 -0.3754
  157SAPE   H7R17439   6.226   1.012   4.956 -2.1990 -1.2017 -0.0235
  157SAPE   H7S17440   6.194   0.875   4.859  0.6449 -0.2369 -0.0285
  157SAPE   C2817441   6.270   1.043   4.749 -0.6705 -0.2981 -0.2642
  157SAPE   H8R17442   6.295   1.147   4.777  2.1563 -1.1237  0.5654
  157SAPE   C2917443   6.271   0.995   4.620  0.0091  0.0823 -0.2301
  157SAPE   H9R17444   6.306   1.066   4.544 -0.4031 -0.2263 -0.7065
  157SAPE  C21017445   6.252   0.848   4.583  0.7131 -0.1175 -0.8114
  157SAPE  H10R17446   6.152   0.821   4.625  1.1820 -2.2527 -0.9695
  157SAPE  H10S17447   6.329   0.794   4.642  1.3013  0.4794 -1.0236
  157SAPE  C21117448   6.264   0.818   4.441  0.8214 -0.1148  0.4050
  157SAPE  H11R17449   6.166   0.801   4.395 -2.1878  0.3590  5.8048
  157SAPE  C21217450   6.364   0.800   4.361 -0.0584 -0.5272  0.3081
  157SAPE  H12R17451   6.352   0.796   4.252 -0.2207 -0.0533  0.3056
  157SAPE  C21317452   6.509   0.819   4.404 -0.3465  0.0222 -0.6090
  157SAPE  H13R17453   6.552   0.720   4.428 -1.3178 -0.8335 -2.2264
  157SAPE  H13S17454   6.507   0.876   4.499 -2.8121 -1.3663  0.2770
  157SAPE  C21417455   6.590   0.898   4.311 -0.5222  0.2975  0.9634
  157SAPE  H14R17456   6.572   1.007   4.311  0.4844  0.5400 -1.3903
  157SAPE  C21517457   6.669   0.848   4.212  0.4552 -0.3091  0.1843
  157SAPE  H15R17458   6.722   0.916   4.145  0.3923 -0.0258  0.4206
  157SAPE  C21617459   6.690   0.700   4.190  0.3759 -0.4207  0.3007
  157SAPE  H16R17460   6.617   0.653   4.120  0.0251 -1.3118  1.2417
  157SAPE  H16S17461   6.695   0.646   4.287  0.6284  1.2282  1.2488
  157SAPE  C21717462   6.830   0.697   4.116 -0.6248  0.4913 -0.5766
  157SAPE  H17R17463   6.903   0.772   4.154 -1.2586  0.9729 -0.2982
  157SAPE  H17S17464   6.820   0.719   4.007  1.9664  1.3348 -0.7222
  157SAPE  C21817465   6.898   0.563   4.119  0.7681 -0.1589 -0.9882
  157SAPE  H18R17466   6.969   0.544   4.036  2.1238  1.5677 -0.2905
  157SAPE  H18S17467   6.817   0.487   4.113  0.1082  0.5427 -1.2047
  157SAPE  C21917468   6.978   0.537   4.250 -0.8965  0.4228  0.0427
  157SAPE  H19R17469   6.974   0.430   4.282  2.7429  0.1550 -0.0186
  157SAPE  H19S17470   6.930   0.592   4.334 -1.4675  0.8270 -0.5492
  157SAPE  C22017471   7.128   0.578   4.249 -0.6354 -0.1510 -0.5103
  157SAPE  H20R17472   7.137   0.679   4.202 -0.1650 -0.8274 -1.9647
  157SAPE  H20S17473   7.177   0.502   4.183 -1.7519 -0.1433 -1.3756
  157SAPE  H20T17474   7.181   0.569   4.346 -0.2272 -0.4088 -0.7519
  157SAPE   C3317475   6.371   0.409   5.200 -0.0582  0.3469 -0.5374
  157SAPE   H3X17476   6.340   0.303   5.186  0.2178  0.2160 -0.1681
  157SAPE   H3Y17477   6.474   0.393   5.238  0.5397  1.0633 -1.7960
  157SAPE   C3417478   6.358   0.477   5.060  0.4587 -0.2958  0.1458
  157SAPE   H4X17479   6.377   0.586   5.067 -1.0995 -0.0849  2.6271
  157SAPE   H4Y17480   6.259   0.458   5.012 -0.2943  0.6719  1.2560
  157SAPE   C3517481   6.465   0.418   4.979 -0.1895 -0.4505 -0.1361
  157SAPE   H5X17482   6.455   0.309   4.959  0.3712 -1.0920  2.7183
  157SAPE   H5Y17483   6.558   0.430   5.038 -0.3154  0.6749 -0.1488
  157SAPE   C3617484   6.482   0.494   4.842 -0.1891  0.1913  0.4232
  157SAPE   H6X17485   6.587   0.492   4.807 -0.5420 -0.6561 -0.6541
  157SAPE   H6Y17486   6.440   0.596   4.853 -0.4144  0.0260  1.1651
  157SAPE   C3717487   6.388   0.425   4.748  0.4079 -0.4884 -0.0524
  157SAPE   H7X17488   6.287   0.446   4.789  0.7565 -2.9539  2.4128
  157SAPE   H7Y17489   6.402   0.315   4.758  0.1968 -0.3320  3.3030
  157SAPE   C3817490   6.401   0.463   4.594  0.8981  0.5470 -0.2803
  157SAPE   H8X17491   6.506   0.460   4.560  0.4333 -1.6654 -1.7313
  157SAPE   H8Y17492   6.362   0.567   4.586  0.5427  0.4769  0.4879
  157SAPE   C3917493   6.311   0.371   4.508  0.1194  0.6733 -0.0535
  157SAPE   H9X17494   6.210   0.382   4.553  0.2064  1.4848 -0.0402
  157SAPE   H9Y17495   6.347   0.267   4.517  3.0409  1.5620 -0.5131
  157SAPE  C31017496   6.300   0.406   4.355 -0.2029  0.1015 -0.1152
  157SAPE  H10X17497   6.405   0.404   4.318  0.0621  2.8349  0.2763
  157SAPE  H10Y17498   6.271   0.513   4.345 -0.8894  0.0554  1.1689
  157SAPE  C31117499   6.220   0.318   4.268  0.0621  0.1906  0.6451
  157SAPE  H11X17500   6.109   0.326   4.281 -0.1039 -1.4588  0.3912
  157SAPE  H11Y17501   6.239   0.209   4.275  1.0540  0.1500 -1.7547
  157SAPE  C31217502   6.246   0.335   4.123  0.4204 -0.5449 -0.4305
  157SAPE  H12X17503   6.357   0.330   4.112  0.6567 -1.1553  1.7143
  157SAPE  H12Y17504   6.213   0.432   4.079 -0.6633 -0.5126  0.4097
  157SAPE  C31317505   6.193   0.225   4.030  0.6324  0.1058 -0.2377
  157SAPE  H13X17506   6.203   0.126   4.079  0.6645  0.5172  0.5896
  157SAPE  H13Y17507   6.246   0.227   3.932 -2.4195  1.7435 -1.9879
  157SAPE  C31417508   6.054   0.266   3.972  0.3675  0.1140  0.7369
  157SAPE  H14X17509   6.064   0.364   3.921 -2.4869  0.2031  0.1566
  157SAPE  H14Y17510   5.990   0.288   4.060  0.5925 -0.4835  1.0552
  157SAPE  C31517511   6.008   0.160   3.872  0.0547 -1.0878  0.3643
  157SAPE  H15X17512   5.997   0.060   3.919 -0.4559 -1.1102  0.2021
  157SAPE  H15Y17513   6.077   0.164   3.785 -1.1988 -2.1122 -0.7279
  157SAPE  C31617514   5.867   0.199   3.820 -0.3598 -0.7428  0.7889
  157SAPE  H16X17515   5.799   0.240   3.897 -1.6196 -2.3020  0.5535
  157SAPE  H16Y17516   5.824   0.103   3.784 -2.4742 -0.2412  1.8562
  157SAPE  C31717517   5.861   0.300   3.704 -0.0583 -1.1148  0.4007
  157SAPE  H17X17518   5.908   0.396   3.734 -0.1265 -0.8560 -0.3192
  157SAPE  H17Y17519   5.752   0.314   3.691 -0.0126 -2.0377 -1.2311
  157SAPE  C31817520   5.918   0.236   3.575 -0.6947 -0.3379  1.0611
  157SAPE  H18X17521   6.020   0.196   3.592 -0.4953 -0.3162 -0.0039
  157SAPE  H18Y17522   5.918   0.310   3.493 -0.1295  0.5842  1.8787
  157SAPE  H18Z17523   5.842   0.158   3.550 -3.9927  3.1700 -0.8202
  158SAPE     N17524   0.198   1.041   5.872 -0.2135  0.3420 -0.0351
  158SAPE   HN117525   0.225   0.997   5.962  0.3872  0.4164 -0.1757
  158SAPE   HN217526   0.171   1.140   5.883 -0.7634  0.4628 -2.0419
  158SAPE   HN317527   0.114   0.990   5.837  0.5216  0.6201 -2.4009
  158SAPE   C1217528   0.309   1.020   5.778  0.1317  0.0323  0.3722
  158SAPE  H12A17529   0.287   1.066   5.680  1.7151  1.4954  0.6600
  158SAPE  H12B17530   0.322   0.911   5.761  1.8120  0.4033 -0.8836
  158SAPE   C1117531   0.441   1.081   5.834 -0.6511 -0.3727 -0.1910
  158SAPE  H11A17532   0.442   1.191   5.850  0.7137 -0.6254  1.8667
  158SAPE  H11B17533   0.526   1.063   5.764  1.0722  1.7759  1.2116
  158SAPE     P17534   0.551   0.904   6.001  0.0838 -0.0808 -0.1383
  158SAPE   O1317535   0.624   0.927   6.126 -0.4116 -0.0802 -0.2193
  158SAPE   O1417536   0.441   0.803   6.002  0.4134  0.4626  0.7172
  158SAPE   O1217537   0.480   1.034   5.968  0.3329  0.0470  0.0452
  158SAPE   O1117538   0.644   0.885   5.878 -0.2165 -0.1060 -0.7720
  158SAPE    C117539   0.616   0.779   5.784  0.7342  0.0118 -0.8233
  158SAPE    HA17540   0.507   0.770   5.762  0.2392  0.1442  1.3541
  158SAPE    HB17541   0.662   0.797   5.684  0.3164  1.2362 -0.8101
  158SAPE    C217542   0.665   0.636   5.840 -0.9341 -0.0474 -0.1548
  158SAPE    HS17543   0.629   0.631   5.945 -1.6557 -2.2500 -0.4669
  158SAPE   O2117544   0.807   0.641   5.830 -0.4147 -0.3153  0.3657
  158SAPE   C2117545   0.872   0.537   5.869  0.3129  0.7228  0.3343
  158SAPE   O2217546   0.824   0.439   5.922  0.5226  0.3520 -0.3029
  158SAPE   C2217547   1.010   0.565   5.814 -0.0453  0.6122  0.3984
  158SAPE   H2R17548   1.026   0.674   5.825 -3.8350  1.1487  2.2078
  158SAPE   H2S17549   1.079   0.515   5.885 -1.2867 -0.8904  0.5980
  158SAPE    C317550   0.589   0.513   5.778  0.1422 -0.0956  0.6972
  158SAPE    HX17551   0.484   0.532   5.808 -0.5622 -0.7714 -1.1694
  158SAPE    HY17552   0.619   0.414   5.818  0.5329 -0.8884 -1.4259
  158SAPE   O3117553   0.615   0.513   5.633  0.7616 -0.3618  1.0059
  158SAPE   C3117554   0.545   0.425   5.555  0.6879 -0.3882  0.0200
  158SAPE   O3217555   0.450   0.359   5.592  0.1452  0.1729  0.3168
  158SAPE   C3217556   0.598   0.439   5.418 -0.1296  0.2814 -0.0788
  158SAPE   H2X17557   0.661   0.355   5.385  1.9299  1.6896  0.0848
  158SAPE   H2Y17558   0.663   0.528   5.403 -0.1524 -0.0512 -2.6323
  158SAPE   C2317559   1.031   0.516   5.669 -0.4070 -0.7200 -0.1437
  158SAPE   H3R17560   0.986   0.419   5.641  0.5485 -1.1693 -0.1456
  158SAPE   H3S17561   1.137   0.506   5.640 -0.6464 -0.2526 -1.2582
  158SAPE   C2417562   0.984   0.615   5.560  0.5764 -0.1889 -0.3394
  158SAPE   H4R17563   1.050   0.704   5.569 -2.1996  2.3067 -2.6360
  158SAPE   H4S17564   0.878   0.641   5.578  0.6207 -0.6585  0.6246
  158SAPE   C2517565   1.011   0.577   5.414 -0.8173  0.7415  0.2179
  158SAPE   H5R17566   1.068   0.485   5.397  0.1614  1.1653  1.1020
  158SAPE   C2617567   0.968   0.661   5.320 -0.5888  0.4105 -0.2787
  158SAPE   H6R17568   1.003   0.645   5.217  0.1288 -0.0910  0.0342
  158SAPE   C2717569   0.894   0.786   5.338  0.1025  0.1695  0.0501
  158SAPE   H7R17570   0.934   0.852   5.258  0.2284  0.4493  0.3398
  158SAPE   H7S17571   0.914   0.826   5.440 -0.0880 -1.3086  0.7010
  158SAPE   C2817572   0.742   0.779   5.335 -0.4232  0.6056  0.1602
  158SAPE   H8R17573   0.706   0.742   5.432 -0.3208  0.9664  0.3362
  158SAPE   C2917574   0.656   0.802   5.231 -0.2918 -0.0380 -0.4260
  158SAPE   H9R17575   0.549   0.795   5.254 -0.2649  1.0303  0.0532
  158SAPE  C21017576   0.692   0.863   5.097  0.8340  0.4301 -0.0759
  158SAPE  H10R17577   0.722   0.969   5.107 -0.5819  0.9566 -1.0258
  158SAPE  H10S17578   0.602   0.864   5.031  1.3875  0.1287 -0.8476
  158SAPE  C21117579   0.795   0.779   5.020 -0.2386  0.1071  0.6915
  158SAPE  H11R17580   0.840   0.695   5.074 -1.0260 -1.4019 -0.9095
  158SAPE  C21217581   0.833   0.804   4.893  0.6981 -0.2990  0.4660
  158SAPE  H12R17582   0.888   0.724   4.840  0.8210 -0.1275  0.3329
  158SAPE  C21317583   0.785   0.921   4.811  0.2905  0.0504 -0.6027
  158SAPE  H13R17584   0.678   0.947   4.828 -0.7936 -2.5498 -2.6973
  158SAPE  H13S17585   0.801   0.888   4.706 -0.8834 -1.4214 -0.3557
  158SAPE  C21417586   0.886   1.029   4.843 -0.2158 -0.0722  0.6198
  158SAPE  H14R17587   0.879   1.083   4.938  1.2691 -0.7176  1.1230
  158SAPE  C21517588   0.990   1.062   4.764 -0.4287 -0.0597 -0.6300
  158SAPE  H15R17589   1.061   1.138   4.800 -0.7875  0.4341 -0.9497
  158SAPE  C21617590   1.025   1.008   4.623 -0.1140  0.6480 -0.1579
  158SAPE  H16R17591   0.961   0.920   4.600 -1.0160  1.7669 -2.1166
  158SAPE  H16S17592   1.130   0.970   4.620 -0.6528 -0.8385 -1.3500
  158SAPE  C21717593   0.996   1.101   4.503  0.7540  0.5207 -0.4813
  158SAPE  H17R17594   1.043   1.201   4.515 -1.3645  1.6578 -1.1490
  158SAPE  H17S17595   0.888   1.123   4.488  0.1756 -1.3307  0.6080
  158SAPE  C21817596   1.046   1.035   4.372 -0.1726 -0.2522  0.3009
  158SAPE  H18R17597   1.000   0.936   4.352 -1.6829  0.6805 -1.0841
  158SAPE  H18S17598   1.155   1.018   4.385  0.0145 -1.6636 -2.4499
  158SAPE  C21917599   1.035   1.114   4.238  0.1910 -0.0151 -0.2687
  158SAPE  H19R17600   0.933   1.115   4.196 -0.3210  0.2490  0.9291
  158SAPE  H19S17601   1.092   1.059   4.160  1.1776  2.8428 -1.6924
  158SAPE  C22017602   1.107   1.248   4.244  0.1719 -0.2848 -0.3741
  158SAPE  H20R17603   1.105   1.300   4.146 -2.4494 -0.4718 -0.5005
  158SAPE  H20S17604   1.215   1.239   4.266  0.6273  0.9927 -1.9180
  158SAPE  H20T17605   1.057   1.321   4.311  1.6753  0.2039  0.2420
  158SAPE   C3317606   0.492   0.438   5.306 -0.3962  0.0452 -0.2551
  158SAPE   H3X17607   0.421   0.522   5.322 -0.4211 -0.2434  1.2828
  158SAPE   H3Y17608   0.424   0.351   5.319 -0.1295 -0.1305 -0.0114
  158SAPE   C3417609   0.554   0.442   5.168  0.3735 -0.7383 -0.2277
  158SAPE   H4X17610   0.623   0.357   5.147  1.8536  0.1725  0.7905
  158SAPE   H4Y17611   0.608   0.536   5.145  0.2978 -1.2537 -2.7672
  158SAPE   C3517612   0.437   0.429   5.068  0.5355 -0.0400 -0.1487
  158SAPE   H5X17613   0.356   0.499   5.099  0.7204 -0.1929  0.6976
  158SAPE   H5Y17614   0.398   0.325   5.068 -0.5662  0.3583  0.6523
  158SAPE   C3617615   0.475   0.450   4.924 -0.2291  0.1587  0.3629
  158SAPE   H6X17616   0.521   0.551   4.916 -1.6658  0.8456  0.5485
  158SAPE   H6Y17617   0.384   0.460   4.861  0.0530 -0.5720 -0.1754
  158SAPE   C3717618   0.556   0.331   4.861 -0.3596  0.0024 -0.3410
  158SAPE   H7X17619   0.481   0.249   4.858 -2.0592  1.4543  0.1493
  158SAPE   H7Y17620   0.631   0.295   4.934 -0.0937 -0.3130 -0.7680
  158SAPE   C3817621   0.608   0.358   4.724  0.1322  0.5718  0.3646
  158SAPE   H8X17622   0.526   0.366   4.649 -1.4962 -1.0172  1.8920
  158SAPE   H8Y17623   0.646   0.260   4.688 -3.0977 -1.3959  1.8778
  158SAPE   C3917624   0.723   0.458   4.711 -0.4909 -0.4240  0.6475
  158SAPE   H9X17625   0.808   0.447   4.782  0.3004 -3.1096 -0.5975
  158SAPE   H9Y17626   0.689   0.562   4.732  0.9167  0.3848 -0.8261
  158SAPE  C31017627   0.771   0.452   4.566 -0.1661 -0.5215  0.5728
  158SAPE  H10X17628   0.687   0.467   4.496  0.2752  2.3077  0.5144
  158SAPE  H10Y17629   0.820   0.353   4.551  1.7094  0.3623  0.5308
  158SAPE  C31117630   0.863   0.566   4.530 -0.1639 -0.1703  0.2482
  158SAPE  H11X17631   0.954   0.560   4.594  0.7939  2.4777 -0.7501
  158SAPE  H11Y17632   0.819   0.665   4.553  1.7280  0.2210  2.6949
  158SAPE  C31217633   0.903   0.582   4.376 -0.6377  0.4759  1.0202
  158SAPE  H12X17634   0.898   0.478   4.336  1.4582  0.0880  1.6118
  158SAPE  H12Y17635   1.010   0.611   4.372 -0.4636 -0.2580 -1.1850
  158SAPE  C31317636   0.818   0.689   4.311 -0.1122 -0.1218 -0.2981
  158SAPE  H13X17637   0.816   0.783   4.369 -0.5599 -0.3502  0.0599
  158SAPE  H13Y17638   0.715   0.652   4.296  0.2069 -2.2554  2.1207
  158SAPE  C31417639   0.873   0.713   4.165 -0.1166  0.0353  0.0580
  158SAPE  H14X17640   0.862   0.613   4.118 -0.1058  0.9900 -2.0890
  158SAPE  H14Y17641   0.976   0.753   4.180  0.6875 -2.8016  3.9772
  158SAPE  C31517642   0.785   0.807   4.086  0.1955  0.4376  0.6864
  158SAPE  H15X17643   0.768   0.895   4.151 -0.0693  1.0429 -0.1887
  158SAPE  H15Y17644   0.689   0.756   4.061  1.4308 -1.1591 -1.1110
  158SAPE  C31617645   0.846   0.842   3.948 -1.3216  0.0544  0.8833
  158SAPE  H16X17646   0.880   0.749   3.898 -1.1110  0.3224  0.5180
  158SAPE  H16Y17647   0.928   0.917   3.957 -2.7567  1.7142  0.6817
  158SAPE  C31717648   0.751   0.904   3.848  0.7923  0.3676 -0.0750
  158SAPE  H17X17649   0.670   0.830   3.831  2.0109 -0.5953 -1.9899
  158SAPE  H17Y17650   0.812   0.917   3.756  1.6440  2.9462  0.7913
  158SAPE  C31817651   0.689   1.039   3.888 -0.0699 -0.4750 -0.3269
  158SAPE  H18X17652   0.636   1.089   3.805  0.7933  0.8184 -0.1343
  158SAPE  H18Y17653   0.765   1.106   3.934  0.1699 -1.0061  0.0627
  158SAPE  H18Z17654   0.615   1.010   3.965  0.3222 -1.9695 -0.4741
  159SAPE     N17655   4.869   4.097   1.591 -0.8595 -0.4742  0.0848
  159SAPE   HN117656   4.920   4.187   1.582  1.9717 -1.9686 -0.1287
  159SAPE   HN217657   4.941   4.032   1.553 -1.6191 -0.8193 -0.7905
  159SAPE   HN317658   4.790   4.091   1.524  0.0727 -0.1406 -1.0867
  159SAPE   C1217659   4.824   4.056   1.724 -0.8917  0.9769 -0.7502
  159SAPE  H12A17660   4.793   3.950   1.709  1.3166  0.2490 -0.4226
  159SAPE  H12B17661   4.734   4.116   1.750 -0.0914  2.0242 -0.3305
  159SAPE   C1117662   4.929   4.060   1.832 -0.1560 -0.1323 -0.2876
  159SAPE  H11A17663   4.878   4.022   1.923  0.2075  0.7452  0.2918
  159SAPE  H11B17664   4.950   4.166   1.856 -0.5112  0.4245 -2.2398
  159SAPE     P17665   5.094   3.859   1.877 -0.1476  0.1467  0.2493
  159SAPE   O1317666   4.984   3.786   1.939 -0.2379  0.6191 -0.2291
  159SAPE   O1417667   5.186   3.781   1.781  0.0898 -0.4769 -0.1030
  159SAPE   O1217668   5.039   3.984   1.794 -0.2895  0.4001 -0.6484
  159SAPE   O1117669   5.184   3.935   1.984  0.5529  0.8386  0.0141
  159SAPE    C117670   5.140   4.035   2.068  0.3983  0.2329 -0.4204
  159SAPE    HA17671   5.234   4.078   2.109  0.8187 -2.3034  1.5034
  159SAPE    HB17672   5.097   4.112   2.000 -2.8620 -1.3565 -0.3764
  159SAPE    C217673   5.054   3.982   2.183  0.0022 -0.4204  0.0147
  159SAPE    HS17674   4.968   3.916   2.156 -0.2296 -0.4076  0.6959
  159SAPE   O2117675   5.004   4.100   2.250 -0.4817  0.7233  0.1569
  159SAPE   C2117676   4.913   4.071   2.344 -0.9965  0.0065  0.0375
  159SAPE   O2217677   4.870   3.959   2.365  0.0208  0.0646  0.1604
  159SAPE   C2217678   4.856   4.202   2.412 -0.5299  0.9759 -0.5677
  159SAPE   H2R17679   4.928   4.279   2.378  0.9205 -1.0697 -2.4045
  159SAPE   H2S17680   4.757   4.220   2.365 -0.5370 -0.2502 -1.0682
  159SAPE    C317681   5.148   3.896   2.275 -0.8334 -0.1942 -0.4519
  159SAPE    HX17682   5.178   3.814   2.207  0.5425 -0.8584  0.9078
  159SAPE    HY17683   5.081   3.858   2.356  0.0628 -0.9559 -0.0458
  159SAPE   O3117684   5.263   3.969   2.324  0.6181 -0.1478 -0.2109
  159SAPE   C3117685   5.320   3.915   2.428  0.2922 -0.2167 -0.2342
  159SAPE   O3217686   5.275   3.823   2.495  0.2727 -0.0895 -0.4427
  159SAPE   C3217687   5.460   3.977   2.440  0.0711  0.1322 -0.0733
  159SAPE   H2X17688   5.461   4.086   2.419  1.0031  0.0653 -0.4423
  159SAPE   H2Y17689   5.523   3.935   2.358  3.5237 -0.4462  2.6257
  159SAPE   C2317690   4.844   4.196   2.567  0.2994  0.6702  0.1192
  159SAPE   H3R17691   4.759   4.131   2.598  1.3431  0.5167  2.9873
  159SAPE   H3S17692   4.819   4.299   2.599 -2.5040  0.3574 -0.7573
  159SAPE   C2417693   4.976   4.163   2.641 -0.5051 -0.1362 -0.7771
  159SAPE   H4R17694   4.952   4.210   2.739  1.2001  2.5806 -1.5556
  159SAPE   H4S17695   5.058   4.222   2.595 -1.8139  2.1245 -0.4031
  159SAPE   C2517696   4.995   4.016   2.647  0.5969 -0.4778  0.3636
  159SAPE   H5R17697   5.050   3.971   2.564  2.0907  0.2243  0.9456
  159SAPE   C2617698   4.948   3.935   2.744 -0.0555  1.1342  0.2803
  159SAPE   H6R17699   4.963   3.826   2.738  0.8289  1.1378  1.7367
  159SAPE   C2717700   4.883   3.980   2.875  1.2152  0.6350  0.1561
  159SAPE   H7R17701   4.890   4.087   2.904 -0.0218  0.8559 -0.3094
  159SAPE   H7S17702   4.921   3.915   2.957 -0.5640 -1.7832 -0.8271
  159SAPE   C2817703   4.733   3.956   2.862 -0.0394  0.4407  0.2737
  159SAPE   H8R17704   4.691   3.972   2.762 -0.8775  0.8726  0.6835
  159SAPE   C2917705   4.648   3.938   2.969  0.4589 -0.1583  0.3998
  159SAPE   H9R17706   4.542   3.918   2.945  0.6671  1.5098 -2.4191
  159SAPE  C21017707   4.689   3.933   3.113  0.0798 -0.1563 -0.4144
  159SAPE  H10R17708   4.798   3.916   3.128  0.2527 -0.0057 -1.4554
  159SAPE  H10S17709   4.644   3.836   3.141 -1.1315  0.5388  0.1298
  159SAPE  C21117710   4.647   4.047   3.196  1.0702 -0.2176 -0.5470
  159SAPE  H11R17711   4.555   4.105   3.178  2.1058  1.9176  0.7602
  159SAPE  C21217712   4.719   4.096   3.304  0.7382  0.1453  0.0544
  159SAPE  H12R17713   4.677   4.181   3.360  0.1804 -0.2982  0.3163
  159SAPE  C21317714   4.856   4.053   3.354  0.4711 -0.4473  0.5897
  159SAPE  H13R17715   4.898   4.153   3.375 -2.0228  1.4280 -2.4749
  159SAPE  H13S17716   4.914   3.998   3.276 -2.5133  0.0027 -2.1428
  159SAPE  C21417717   4.845   3.952   3.461 -0.0114 -0.0303 -0.7646
  159SAPE  H14R17718   4.775   3.870   3.439 -0.1771 -0.4470  1.1635
  159SAPE  C21517719   4.911   3.957   3.580 -0.1132  0.3344  0.4777
  159SAPE  H15R17720   4.873   3.889   3.657  0.7269 -0.5541  0.1256
  159SAPE  C21617721   5.026   4.049   3.613 -0.1623 -0.5709  0.1875
  159SAPE  H16R17722   5.026   4.084   3.718  0.2055 -0.8433  0.2795
  159SAPE  H16S17723   5.014   4.137   3.547 -0.7765 -2.0727 -1.8050
  159SAPE  C21717724   5.159   3.976   3.569 -0.6180  0.2981  0.0855
  159SAPE  H17R17725   5.171   3.881   3.626  2.4507  0.4170 -0.2038
  159SAPE  H17S17726   5.242   4.043   3.602 -0.7669  0.0243  1.0404
  159SAPE  C21817727   5.180   3.959   3.420  0.0857 -0.0649  0.3916
  159SAPE  H18R17728   5.143   4.053   3.373  1.4824 -0.4580 -1.6751
  159SAPE  H18S17729   5.119   3.875   3.381  4.0086 -1.7764 -2.8253
  159SAPE  C21917730   5.322   3.932   3.372  0.4189  0.5385 -0.7690
  159SAPE  H19R17731   5.384   4.022   3.393  2.0532 -0.5553 -0.6727
  159SAPE  H19S17732   5.321   3.917   3.262  2.0744  1.8844 -1.0177
  159SAPE  C22017733   5.381   3.803   3.430  0.3083  0.0170 -0.2604
  159SAPE  H20R17734   5.320   3.715   3.400  1.7680 -0.9274 -0.6040
  159SAPE  H20S17735   5.395   3.808   3.540 -0.6177  2.1292 -0.2067
  159SAPE  H20T17736   5.480   3.789   3.380 -0.8976 -0.8362 -2.5703
  159SAPE   C3317737   5.524   3.942   2.577 -0.4992  0.5912  0.0553
  159SAPE   H3X17738   5.632   3.955   2.556 -0.6522 -0.9281 -1.9975
  159SAPE   H3Y17739   5.509   3.835   2.600  0.7138 -0.3885 -3.2603
  159SAPE   C3417740   5.471   4.026   2.693 -0.1145 -0.4393  0.3125
  159SAPE   H4X17741   5.361   4.010   2.691 -0.2104  0.3027 -0.4896
  159SAPE   H4Y17742   5.494   4.134   2.682 -1.5274 -0.2239 -0.8091
  159SAPE   C3517743   5.510   3.975   2.828  0.5452 -0.3822 -0.7522
  159SAPE   H5X17744   5.607   4.019   2.858 -1.0393  3.7110 -0.9933
  159SAPE   H5Y17745   5.522   3.865   2.822 -1.1861 -0.6346 -0.1885
  159SAPE   C3617746   5.411   4.014   2.944  0.6871  1.0684  0.1695
  159SAPE   H6X17747   5.422   3.947   3.032 -0.7251  0.0997 -0.3584
  159SAPE   H6Y17748   5.316   3.990   2.893  0.6263  0.6839  0.4582
  159SAPE   C3717749   5.418   4.158   2.998  0.6677  0.2750  0.2050
  159SAPE   H7X17750   5.401   4.227   2.912 -0.3077  1.6224  1.4164
  159SAPE   H7Y17751   5.519   4.177   3.040  0.3595  1.2137  0.5547
  159SAPE   C3817752   5.307   4.208   3.103  0.2203 -0.2728  0.2614
  159SAPE   H8X17753   5.329   4.314   3.127  0.5230 -0.4618  0.8271
  159SAPE   H8Y17754   5.324   4.146   3.193  1.7577  1.4011  1.2009
  159SAPE   C3917755   5.162   4.188   3.046 -0.0366  0.3313 -0.1965
  159SAPE   H9X17756   5.146   4.078   3.034 -2.3654  0.5239  0.6405
  159SAPE   H9Y17757   5.164   4.232   2.944  1.0941  0.9485  0.0780
  159SAPE  C31017758   5.054   4.239   3.140  0.0655 -0.0127 -0.3826
  159SAPE  H10X17759   5.062   4.189   3.239 -1.7600  0.1378 -0.1172
  159SAPE  H10Y17760   4.953   4.209   3.105  0.1662 -0.7060 -0.0902
  159SAPE  C31117761   5.054   4.383   3.182 -0.1783  0.5315  0.0949
  159SAPE  H11X17762   5.023   4.446   3.096 -0.8508 -0.0218 -0.0759
  159SAPE  H11Y17763   5.154   4.413   3.220  0.0296 -1.4334  1.2507
  159SAPE  C31217764   4.961   4.416   3.302 -0.2567 -0.3557  0.2941
  159SAPE  H12X17765   4.996   4.387   3.404 -1.9871 -1.8039  0.5355
  159SAPE  H12Y17766   4.871   4.352   3.287  0.5272 -1.2928 -0.5050
  159SAPE  C31317767   4.914   4.561   3.311 -0.0108  0.3551 -0.6753
  159SAPE  H13X17768   4.827   4.553   3.379 -1.5562  1.2243 -2.4476
  159SAPE  H13Y17769   4.896   4.602   3.209 -1.3283  0.4658 -0.4113
  159SAPE  C31417770   5.000   4.655   3.398 -0.3520  0.1109  0.3000
  159SAPE  H14X17771   5.099   4.664   3.348  1.2430  2.2821  3.5200
  159SAPE  H14Y17772   5.024   4.608   3.496 -2.6705 -1.5232  0.1646
  159SAPE  C31517773   4.936   4.791   3.426 -0.6004 -0.5911 -0.1550
  159SAPE  H15X17774   4.851   4.788   3.497  0.2085  1.6577  1.0195
  159SAPE  H15Y17775   4.902   4.823   3.325  0.8011  0.7459 -0.2414
  159SAPE  C31617776   5.039   4.895   3.479  0.5584  0.0585 -0.1191
  159SAPE  H16X17777   4.993   4.996   3.469 -0.6408 -0.5048 -0.5767
  159SAPE  H16Y17778   5.127   4.892   3.411  0.4016 -0.0157 -0.3203
  159SAPE  C31717779   5.083   4.863   3.620 -0.1263  0.4300  0.5178
  159SAPE  H17X17780   5.151   4.776   3.628 -1.3183 -0.4671  1.3952
  159SAPE  H17Y17781   4.987   4.834   3.669  0.5508 -4.4920 -0.5644
  159SAPE  C31817782   5.149   4.971   3.693 -0.1203 -0.1362 -0.2233
  159SAPE  H18X17783   5.255   4.983   3.662 -0.2979 -0.5899 -1.0383
  159SAPE  H18Y17784   5.148   4.953   3.803  0.2935  1.3142  0.0282
  159SAPE  H18Z17785   5.100   5.069   3.676 -4.9281 -1.9262  1.5867
  160SAPE     N17786   5.518   2.671   1.688 -0.7236  0.2370 -0.2239
  160SAPE   HN117787   5.418   2.689   1.710 -1.3744 -0.5601 -2.2952
  160SAPE   HN217788   5.520   2.632   1.591 -1.6721  0.3400 -0.2866
  160SAPE   HN317789   5.563   2.600   1.750 -1.3690 -0.6692 -0.7610
  160SAPE   C1217790   5.589   2.803   1.692 -0.0028 -0.1011 -0.0120
  160SAPE  H12A17791   5.557   2.859   1.783  1.1095  2.6323 -1.1856
  160SAPE  H12B17792   5.550   2.855   1.602 -1.3042 -0.8481  0.0885
  160SAPE   C1117793   5.742   2.793   1.687 -0.5654  0.3987  0.4643
  160SAPE  H11A17794   5.787   2.893   1.705 -1.3467  0.7896  0.2706
  160SAPE  H11B17795   5.778   2.766   1.586 -0.7459  0.0077  0.5029
  160SAPE     P17796   5.830   2.555   1.761  0.5337  0.4555 -0.0647
  160SAPE   O1317797   5.705   2.475   1.734 -0.3183  0.2209  0.6833
  160SAPE   O1417798   5.943   2.545   1.667  0.0968  0.0158  0.6724
  160SAPE   O1217799   5.791   2.707   1.789  0.1142 -0.1986 -0.3774
  160SAPE   O1117800   5.889   2.522   1.906  0.6332 -0.3087 -0.0393
  160SAPE    C117801   5.871   2.394   1.956 -0.6659 -0.0070  0.0065
  160SAPE    HA17802   5.808   2.325   1.896 -1.0927  1.3444 -1.1678
  160SAPE    HB17803   5.972   2.349   1.968 -0.0601  1.7126  2.1980
  160SAPE    C217804   5.811   2.397   2.095 -0.1752 -0.4634 -0.3501
  160SAPE    HS17805   5.819   2.294   2.136 -1.0599 -0.2330  0.4459
  160SAPE   O2117806   5.676   2.443   2.099  0.1124  0.8751 -0.5718
  160SAPE   C2117807   5.584   2.350   2.083 -0.5154  0.1071 -0.3070
  160SAPE   O2217808   5.598   2.228   2.071  0.9042 -0.6795 -0.1271
  160SAPE   C2217809   5.448   2.426   2.073  0.5408  0.1878 -0.2910
  160SAPE   H2R17810   5.459   2.536   2.068 -2.1903  0.4885 -1.9683
  160SAPE   H2S17811   5.405   2.389   1.977  2.1234  3.0144 -2.2527
  160SAPE    C317812   5.888   2.486   2.195 -0.5220 -0.1615 -0.1457
  160SAPE    HX17813   5.869   2.593   2.172 -2.3818 -0.9416 -2.6431
  160SAPE    HY17814   5.996   2.466   2.177  0.1185  1.5350  1.5061
  160SAPE   O3117815   5.843   2.447   2.331  0.3830  0.2231  0.4041
  160SAPE   C3117816   5.934   2.478   2.417 -0.2761 -0.5922 -0.0885
  160SAPE   O3217817   6.038   2.544   2.400 -0.2725 -0.3159  0.2804
  160SAPE   C3217818   5.899   2.406   2.546 -0.0044  0.7259  0.5972
  160SAPE   H2X17819   5.888   2.297   2.533  1.2199  0.3409  2.3579
  160SAPE   H2Y17820   5.795   2.432   2.575 -0.2835  0.6040 -0.2603
  160SAPE   C2317821   5.358   2.386   2.190  0.6287 -0.8806  0.7261
  160SAPE   H3R17822   5.330   2.278   2.198 -1.2633 -0.5139 -0.2927
  160SAPE   H3S17823   5.260   2.431   2.163  2.1568  1.8558 -0.7377
  160SAPE   C2417824   5.408   2.437   2.328  0.2140  0.4935  0.0989
  160SAPE   H4R17825   5.516   2.411   2.329  0.0048 -0.7851 -2.2271
  160SAPE   H4S17826   5.366   2.368   2.404  0.9917 -0.8912 -0.6828
  160SAPE   C2517827   5.369   2.583   2.358 -0.8950  0.5689 -0.1658
  160SAPE   H5R17828   5.326   2.634   2.271 -2.0512 -1.6054 -0.9447
  160SAPE   C2617829   5.375   2.646   2.480  0.4899  0.4348 -0.0755
  160SAPE   H6R17830   5.326   2.744   2.491 -1.4564 -0.4838 -0.3536
  160SAPE   C2717831   5.440   2.588   2.605  0.4729 -0.6128  0.1674
  160SAPE   H7R17832   5.453   2.670   2.680  2.9594 -1.0589  0.3122
  160SAPE   H7S17833   5.536   2.542   2.573 -0.2093 -1.1530 -1.1721
  160SAPE   C2817834   5.358   2.481   2.670 -0.0382 -0.9036  0.1280
  160SAPE   H8R17835   5.275   2.434   2.616 -0.0529 -0.2017 -0.4763
  160SAPE   C2917836   5.392   2.435   2.789 -0.0282 -0.6548 -0.0771
  160SAPE   H9R17837   5.330   2.354   2.830 -2.7228  0.9854 -0.7046
  160SAPE  C21017838   5.500   2.487   2.880 -0.1832 -0.2039 -0.3255
  160SAPE  H10R17839   5.586   2.533   2.826  0.3763 -1.3333 -0.4276
  160SAPE  H10S17840   5.546   2.403   2.936 -3.0488 -0.9898  1.0527
  160SAPE  C21117841   5.430   2.595   2.965 -0.1347  0.8015  0.1059
  160SAPE  H11R17842   5.362   2.657   2.905 -0.2654 -0.5115 -1.1675
  160SAPE  C21217843   5.442   2.616   3.096 -0.7030  0.1048  0.2801
  160SAPE  H12R17844   5.387   2.701   3.140  0.0291  1.2214 -0.9092
  160SAPE  C21317845   5.544   2.544   3.185  0.2048 -0.5538 -0.1440
  160SAPE  H13R17846   5.636   2.560   3.125 -0.0510  2.1004  0.0560
  160SAPE  H13S17847   5.521   2.437   3.199 -3.7093  0.0813 -0.4917
  160SAPE  C21417848   5.579   2.607   3.321 -0.6325 -0.0882  0.3114
  160SAPE  H14R17849   5.673   2.665   3.320 -0.3740 -0.4662 -1.4535
  160SAPE  C21517850   5.506   2.590   3.431 -0.0378 -0.0592 -0.2026
  160SAPE  H15R17851   5.543   2.626   3.529 -1.2745  3.6013 -0.9296
  160SAPE  C21617852   5.379   2.517   3.440  0.1260  0.2087  0.1806
  160SAPE  H16R17853   5.314   2.544   3.354 -1.9083  0.5526  1.7299
  160SAPE  H16S17854   5.327   2.558   3.530 -0.1624  0.8242 -0.2592
  160SAPE  C21717855   5.396   2.363   3.452  0.6250 -0.2406  0.1110
  160SAPE  H17R17856   5.480   2.340   3.521  0.1688  1.1593  1.1844
  160SAPE  H17S17857   5.410   2.325   3.349 -3.4403 -0.4436 -0.5430
  160SAPE  C21817858   5.282   2.288   3.517 -0.1223  0.6375  0.1330
  160SAPE  H18R17859   5.188   2.325   3.470 -0.7242  0.6773  1.3441
  160SAPE  H18S17860   5.277   2.300   3.627 -4.6353 -0.4067  0.2630
  160SAPE  C21917861   5.283   2.131   3.483 -0.7097  0.1732  0.0873
  160SAPE  H19R17862   5.380   2.084   3.512 -1.3988 -0.0966  2.1171
  160SAPE  H19S17863   5.283   2.113   3.374  0.6210  1.3686 -0.1426
  160SAPE  C22017864   5.171   2.049   3.557 -0.2372  0.4464 -0.0182
  160SAPE  H20R17865   5.160   2.089   3.660 -0.1949  0.4785 -0.0260
  160SAPE  H20S17866   5.178   1.938   3.557  0.2832  0.4638  1.3381
  160SAPE  H20T17867   5.075   2.071   3.505 -1.0591  0.3419  1.4004
  160SAPE   C3317868   5.998   2.425   2.654 -1.2129  0.6132 -0.5883
  160SAPE   H3X17869   6.019   2.534   2.658  0.6059  0.2814 -0.2963
  160SAPE   H3Y17870   6.091   2.369   2.629 -0.8294  1.5425 -1.2754
  160SAPE   C3417871   5.941   2.378   2.791  0.0187  0.4154  0.4561
  160SAPE   H4X17872   5.911   2.272   2.787 -2.1075  0.9914 -0.0058
  160SAPE   H4Y17873   5.846   2.434   2.806  0.0041  0.0136  2.0555
  160SAPE   C3517874   6.026   2.408   2.911  0.0528 -0.0920  0.4460
  160SAPE   H5X17875   6.067   2.511   2.900  0.6882 -0.2849  0.9551
  160SAPE   H5Y17876   6.123   2.353   2.906 -0.2717 -0.7496  1.2223
  160SAPE   C3617877   5.940   2.386   3.035  0.0416  0.2912 -0.0105
  160SAPE   H6X17878   5.897   2.283   3.033  0.7877 -0.0636  1.0176
  160SAPE   H6Y17879   5.853   2.454   3.029 -0.6947 -0.4874  1.3122
  160SAPE   C3717880   5.998   2.428   3.175  0.3494  0.7749  0.1801
  160SAPE   H7X17881   6.030   2.534   3.169 -2.4720  1.7778  1.2663
  160SAPE   H7Y17882   6.085   2.363   3.200 -0.6909 -0.9437 -0.5453
  160SAPE   C3817883   5.895   2.435   3.285 -0.3680  0.4526  0.1981
  160SAPE   H8X17884   5.806   2.493   3.252 -1.6884 -1.4899  0.1741
  160SAPE   H8Y17885   5.937   2.492   3.371  1.6626 -0.8648  0.1455
  160SAPE   C3917886   5.850   2.298   3.343 -0.0606 -0.5619  0.6221
  160SAPE   H9X17887   5.929   2.220   3.337 -0.6556 -1.0959 -0.6824
  160SAPE   H9Y17888   5.765   2.257   3.285  1.3604 -2.9341  0.0812
  160SAPE  C31017889   5.788   2.314   3.486  0.0361  0.2543  0.5254
  160SAPE  H10X17890   5.704   2.386   3.472  2.3993  2.6593 -3.2925
  160SAPE  H10Y17891   5.859   2.362   3.556 -0.1878  0.8005  0.3854
  160SAPE  C31117892   5.744   2.184   3.546 -0.3276  0.9557 -0.9149
  160SAPE  H11X17893   5.821   2.103   3.549 -4.7886 -3.7899 -1.0107
  160SAPE  H11Y17894   5.661   2.140   3.486  0.4808 -1.8849 -0.1166
  160SAPE  C31217895   5.698   2.190   3.693 -0.0480  0.0548 -0.0160
  160SAPE  H12X17896   5.612   2.258   3.710 -0.2013 -0.1598  0.0825
  160SAPE  H12Y17897   5.780   2.217   3.764  0.8375  1.2104 -1.4319
  160SAPE  C31317898   5.621   2.057   3.743 -0.2420  0.9561  0.6155
  160SAPE  H13X17899   5.695   1.975   3.745 -3.0984 -1.9651 -1.6576
  160SAPE  H13Y17900   5.550   2.020   3.665  0.9786  0.9998 -0.5555
  160SAPE  C31417901   5.561   2.078   3.883 -0.3329 -0.3178  0.3041
  160SAPE  H14X17902   5.473   2.144   3.868 -0.3422 -0.3303  0.3046
  160SAPE  H14Y17903   5.629   2.141   3.944 -2.1794  0.5571  1.5344
  160SAPE  C31517904   5.538   1.953   3.957  0.1845 -0.4207  0.4311
  160SAPE  H15X17905   5.514   1.984   4.061 -0.1507  0.0950  0.2023
  160SAPE  H15Y17906   5.634   1.899   3.952  0.1286 -0.6527  1.5850
  160SAPE  C31617907   5.426   1.868   3.905  0.3467  0.1766  0.0128
  160SAPE  H16X17908   5.458   1.768   3.941  2.1635  0.6118 -0.2929
  160SAPE  H16Y17909   5.426   1.854   3.794  0.2201  1.5161 -0.1756
  160SAPE  C31717910   5.295   1.912   3.969 -0.3334  0.1847  0.5321
  160SAPE  H17X17911   5.277   2.008   3.917  2.3764 -0.1303 -1.2088
  160SAPE  H17Y17912   5.305   1.926   4.079 -0.4676 -0.5706  0.6449
  160SAPE  C31817913   5.181   1.816   3.951  0.5004  0.1020  0.4358
  160SAPE  H18X17914   5.192   1.715   3.995 -2.2657 -0.7975 -0.7220
  160SAPE  H18Y17915   5.178   1.786   3.844 -0.1115 -4.2914  1.4718
  160SAPE  H18Z17916   5.080   1.852   3.981  0.4867  1.9454 -1.5808
  161SAPE     N17917   3.300   5.859   1.626  0.0187 -0.0054 -0.4264
  161SAPE   HN117918   3.298   5.798   1.541  0.1557  0.6153 -0.8803
  161SAPE   HN217919   3.313   5.795   1.707  0.4422 -0.8469 -1.1349
  161SAPE   HN317920   3.210   5.911   1.625  0.8915  1.5982 -2.5149
  161SAPE   C1217921   3.419   5.949   1.611  0.0341  0.1263 -0.1730
  161SAPE  H12A17922   3.394   6.006   1.520 -0.8260  1.1818  0.6993
  161SAPE  H12B17923   3.514   5.892   1.600  0.0653  0.1846 -0.2026
  161SAPE   C1117924   3.442   6.044   1.726  0.0175  0.1063 -0.0696
  161SAPE  H11A17925   3.352   6.104   1.750  0.8005  1.0585  0.5382
  161SAPE  H11B17926   3.517   6.122   1.703  0.5142 -0.1090  0.7848
  161SAPE     P17927   3.614   5.968   1.915 -0.4867  0.3095 -0.0282
  161SAPE   O1317928   3.651   5.826   1.948  0.3933  0.3184  0.0018
  161SAPE   O1417929   3.708   6.056   1.838 -0.6808  0.0842 -0.8013
  161SAPE   O1217930   3.478   5.960   1.836  0.1301 -0.3570  0.3945
  161SAPE   O1117931   3.567   6.045   2.047 -0.1342 -0.1275 -0.0741
  161SAPE    C117932   3.474   5.978   2.132  0.1719 -0.8334  0.5124
  161SAPE    HA17933   3.464   5.870   2.106  1.7318 -0.8066 -0.3450
  161SAPE    HB17934   3.503   5.983   2.239 -0.6231  1.3900  0.6778
  161SAPE    C217935   3.332   6.042   2.122  0.5560  0.8604 -0.0881
  161SAPE    HS17936   3.305   6.032   2.015 -2.3357 -2.4954  0.7744
  161SAPE   O2117937   3.342   6.183   2.155 -0.3821 -0.3988 -0.0283
  161SAPE   C2117938   3.235   6.254   2.149  0.7562 -0.3622  0.3762
  161SAPE   O2217939   3.128   6.216   2.109 -0.1494  0.4297  0.2561
  161SAPE   C2217940   3.261   6.397   2.201  0.1153  0.0692  0.1497
  161SAPE   H2R17941   3.324   6.453   2.129 -1.5146  2.1235  0.2254
  161SAPE   H2S17942   3.166   6.455   2.211  0.9075  1.2081  1.4384
  161SAPE    C317943   3.228   5.954   2.211 -0.2488 -1.0094 -0.6640
  161SAPE    HX17944   3.231   5.850   2.173  1.6387 -1.3727  0.3075
  161SAPE    HY17945   3.124   5.991   2.203  0.6445  1.7955 -0.6802
  161SAPE   O3117946   3.274   5.945   2.353  0.2830  0.1764  0.1103
  161SAPE   C3117947   3.209   6.013   2.451  0.0654  0.1126  0.8110
  161SAPE   O3217948   3.110   6.079   2.432 -0.1196  0.0536  0.4774
  161SAPE   C3217949   3.283   5.998   2.587  0.2391  0.0110 -0.4289
  161SAPE   H2X17950   3.390   5.986   2.561  1.0573  2.9068  1.1410
  161SAPE   H2Y17951   3.254   5.897   2.622  0.3118 -0.7595 -2.4224
  161SAPE   C2317952   3.333   6.394   2.335 -0.0939  0.0314  0.3283
  161SAPE   H3R17953   3.403   6.309   2.351 -1.5936 -1.0419  1.6087
  161SAPE   H3S17954   3.258   6.367   2.413 -0.7892 -1.3551 -0.7817
  161SAPE   C2417955   3.404   6.523   2.363 -0.3374 -0.2636  0.5211
  161SAPE   H4R17956   3.480   6.537   2.284 -1.3853 -2.1211 -0.8718
  161SAPE   H4S17957   3.465   6.511   2.455 -0.3168 -1.4675  0.3623
  161SAPE   C2517958   3.312   6.644   2.380 -0.2283 -0.3025  0.0401
  161SAPE   H5R17959   3.245   6.670   2.296 -0.4501 -0.6507  0.1108
  161SAPE   C2617960   3.283   6.692   2.497 -0.5177  0.1011 -0.3108
  161SAPE   H6R17961   3.203   6.768   2.504 -1.4270 -0.7147 -1.4738
  161SAPE   C2717962   3.332   6.650   2.635 -1.0873  0.6265 -0.0926
  161SAPE   H7R17963   3.351   6.743   2.694 -1.7955  0.2595  0.7225
  161SAPE   H7S17964   3.435   6.608   2.633 -0.7609  1.3675 -2.0272
  161SAPE   C2817965   3.248   6.562   2.719 -0.0229  0.1691 -0.1697
  161SAPE   H8R17966   3.231   6.465   2.670  2.6287 -1.5986  2.0771
  161SAPE   C2917967   3.207   6.578   2.847  0.5509 -0.0313 -0.4072
  161SAPE   H9R17968   3.159   6.499   2.906  0.4832  0.1450 -0.2284
  161SAPE  C21017969   3.222   6.702   2.929 -0.1456 -0.1215  0.3713
  161SAPE  H10R17970   3.181   6.785   2.866 -0.9694 -1.6310 -1.1687
  161SAPE  H10S17971   3.330   6.729   2.933 -0.5549  1.6190  0.3439
  161SAPE  C21117972   3.181   6.719   3.071  0.1388 -0.8209 -0.0221
  161SAPE  H11R17973   3.264   6.728   3.143  0.6425  1.2751 -0.7798
  161SAPE  C21217974   3.055   6.742   3.120 -0.1942 -0.3630 -0.7548
  161SAPE  H12R17975   3.036   6.750   3.228  1.3169  0.8821 -0.5384
  161SAPE  C21317976   2.928   6.739   3.036  0.0918  0.4529  0.2487
  161SAPE  H13R17977   2.859   6.664   3.080  1.3092  0.9246  3.2064
  161SAPE  H13S17978   2.948   6.704   2.932  0.4621  1.1945  0.0616
  161SAPE  C21417979   2.860   6.874   3.033 -0.0251  1.1161 -0.1835
  161SAPE  H14R17980   2.906   6.926   2.948 -0.1852  0.0644 -0.9446
  161SAPE  C21517981   2.776   6.926   3.121  0.0123 -0.2996  0.2598
  161SAPE  H15R17982   2.719   7.012   3.082  1.1309  0.2285 -0.2515
  161SAPE  C21617983   2.723   6.867   3.249  0.4473 -0.1974 -0.0561
  161SAPE  H16R17984   2.786   6.779   3.273  1.5387  0.0125 -1.9802
  161SAPE  H16S17985   2.616   6.839   3.240  0.3330  0.1719  0.1503
  161SAPE  C21717986   2.746   6.956   3.370 -0.2845  0.0890 -0.0553
  161SAPE  H17R17987   2.714   7.059   3.342  0.8734  0.6261  0.5585
  161SAPE  H17S17988   2.851   6.956   3.405 -1.4701  0.7451  4.0181
  161SAPE  C21817989   2.664   6.918   3.501  0.0687  0.6779  0.2993
  161SAPE  H18R17990   2.557   6.911   3.471  0.0787 -2.1604  0.6948
  161SAPE  H18S17991   2.656   6.991   3.584 -2.8808 -0.2296  0.9145
  161SAPE  C21917992   2.714   6.792   3.564 -0.2310  0.3618 -0.0907
  161SAPE  H19R17993   2.815   6.797   3.611 -0.5049 -1.0342  0.7198
  161SAPE  H19S17994   2.712   6.703   3.497 -0.0288  0.4079 -0.1586
  161SAPE  C22017995   2.627   6.760   3.691  0.9972 -0.2898  0.2474
  161SAPE  H20R17996   2.652   6.658   3.729  1.8882  0.2412  1.1280
  161SAPE  H20S17997   2.523   6.752   3.652  0.6484 -0.9266  1.2700
  161SAPE  H20T17998   2.632   6.842   3.766  0.3656 -0.7774  0.8462
  161SAPE   C3317999   3.245   6.110   2.694 -0.5640  0.3101 -0.5546
  161SAPE   H3X18000   3.135   6.099   2.704 -0.4669  0.3623  0.7725
  161SAPE   H3Y18001   3.277   6.205   2.646  1.6285  0.3501  0.8366
  161SAPE   C3418002   3.331   6.101   2.819  0.0975 -0.2684 -0.4340
  161SAPE   H4X18003   3.440   6.111   2.799  0.9056  0.0274  3.3605
  161SAPE   H4Y18004   3.312   6.003   2.868 -1.1033  0.6191  0.9386
  161SAPE   C3518005   3.279   6.218   2.917 -0.2282 -0.0831 -0.3133
  161SAPE   H5X18006   3.169   6.222   2.922 -0.3037  2.9472 -1.8944
  161SAPE   H5Y18007   3.305   6.315   2.868  2.0501 -1.7925 -2.8127
  161SAPE   C3618008   3.334   6.209   3.056 -0.1296 -1.0542 -0.7091
  161SAPE   H6X18009   3.326   6.317   3.081  0.9491 -0.8151 -1.3538
  161SAPE   H6Y18010   3.443   6.186   3.056 -0.1471 -1.1319 -1.1327
  161SAPE   C3718011   3.258   6.112   3.140  0.5350  0.0407 -0.3688
  161SAPE   H7X18012   3.256   6.017   3.082  0.3294 -0.2167  0.0496
  161SAPE   H7Y18013   3.154   6.149   3.158 -0.7030 -1.7933 -3.0735
  161SAPE   C3818014   3.323   6.092   3.280 -0.2763 -0.0492 -0.6751
  161SAPE   H8X18015   3.251   6.052   3.355 -0.0130 -1.5551 -1.1901
  161SAPE   H8Y18016   3.368   6.184   3.323  0.5098 -0.7806  0.1137
  161SAPE   C3918017   3.447   5.991   3.277 -0.4443  0.1872  0.5641
  161SAPE   H9X18018   3.534   6.038   3.226 -1.6638  1.4875 -0.4208
  161SAPE   H9Y18019   3.413   5.904   3.217 -1.3794  0.2804  0.9543
  161SAPE  C31018020   3.482   5.941   3.419  0.3363 -0.3789 -0.0976
  161SAPE  H10X18021   3.555   5.857   3.425  0.4807 -0.3386 -1.1276
  161SAPE  H10Y18022   3.395   5.892   3.468  0.3519 -0.6231 -0.3109
  161SAPE  C31118023   3.535   6.045   3.524  0.2808 -1.2143 -0.2055
  161SAPE  H11X18024   3.453   6.102   3.574 -0.1282 -1.9835  0.0187
  161SAPE  H11Y18025   3.584   6.123   3.462 -1.4142 -0.8709 -1.1677
  161SAPE  C31218026   3.631   5.985   3.629 -0.3519 -1.0708  0.7750
  161SAPE  H12X18027   3.720   5.948   3.573 -1.2095 -1.1540 -0.5681
  161SAPE  H12Y18028   3.583   5.897   3.676  1.5411 -1.7090  1.6178
  161SAPE  C31318029   3.678   6.085   3.741  0.4025 -0.2197  0.1391
  161SAPE  H13X18030   3.596   6.090   3.816 -1.1741  2.2065 -1.6050
  161SAPE  H13Y18031   3.689   6.187   3.700 -3.5304  0.4675  0.4665
  161SAPE  C31418032   3.798   6.043   3.820 -0.5700 -0.1888 -0.4411
  161SAPE  H14X18033   3.885   6.021   3.754 -1.2889  0.1028 -1.5158
  161SAPE  H14Y18034   3.786   5.950   3.880  2.5157  0.6940  1.8064
  161SAPE  C31518035   3.826   6.154   3.925  0.6240  0.1623 -0.3113
  161SAPE  H15X18036   3.740   6.222   3.939  0.4608 -0.1464  0.1901
  161SAPE  H15Y18037   3.907   6.219   3.885  0.5943  0.0528 -0.5497
  161SAPE  C31618038   3.862   6.090   4.062 -1.0120  0.5071  0.3329
  161SAPE  H16X18039   3.949   6.024   4.042 -1.6706 -1.0436  2.2658
  161SAPE  H16Y18040   3.781   6.025   4.101 -2.0422  1.9456  0.7077
  161SAPE  C31718041   3.901   6.197   4.174  0.0240  0.6141 -0.2987
  161SAPE  H17X18042   3.858   6.297   4.148  0.0768  1.3581  2.1878
  161SAPE  H17Y18043   4.011   6.199   4.157 -0.0160 -1.0176 -0.9310
  161SAPE  C31818044   3.876   6.167   4.318 -0.2316 -0.5302 -0.0362
  161SAPE  H18X18045   3.937   6.233   4.383 -0.9360 -0.9892  1.1205
  161SAPE  H18Y18046   3.897   6.065   4.358  1.0363 -0.1962  0.1757
  161SAPE  H18Z18047   3.767   6.184   4.331  0.0751 -0.3983  2.8472
  162SAPE     N18048   2.874   1.305   1.753  0.5095  0.2191 -0.0041
  162SAPE   HN118049   2.778   1.287   1.718  0.3080  0.3903  0.4568
  162SAPE   HN218050   2.902   1.211   1.789  1.9417  1.0429  1.1350
  162SAPE   HN318051   2.877   1.366   1.837  2.1738  0.8377 -0.4744
  162SAPE   C1218052   2.947   1.360   1.639 -0.1622 -0.4458 -0.5617
  162SAPE  H12A18053   2.882   1.411   1.565 -1.1870 -0.5054  0.2698
  162SAPE  H12B18054   2.992   1.270   1.593 -2.7137 -1.3539 -1.4719
  162SAPE   C1118055   3.068   1.456   1.689  0.3326  0.7115  0.2927
  162SAPE  H11A18056   3.025   1.542   1.745  0.0639  1.4277 -0.9829
  162SAPE  H11B18057   3.111   1.489   1.593 -0.6862  2.0445  0.2602
  162SAPE     P18058   3.272   1.440   1.858 -0.7859  0.0497  0.0408
  162SAPE   O1318059   3.393   1.356   1.848  0.4654 -0.1146 -0.3217
  162SAPE   O1418060   3.293   1.585   1.829  0.1508 -0.0051  0.6559
  162SAPE   O1218061   3.167   1.377   1.764 -0.0818  0.1155  0.2392
  162SAPE   O1118062   3.209   1.415   1.994 -0.5318  0.0726 -0.2963
  162SAPE    C118063   3.195   1.287   2.053 -0.6034  0.5300 -0.0871
  162SAPE    HA18064   3.262   1.208   2.010 -0.2160  0.8180 -0.0176
  162SAPE    HB18065   3.221   1.299   2.160  1.7836  0.7586 -0.6198
  162SAPE    C218066   3.052   1.238   2.038 -0.5492  0.7014  0.1764
  162SAPE    HS18067   3.018   1.259   1.935 -2.1926 -2.0435  0.0641
  162SAPE   O2118068   2.983   1.318   2.141  0.4716 -0.2591  0.3947
  162SAPE   C2118069   2.859   1.342   2.118 -0.4796  0.6352  0.0361
  162SAPE   O2218070   2.795   1.299   2.021 -0.2879  0.2549 -0.1729
  162SAPE   C2218071   2.820   1.427   2.234  0.7471  0.7932 -0.2678
  162SAPE   H2R18072   2.900   1.465   2.301  0.9277 -1.8853  1.1761
  162SAPE   H2S18073   2.755   1.507   2.193  0.3016  0.6039  0.0634
  162SAPE    C318074   3.037   1.082   2.058 -0.3345 -0.3207  0.1689
  162SAPE    HX18075   3.100   1.041   1.976  1.1383 -0.5516  1.3869
  162SAPE    HY18076   2.931   1.052   2.042 -0.4464  0.6295 -1.0095
  162SAPE   O3118077   3.105   1.036   2.177  0.5244  0.3036 -0.4370
  162SAPE   C3118078   3.023   1.001   2.281  0.5819  0.1783 -0.0131
  162SAPE   O3218079   2.901   0.986   2.269  0.5564 -0.4059  0.1110
  162SAPE   C3218080   3.102   0.973   2.412  0.0495  0.4374  0.4327
  162SAPE   H2X18081   3.209   0.986   2.385 -0.3879 -1.5450 -2.8316
  162SAPE   H2Y18082   3.075   0.869   2.440 -0.8075  0.9415  1.5523
  162SAPE   C2318083   2.722   1.342   2.332 -0.5071  0.2903  0.3170
  162SAPE   H3R18084   2.776   1.254   2.375  0.0291 -0.1352 -1.1715
  162SAPE   H3S18085   2.638   1.308   2.268 -0.1281 -1.5566  0.7331
  162SAPE   C2418086   2.660   1.439   2.439 -0.5207  0.5624  0.1090
  162SAPE   H4R18087   2.574   1.399   2.497 -0.5596  0.3497 -0.0908
  162SAPE   H4S18088   2.629   1.530   2.384  0.2291 -0.0062 -1.3160
  162SAPE   C2518089   2.760   1.481   2.543  0.5079  0.1800  0.0481
  162SAPE   H5R18090   2.861   1.509   2.510  0.6219 -0.2709  0.0002
  162SAPE   C2618091   2.745   1.493   2.681  0.6604 -0.6661  0.3389
  162SAPE   H6R18092   2.833   1.523   2.739 -0.6014  0.3741  1.7775
  162SAPE   C2718093   2.619   1.481   2.760  0.2870 -0.5165 -0.9662
  162SAPE   H7R18094   2.649   1.531   2.854 -0.6693 -1.8083  0.0584
  162SAPE   H7S18095   2.595   1.376   2.785 -0.3754 -0.3417 -0.8482
  162SAPE   C2818096   2.498   1.551   2.714  0.3625  0.4398 -0.0003
  162SAPE   H8R18097   2.513   1.638   2.649  0.4316  1.6975  1.6493
  162SAPE   C2918098   2.369   1.543   2.758 -0.4052 -0.1633  0.4834
  162SAPE   H9R18099   2.294   1.615   2.721  1.0532  0.5287 -1.3254
  162SAPE  C21018100   2.324   1.443   2.861  0.6889  0.7876 -0.9492
  162SAPE  H10R18101   2.356   1.483   2.960  0.5820 -0.1273 -0.5408
  162SAPE  H10S18102   2.380   1.348   2.852 -1.7695 -0.7341 -1.2208
  162SAPE  C21118103   2.178   1.407   2.851 -0.2031 -0.4979 -0.3945
  162SAPE  H11R18104   2.163   1.346   2.760 -0.2802 -1.5511  0.3073
  162SAPE  C21218105   2.087   1.433   2.947 -0.5383 -0.6825 -0.7725
  162SAPE  H12R18106   1.989   1.387   2.927 -0.2189 -1.1762 -1.2522
  162SAPE  C21318107   2.114   1.515   3.078  0.5483  0.1459 -0.0435
  162SAPE  H13R18108   2.222   1.517   3.104  0.3095 -0.8645  1.1646
  162SAPE  H13S18109   2.056   1.467   3.161  0.1358  0.6588 -0.0298
  162SAPE  C21418110   2.080   1.658   3.061 -0.0546 -0.2350  0.3624
  162SAPE  H14R18111   2.083   1.690   2.955 -2.4996 -2.5230 -0.5066
  162SAPE  C21518112   2.047   1.743   3.163  0.1151 -0.0819  0.1020
  162SAPE  H15R18113   2.015   1.844   3.134  1.3524  0.2239 -0.2776
  162SAPE  C21618114   2.047   1.717   3.310 -0.5314 -0.0661  0.6991
  162SAPE  H16R18115   2.123   1.785   3.353 -1.6495 -0.0872  2.8247
  162SAPE  H16S18116   2.076   1.611   3.326 -0.5600 -0.3668 -1.0522
  162SAPE  C21718117   1.919   1.747   3.374 -0.0905  0.0631 -0.1362
  162SAPE  H17R18118   1.886   1.853   3.365 -0.2508  0.0705  0.5305
  162SAPE  H17S18119   1.940   1.709   3.476  1.1624  0.2099 -0.3209
  162SAPE  C21818120   1.799   1.661   3.321 -0.1329  0.2334 -0.0000
  162SAPE  H18R18121   1.835   1.556   3.319 -0.5863  0.0597 -2.5034
  162SAPE  H18S18122   1.775   1.700   3.219  1.1213 -0.7257 -0.6979
  162SAPE  C21918123   1.690   1.666   3.426  0.0228  0.3256 -0.4408
  162SAPE  H19R18124   1.648   1.769   3.422 -1.7838 -0.3895 -0.8958
  162SAPE  H19S18125   1.732   1.652   3.528 -0.1503 -1.2913 -0.5615
  162SAPE  C22018126   1.568   1.575   3.412  0.5694  0.1444  0.5351
  162SAPE  H20R18127   1.608   1.471   3.420  1.3140  0.3960  0.1996
  162SAPE  H20S18128   1.505   1.601   3.324  2.0372  1.0578 -0.2794
  162SAPE  H20T18129   1.495   1.585   3.494  0.6403 -0.5051  0.6881
  162SAPE   C3318130   3.050   1.060   2.528  0.5385  0.4407 -0.4326
  162SAPE   H3X18131   3.042   1.167   2.497 -0.1333 -0.1047 -2.2929
  162SAPE   H3Y18132   3.132   1.052   2.602 -0.4856  1.9647  0.9327
  162SAPE   C3418133   2.916   1.022   2.588 -0.1772  0.9115 -0.4200
  162SAPE   H4X18134   2.932   0.926   2.642  1.5011  1.3476 -0.1012
  162SAPE   H4Y18135   2.833   0.988   2.522 -0.0866 -0.0623 -0.0579
  162SAPE   C3518136   2.857   1.106   2.696 -0.0631 -0.2877 -0.6575
  162SAPE   H5X18137   2.772   1.049   2.740 -1.2606  0.8079 -1.4844
  162SAPE   H5Y18138   2.825   1.206   2.661 -1.2837  0.4063  2.1331
  162SAPE   C3618139   2.964   1.128   2.811 -0.5754  0.4325 -0.0308
  162SAPE   H6X18140   3.048   1.185   2.764  0.3245 -1.1925 -0.4957
  162SAPE   H6Y18141   2.989   1.023   2.838  0.5968  0.3852 -1.2115
  162SAPE   C3718142   2.913   1.214   2.935  0.1357  0.2030 -0.0806
  162SAPE   H7X18143   2.891   1.316   2.896  0.9758  0.4720  0.1330
  162SAPE   H7Y18144   2.979   1.214   3.024  1.5141 -0.8614 -1.0764
  162SAPE   C3818145   2.780   1.167   2.992  0.2103  0.3398 -0.6881
  162SAPE   H8X18146   2.714   1.163   2.903 -0.7573  0.1334  0.0314
  162SAPE   H8Y18147   2.739   1.249   3.054 -0.0130  0.5664 -1.1363
  162SAPE   C3918148   2.769   1.030   3.064  0.0857  0.2175 -0.2542
  162SAPE   H9X18149   2.760   0.948   2.989 -0.7202 -0.3482  0.4384
  162SAPE   H9Y18150   2.679   1.024   3.128  0.4512  0.7042  0.3177
  162SAPE  C31018151   2.885   0.999   3.160 -0.6801  0.0352 -0.4077
  162SAPE  H10X18152   2.978   1.026   3.104  1.2344 -1.3949  1.8937
  162SAPE  H10Y18153   2.891   0.889   3.176 -1.3236  0.1092  0.3759
  162SAPE  C31118154   2.895   1.083   3.283  0.8576  0.0226 -0.4784
  162SAPE  H11X18155   2.887   1.191   3.259 -0.3271 -0.1913 -1.1070
  162SAPE  H11Y18156   2.995   1.056   3.323  0.7269  1.2634  0.7692
  162SAPE  C31218157   2.793   1.048   3.387 -0.4804  0.0597  0.1846
  162SAPE  H12X18158   2.791   0.937   3.391  0.9688 -0.1522 -2.3639
  162SAPE  H12Y18159   2.694   1.083   3.349 -1.3777  0.3184  2.5754
  162SAPE  C31318160   2.819   1.109   3.529 -0.5774  0.1715 -0.1901
  162SAPE  H13X18161   2.915   1.076   3.574 -0.5194  1.5193  0.7194
  162SAPE  H13Y18162   2.730   1.066   3.580 -0.1346 -1.5396 -0.7804
  162SAPE  C31418163   2.802   1.265   3.532 -0.2402  0.2856 -0.7074
  162SAPE  H14X18164   2.720   1.305   3.469 -1.5992  1.0404  1.4364
  162SAPE  H14Y18165   2.896   1.315   3.502 -0.7299  0.1066 -2.6321
  162SAPE  C31518166   2.771   1.319   3.669  0.5171 -0.4422 -0.3898
  162SAPE  H15X18167   2.844   1.279   3.742 -0.9295 -2.9245 -0.1812
  162SAPE  H15Y18168   2.677   1.279   3.714  0.5680  0.8316  0.9142
  162SAPE  C31618169   2.753   1.479   3.681  0.7189  0.5552  0.1183
  162SAPE  H16X18170   2.730   1.499   3.788  2.5392  2.2032  0.2489
  162SAPE  H16Y18171   2.675   1.505   3.606  0.4574  2.3623  0.9600
  162SAPE  C31718172   2.884   1.554   3.643  0.0520 -0.1630 -0.3956
  162SAPE  H17X18173   2.872   1.665   3.647  1.1882  0.0290 -1.5526
  162SAPE  H17Y18174   2.903   1.540   3.534 -0.3026  0.1142 -0.4940
  162SAPE  C31818175   3.008   1.520   3.729 -0.3286  0.5300 -0.3645
  162SAPE  H18X18176   3.098   1.578   3.698  0.3105  2.1662  3.9423
  162SAPE  H18Y18177   3.026   1.410   3.728 -1.9138  0.2302  0.7229
  162SAPE  H18Z18178   2.997   1.544   3.837 -1.5046  0.2784 -0.4209
  163SAPE     N18179   4.612   6.095   1.906  0.4383 -0.2439 -0.1386
  163SAPE   HN118180   4.638   6.013   1.964 -2.4835 -2.0226 -1.1763
  163SAPE   HN218181   4.509   6.106   1.911  0.5333  0.7651 -0.1515
  163SAPE   HN318182   4.652   6.097   1.810  0.8373 -0.6946  0.0141
  163SAPE   C1218183   4.654   6.215   1.987 -0.1592 -0.4706 -0.0845
  163SAPE  H12A18184   4.620   6.219   2.093  1.8760 -0.7281  0.6216
  163SAPE  H12B18185   4.599   6.298   1.939  0.5596 -0.6700 -1.2881
  163SAPE   C1118186   4.806   6.237   1.974  0.6187 -0.5820  0.2042
  163SAPE  H11A18187   4.836   6.270   1.872 -0.0784 -1.1336 -0.1946
  163SAPE  H11B18188   4.861   6.142   1.991  0.4927 -0.5188  0.9850
  163SAPE     P18189   4.910   6.474   2.036  0.1643  0.4162  0.0146
  163SAPE   O1318190   4.986   6.530   2.145 -0.5765  0.4278  0.2731
  163SAPE   O1418191   4.983   6.463   1.909 -0.0707  0.3541 -0.1561
  163SAPE   O1218192   4.850   6.331   2.071 -0.7949  0.2241 -0.0096
  163SAPE   O1118193   4.777   6.556   2.009  0.7378  0.8181  0.3147
  163SAPE    C118194   4.674   6.559   2.112 -0.1309 -0.1912  0.2344
  163SAPE    HA18195   4.651   6.454   2.142 -1.4025 -0.1964 -0.6690
  163SAPE    HB18196   4.715   6.630   2.187  0.9271  0.7659 -1.2224
  163SAPE    C218197   4.548   6.629   2.061  0.4182 -0.4568  0.1293
  163SAPE    HS18198   4.521   6.577   1.967 -0.7226  2.9801 -1.6035
  163SAPE   O2118199   4.569   6.771   2.044  0.2230 -0.1386  0.3311
  163SAPE   C2118200   4.512   6.822   1.930  0.8863  0.2664 -0.1595
  163SAPE   O2218201   4.439   6.757   1.855 -0.3698 -0.4795  0.1887
  163SAPE   C2218202   4.544   6.966   1.916 -0.0573 -0.2327  0.3007
  163SAPE   H2R18203   4.634   6.985   1.978 -0.9365 -0.2838  1.6127
  163SAPE   H2S18204   4.572   6.983   1.809  1.0521 -0.2189  0.5812
  163SAPE    C318205   4.425   6.613   2.152 -0.6265  0.3688  0.0936
  163SAPE    HX18206   4.391   6.508   2.142  0.0888 -0.0128  1.3653
  163SAPE    HY18207   4.348   6.679   2.107  0.1314  0.4621 -1.1118
  163SAPE   O3118208   4.449   6.664   2.290 -0.5353 -0.4941  0.4624
  163SAPE   C3118209   4.469   6.568   2.376 -0.3680  0.1334  0.8343
  163SAPE   O3218210   4.473   6.450   2.342  0.1396  0.2012 -0.0132
  163SAPE   C3218211   4.457   6.612   2.514 -0.5294 -0.5371 -0.4123
  163SAPE   H2X18212   4.542   6.681   2.534  0.7932 -2.0066 -0.7156
  163SAPE   H2Y18213   4.456   6.515   2.569 -0.4457 -0.9164 -1.0585
  163SAPE   C2318214   4.431   7.058   1.963  0.4719  0.5345  0.4706
  163SAPE   H3R18215   4.325   7.033   1.941  0.9030  0.3568 -1.5314
  163SAPE   H3S18216   4.462   7.153   1.915  1.8768  1.8585  3.6527
  163SAPE   C2418217   4.435   7.078   2.119 -0.4136 -0.4635  0.1416
  163SAPE   H4R18218   4.535   7.115   2.149 -0.5689  0.3711 -0.3326
  163SAPE   H4S18219   4.435   6.976   2.163 -0.8934 -0.7356 -0.4575
  163SAPE   C2518220   4.333   7.170   2.175  0.0886 -0.0853  0.2640
  163SAPE   H5R18221   4.348   7.275   2.144  1.0061 -0.3998 -0.3648
  163SAPE   C2618222   4.231   7.136   2.253 -0.4051 -0.0699 -0.4360
  163SAPE   H6R18223   4.163   7.220   2.274  0.5153  1.1319 -2.0388
  163SAPE   C2718224   4.198   7.003   2.309 -0.7625 -0.1026 -0.6902
  163SAPE   H7R18225   4.274   6.923   2.301  0.3065  1.0621 -4.2698
  163SAPE   H7S18226   4.108   6.955   2.265 -1.1207  0.2759 -0.3766
  163SAPE   C2818227   4.172   7.035   2.448  0.5243 -0.6331  0.2752
  163SAPE   H8R18228   4.268   7.047   2.502  1.1481  1.0571 -1.1302
  163SAPE   C2918229   4.059   7.064   2.515  0.3324  0.0810  0.1631
  163SAPE   H9R18230   4.067   7.088   2.622 -0.1761  0.3466  0.1418
  163SAPE  C21018231   3.923   7.071   2.467  0.0848  0.5980 -0.6181
  163SAPE  H10R18232   3.921   7.107   2.361 -1.2896  0.4378 -0.6735
  163SAPE  H10S18233   3.881   7.158   2.522  0.3639 -0.9510  2.2225
  163SAPE  C21118234   3.856   6.939   2.478  0.0978 -0.2811  0.4624
  163SAPE  H11R18235   3.901   6.851   2.429  1.7058  1.9534 -2.4040
  163SAPE  C21218236   3.757   6.917   2.566 -0.0135  0.5593  0.6093
  163SAPE  H12R18237   3.716   6.815   2.575  0.2876  0.5661  2.2877
  163SAPE  C21318238   3.701   7.011   2.668 -0.0086  0.8932  0.2783
  163SAPE  H13R18239   3.685   7.110   2.621 -2.6117 -0.5980 -2.3064
  163SAPE  H13S18240   3.771   7.023   2.753 -0.5993  1.6862  0.6603
  163SAPE  C21418241   3.569   6.969   2.726  0.0993 -0.3459 -1.1680
  163SAPE  H14R18242   3.530   6.873   2.691 -2.1458  0.2724 -0.5665
  163SAPE  C21518243   3.490   7.040   2.810 -0.6150  0.2732 -0.2134
  163SAPE  H15R18244   3.393   6.994   2.836  0.2510 -2.8859 -2.0092
  163SAPE  C21618245   3.517   7.179   2.855 -0.8778  0.7899  0.0186
  163SAPE  H16R18246   3.431   7.248   2.848 -1.9315 -0.4872 -0.1354
  163SAPE  H16S18247   3.596   7.228   2.794 -1.1056  1.7243  0.4725
  163SAPE  C21718248   3.559   7.172   3.005  0.1271  0.0243 -0.2075
  163SAPE  H17R18249   3.589   7.275   3.034 -0.7903  0.9172 -2.2030
  163SAPE  H17S18250   3.654   7.115   3.007 -0.0090 -0.2628 -1.1407
  163SAPE  C21818251   3.449   7.135   3.103 -0.4446  0.1029 -0.1671
  163SAPE  H18R18252   3.356   7.125   3.043 -1.5154  1.2229  1.2087
  163SAPE  H18S18253   3.420   7.227   3.159 -0.6421  0.2195 -0.4594
  163SAPE  C21918254   3.474   7.004   3.191 -0.8035  0.2669 -0.2178
  163SAPE  H19R18255   3.582   7.015   3.215 -0.2754 -1.2432 -1.7171
  163SAPE  H19S18256   3.448   6.916   3.128  2.2169 -0.9789  0.0940
  163SAPE  C22018257   3.393   6.997   3.316  0.0026  0.0221  0.3010
  163SAPE  H20R18258   3.420   7.073   3.393 -0.0578  0.1174  0.2287
  163SAPE  H20S18259   3.388   6.896   3.362 -1.0332  0.9920  2.4619
  163SAPE  H20T18260   3.288   7.018   3.285 -0.4035  0.2898  1.7392
  163SAPE   C3318261   4.332   6.703   2.540  0.4108 -0.4727  0.0404
  163SAPE   H3X18262   4.258   6.650   2.476  0.1795 -2.3960  1.7873
  163SAPE   H3Y18263   4.353   6.809   2.513 -0.2178 -0.0256  1.1751
  163SAPE   C3418264   4.271   6.698   2.683  0.5252 -0.3271 -0.6634
  163SAPE   H4X18265   4.360   6.701   2.749  0.6755  0.1554 -0.8795
  163SAPE   H4Y18266   4.222   6.605   2.716 -0.3962  1.1198  2.3751
  163SAPE   C3518267   4.172   6.818   2.720  0.1011 -0.2600  0.0052
  163SAPE   H5X18268   4.106   6.796   2.634 -0.9683 -2.0447  1.2107
  163SAPE   H5Y18269   4.228   6.913   2.710 -0.0775  0.1431  2.2811
  163SAPE   C3618270   4.104   6.797   2.854 -0.6154 -0.3095  0.0038
  163SAPE   H6X18271   4.163   6.796   2.948 -1.2732  0.7660  0.4555
  163SAPE   H6Y18272   4.061   6.697   2.833  0.8436 -1.2018  1.1137
  163SAPE   C3718273   3.983   6.890   2.878 -0.4086 -0.1763  0.8944
  163SAPE   H7X18274   3.893   6.836   2.842  1.3968 -3.1104  0.4727
  163SAPE   H7Y18275   3.997   6.987   2.826  1.9701 -0.7576  0.3478
  163SAPE   C3818276   3.944   6.918   3.019 -0.3969 -0.6246 -0.4755
  163SAPE   H8X18277   3.854   6.983   3.017  0.8938  1.2191 -0.8067
  163SAPE   H8Y18278   4.030   6.976   3.058 -1.1550  0.9371 -1.0498
  163SAPE   C3918279   3.922   6.794   3.104 -0.0162  0.0682 -0.0427
  163SAPE   H9X18280   4.020   6.745   3.121 -0.2332 -0.0580  0.8467
  163SAPE   H9Y18281   3.860   6.722   3.047 -1.9135  1.7522 -0.2120
  163SAPE  C31018282   3.848   6.824   3.230  0.1584 -0.1055 -0.4453
  163SAPE  H10X18283   3.740   6.842   3.214  0.4141  1.9855 -0.0727
  163SAPE  H10Y18284   3.881   6.925   3.262  1.2724 -0.5281 -0.2054
  163SAPE  C31118285   3.870   6.726   3.347 -1.3146  0.3417 -0.1650
  163SAPE  H11X18286   3.980   6.713   3.355 -1.3099 -0.2174 -0.9192
  163SAPE  H11Y18287   3.818   6.631   3.325  0.5383 -0.7156 -0.2293
  163SAPE  C31218288   3.807   6.776   3.482 -0.1349  0.1168 -0.0725
  163SAPE  H12X18289   3.834   6.882   3.502  1.7982 -0.5620  1.2298
  163SAPE  H12Y18290   3.855   6.716   3.562 -3.0260 -1.1530  0.8418
  163SAPE  C31318291   3.657   6.757   3.493 -0.3091  0.1056  0.2709
  163SAPE  H13X18292   3.623   6.651   3.488 -0.8293 -0.0604  4.2137
  163SAPE  H13Y18293   3.610   6.805   3.405  0.7515  0.5191 -0.0935
  163SAPE  C31418294   3.594   6.832   3.612  0.3284  0.2996  0.0047
  163SAPE  H14X18295   3.550   6.920   3.561  0.9401 -2.0050 -5.1798
  163SAPE  H14Y18296   3.680   6.859   3.676  0.6472 -1.3207  0.3043
  163SAPE  C31518297   3.484   6.767   3.709  0.0171  0.3983  0.5046
  163SAPE  H15X18298   3.535   6.681   3.757  1.3077 -1.3205 -3.4572
  163SAPE  H15Y18299   3.406   6.712   3.653  0.9072  0.2791 -0.6849
  163SAPE  C31618300   3.407   6.859   3.810 -0.2877  0.4874 -0.3555
  163SAPE  H16X18301   3.485   6.919   3.860  2.4547 -2.8731 -0.1871
  163SAPE  H16Y18302   3.368   6.794   3.891  1.4942  1.4949  1.3785
  163SAPE  C31718303   3.297   6.956   3.761  0.7224 -0.1737 -0.1363
  163SAPE  H17X18304   3.215   6.907   3.705 -1.3712 -0.3406  2.8346
  163SAPE  H17Y18305   3.345   7.025   3.688  0.6797 -1.0321 -0.9987
  163SAPE  C31818306   3.237   7.043   3.871  0.2477 -0.2526 -1.1995
  163SAPE  H18X18307   3.309   7.121   3.904 -1.8802  1.2630  0.0387
  163SAPE  H18Y18308   3.197   6.979   3.952  1.1178  1.0521  0.3153
  163SAPE  H18Z18309   3.152   7.102   3.832 -1.2316 -0.8030  1.0147
  164SAPE     N18310   6.006   4.505   1.865 -0.3183  0.6278  0.0044
  164SAPE   HN118311   5.992   4.583   1.932 -0.4488 -0.8317  1.7381
  164SAPE   HN218312   5.931   4.506   1.792  0.6988 -0.3119 -1.0907
  164SAPE   HN318313   5.996   4.412   1.909  0.7977 -0.1549 -1.3270
  164SAPE   C1218314   6.140   4.513   1.810  0.4876  0.0601  0.3213
  164SAPE  H12A18315   6.147   4.590   1.731 -1.4188 -0.1378 -0.0783
  164SAPE  H12B18316   6.158   4.416   1.758 -1.4440  0.8574 -2.0020
  164SAPE   C1118317   6.243   4.553   1.919  0.4618  0.0008 -0.6209
  164SAPE  H11A18318   6.342   4.563   1.870  0.7353 -1.1107 -0.3224
  164SAPE  H11B18319   6.246   4.463   1.985  0.3650 -0.1789 -0.8598
  164SAPE     P18320   6.292   4.808   1.979  0.0301  0.3723 -0.0439
  164SAPE   O1318321   6.434   4.768   1.993  0.5484 -0.0718  0.6351
  164SAPE   O1418322   6.262   4.880   1.854  0.2002  0.8473  0.0583
  164SAPE   O1218323   6.199   4.671   1.990 -0.4288  0.1754  0.2854
  164SAPE   O1118324   6.246   4.888   2.107 -0.3321 -0.1253  0.7588
  164SAPE    C118325   6.218   4.822   2.232 -0.4072 -0.2589 -0.1798
  164SAPE    HA18326   6.202   4.712   2.231 -2.3392 -0.0297  1.0043
  164SAPE    HB18327   6.308   4.850   2.291 -1.9438  1.1125  1.6063
  164SAPE    C218328   6.100   4.876   2.316 -0.0184 -0.2062  0.2062
  164SAPE    HS18329   6.012   4.892   2.249 -0.4149 -1.5995  0.3664
  164SAPE   O2118330   6.147   4.996   2.376 -0.4599  0.6582  0.6342
  164SAPE   C2118331   6.052   5.079   2.411  1.0692  0.4804  0.6416
  164SAPE   O2218332   5.935   5.065   2.377  0.1780 -0.6348  0.0160
  164SAPE   C2218333   6.100   5.209   2.497 -0.1098  0.8819  0.0024
  164SAPE   H2R18334   6.211   5.207   2.493 -0.0369 -1.1893  1.4691
  164SAPE   H2S18335   6.059   5.293   2.437 -0.3780  0.9313  0.2520
  164SAPE    C318336   6.055   4.771   2.424 -0.3023  0.1998 -0.4282
  164SAPE    HX18337   6.002   4.695   2.363  0.1273 -0.6873  0.2891
  164SAPE    HY18338   5.973   4.817   2.483 -0.2348  0.4318 -0.5113
  164SAPE   O3118339   6.172   4.716   2.495 -0.0660 -0.3282 -0.3257
  164SAPE   C3118340   6.194   4.790   2.603 -0.7099 -0.1806 -0.0391
  164SAPE   O3218341   6.146   4.895   2.634  1.0853 -0.1651 -0.2048
  164SAPE   C3218342   6.304   4.712   2.682  0.0586 -0.7944  0.1640
  164SAPE   H2X18343   6.396   4.714   2.620  0.7434  1.4638  1.1559
  164SAPE   H2Y18344   6.268   4.609   2.700 -0.7135 -0.3956  1.0057
  164SAPE   C2318345   6.023   5.209   2.632 -0.1007  0.2677 -0.2176
  164SAPE   H3R18346   6.049   5.123   2.697  3.7454  0.3460 -1.4291
  164SAPE   H3S18347   5.914   5.205   2.612 -0.4967 -0.4971  1.7819
  164SAPE   C2418348   6.037   5.349   2.702 -0.3482  0.4192 -0.2074
  164SAPE   H4R18349   5.956   5.359   2.777 -0.6067 -1.0885 -0.2484
  164SAPE   H4S18350   6.031   5.422   2.618  1.2343  0.8751  0.0364
  164SAPE   C2518351   6.166   5.367   2.775  0.3614  0.4163 -1.0153
  164SAPE   H5R18352   6.250   5.423   2.730  4.7582 -3.4730  1.4274
  164SAPE   C2618353   6.195   5.311   2.893 -0.6487 -0.4172  0.5183
  164SAPE   H6R18354   6.299   5.323   2.926 -0.8352  4.1439  0.0536
  164SAPE   C2718355   6.111   5.215   2.974 -0.0129  0.4928  0.0402
  164SAPE   H7R18356   6.156   5.114   2.960  1.1955  1.1515 -1.0632
  164SAPE   H7S18357   6.005   5.224   2.942 -0.4863 -1.2567  0.9424
  164SAPE   C2818358   6.114   5.257   3.115  0.2812 -0.1131 -0.8966
  164SAPE   H8R18359   6.053   5.345   3.142 -1.6318 -2.0618  1.7751
  164SAPE   C2918360   6.171   5.199   3.223 -0.0110 -0.1414  0.2078
  164SAPE   H9R18361   6.155   5.243   3.322 -0.6624  1.0095 -0.3872
  164SAPE  C21018362   6.258   5.079   3.218 -0.2380 -0.1946 -0.0825
  164SAPE  H10R18363   6.355   5.100   3.268 -1.6033  1.9019  1.8959
  164SAPE  H10S18364   6.287   5.058   3.112 -0.9706  0.7926 -0.4987
  164SAPE  C21118365   6.186   4.957   3.280 -0.1431 -0.0461 -0.1726
  164SAPE  H11R18366   6.076   4.958   3.281 -0.1998 -0.5704 -1.9124
  164SAPE  C21218367   6.245   4.845   3.318  0.2376  0.1465  0.1737
  164SAPE  H12R18368   6.187   4.758   3.351  2.7065 -0.7021  2.7142
  164SAPE  C21318369   6.390   4.813   3.319  0.0553  0.0261 -0.3021
  164SAPE  H13R18370   6.423   4.814   3.425  2.9997  0.5016 -1.1307
  164SAPE  H13S18371   6.454   4.885   3.264  1.5711 -1.0070  0.0511
  164SAPE  C21418372   6.416   4.674   3.263  0.0976  0.3798 -0.0755
  164SAPE  H14R18373   6.346   4.627   3.192  1.2648 -0.3910 -0.7560
  164SAPE  C21518374   6.523   4.605   3.307 -0.3908  0.9377 -1.1812
  164SAPE  H15R18375   6.542   4.516   3.246  1.8149  1.8695 -1.9664
  164SAPE  C21618376   6.622   4.643   3.414 -0.2048  0.4521 -0.6138
  164SAPE  H16R18377   6.698   4.563   3.428 -0.4644 -0.3682 -3.2893
  164SAPE  H16S18378   6.570   4.654   3.512 -2.4966  0.2527 -1.7315
  164SAPE  C21718379   6.714   4.765   3.378  0.3704 -0.3764 -0.0014
  164SAPE  H17R18380   6.787   4.782   3.460 -0.4528  0.1255  0.6410
  164SAPE  H17S18381   6.655   4.859   3.376  0.3355 -0.4028 -0.4011
  164SAPE  C21818382   6.790   4.743   3.240  0.2665 -0.0875 -0.3549
  164SAPE  H18R18383   6.720   4.731   3.154 -1.4061 -0.5356  1.0209
  164SAPE  H18S18384   6.852   4.652   3.256 -0.2408 -0.4900 -0.6252
  164SAPE  C21918385   6.894   4.852   3.209  0.4891 -0.2999 -0.2679
  164SAPE  H19R18386   6.827   4.940   3.205  0.2988 -0.4865 -1.7167
  164SAPE  H19S18387   6.927   4.824   3.107 -1.6817  0.0067 -1.1102
  164SAPE  C22018388   7.003   4.879   3.299  0.1268 -0.8256 -0.2208
  164SAPE  H20R18389   6.983   4.948   3.384 -0.0721 -1.5861  0.3536
  164SAPE  H20S18390   7.093   4.928   3.255  0.9801 -0.5447  1.7249
  164SAPE  H20T18391   7.043   4.785   3.341  0.4170  0.0115  1.4641
  164SAPE   C3318392   6.313   4.762   2.830 -0.7624  0.6687 -0.7529
  164SAPE   H3X18393   6.382   4.692   2.880 -1.6338 -0.3057 -0.8788
  164SAPE   H3Y18394   6.211   4.751   2.873 -0.6734 -1.8521 -1.0390
  164SAPE   C3418395   6.374   4.905   2.854 -0.2307  0.2330 -0.1709
  164SAPE   H4X18396   6.384   4.909   2.964  1.3102  0.1581 -0.2898
  164SAPE   H4Y18397   6.300   4.983   2.825 -0.8371 -0.4393 -0.4729
  164SAPE   C3518398   6.514   4.920   2.789  0.2994 -0.3076  0.0825
  164SAPE   H5X18399   6.505   4.974   2.692 -0.0972  0.3979  0.4994
  164SAPE   H5Y18400   6.547   4.818   2.762 -0.9960 -1.0052  0.9849
  164SAPE   C3618401   6.611   4.996   2.882 -0.0692  0.0275  0.3149
  164SAPE   H6X18402   6.700   4.993   2.816 -0.7684 -0.6120 -0.6396
  164SAPE   H6Y18403   6.632   4.939   2.974 -0.6264 -0.0436  0.4058
  164SAPE   C3718404   6.569   5.141   2.911 -0.5112 -0.6547 -0.0058
  164SAPE   H7X18405   6.487   5.144   2.986  0.9462 -0.0606  1.6502
  164SAPE   H7Y18406   6.532   5.190   2.819 -0.7283  0.0845  0.4630
  164SAPE   C3818407   6.682   5.235   2.970  0.4783 -0.0749  0.1251
  164SAPE   H8X18408   6.724   5.259   2.870  1.5650 -1.9154  0.0967
  164SAPE   H8Y18409   6.753   5.178   3.034  0.4113 -0.0899  0.1849
  164SAPE   C3918410   6.628   5.358   3.053 -0.3478  0.0158  0.3179
  164SAPE   H9X18411   6.536   5.398   3.006 -0.9382  0.3970  1.7604
  164SAPE   H9Y18412   6.709   5.433   3.039 -0.3972 -0.2110 -1.3446
  164SAPE  C31018413   6.596   5.339   3.201  0.1298 -0.5324  0.1286
  164SAPE  H10X18414   6.499   5.284   3.204  0.0659 -0.8363 -3.6073
  164SAPE  H10Y18415   6.589   5.439   3.248 -1.4349 -1.8445  3.0302
  164SAPE  C31118416   6.708   5.266   3.278  0.2340 -0.2141 -0.3174
  164SAPE  H11X18417   6.808   5.307   3.251  0.5178 -1.7967 -1.9111
  164SAPE  H11Y18418   6.713   5.160   3.244  2.7155  0.4326 -2.3085
  164SAPE  C31218419   6.692   5.269   3.432  0.4281 -0.9021 -0.1501
  164SAPE  H12X18420   6.605   5.219   3.479  0.6100 -1.0772 -0.0016
  164SAPE  H12Y18421   6.680   5.375   3.465 -0.6252 -0.9350 -0.3802
  164SAPE  C31318422   6.819   5.208   3.498 -0.1189 -0.1250  0.8768
  164SAPE  H13X18423   6.903   5.275   3.469 -1.4879  0.9796 -0.7686
  164SAPE  H13Y18424   6.841   5.109   3.452 -0.0272 -0.2312  1.1506
  164SAPE  C31418425   6.809   5.187   3.647  0.2248  0.2845  0.5194
  164SAPE  H14X18426   6.893   5.119   3.674 -0.1969 -0.7389 -0.6332
  164SAPE  H14Y18427   6.712   5.137   3.663  0.3644 -0.5276 -1.0427
  164SAPE  C31518428   6.812   5.316   3.733  0.3627 -0.0806  0.5759
  164SAPE  H15X18429   6.731   5.384   3.700  0.1786 -0.5014  0.1545
  164SAPE  H15Y18430   6.906   5.367   3.702  0.9714 -1.3881  0.1862
  164SAPE  C31618431   6.806   5.289   3.883  0.3597 -0.0329  0.5441
  164SAPE  H16X18432   6.905   5.241   3.902 -0.1150 -1.2146  0.1757
  164SAPE  H16Y18433   6.733   5.207   3.901  1.9234 -1.0257  2.7028
  164SAPE  C31718434   6.778   5.412   3.965  0.1388  0.2086  0.2155
  164SAPE  H17X18435   6.678   5.449   3.932 -0.1288  0.2470  1.0461
  164SAPE  H17Y18436   6.856   5.488   3.944  1.5297 -1.4814 -1.1012
  164SAPE  C31818437   6.781   5.382   4.113  0.0319 -0.3182  0.6986
  164SAPE  H18X18438   6.751   5.472   4.170 -1.6155  1.6804 -3.0371
  164SAPE  H18Y18439   6.875   5.334   4.149  0.8471 -1.3550 -2.4713
  164SAPE  H18Z18440   6.702   5.312   4.147  0.5568 -0.1431  2.3901
  165SAPE     N18441   3.352   0.231   1.354 -0.6333 -0.3953 -0.2198
  165SAPE   HN118442   3.381   0.147   1.300  0.1608  0.2604 -0.8393
  165SAPE   HN218443   3.336   0.313   1.293 -2.5421 -1.1106 -0.7302
  165SAPE   HN318444   3.439   0.247   1.410 -0.9182 -2.4361  0.9025
  165SAPE   C1218445   3.243   0.200   1.448 -0.2897  0.1021 -1.4431
  165SAPE  H12A18446   3.154   0.157   1.398 -1.1993 -3.1833  2.4979
  165SAPE  H12B18447   3.217   0.293   1.502  0.6648 -0.7612  0.5964
  165SAPE   C1118448   3.291   0.091   1.550  0.0351 -0.2853  0.5207
  165SAPE  H11A18449   3.322  -0.001   1.495  1.8344  1.3232 -1.3090
  165SAPE  H11B18450   3.206   0.053   1.612  1.1484 -1.3120  1.4781
  165SAPE     P18451   3.385   0.236   1.746  0.8764 -0.0572 -0.3196
  165SAPE   O1318452   3.503   0.247   1.830 -0.0847  0.1237  0.0556
  165SAPE   O1418453   3.343   0.366   1.684  0.3362  0.3229  0.5594
  165SAPE   O1218454   3.403   0.135   1.628 -0.2128 -0.1135  0.2227
  165SAPE   O1118455   3.266   0.184   1.833  0.0631  0.0604  0.5000
  165SAPE    C118456   3.277   0.063   1.916 -0.7309  0.2723 -0.4088
  165SAPE    HA18457   3.181   0.009   1.911 -1.5067  1.3747  1.4404
  165SAPE    HB18458   3.352  -0.008   1.876  0.0565  0.8352  0.0384
  165SAPE    C218459   3.302   0.106   2.063 -0.7777  0.4166  0.1183
  165SAPE    HS18460   3.412   0.122   2.066 -0.5852  0.5610 -3.4677
  165SAPE   O2118461   3.260  -0.002   2.153 -0.5233  0.0550 -0.1999
  165SAPE   C2118462   3.322  -0.006   2.262  0.1379 -0.2681  0.3977
  165SAPE   O2218463   3.426   0.045   2.288 -0.5160 -0.0589 -0.1291
  165SAPE   C2218464   3.252  -0.106   2.357  0.0512 -0.2643 -0.1031
  165SAPE   H2R18465   3.150  -0.114   2.313  0.3701  0.8757 -1.0978
  165SAPE   H2S18466   3.300  -0.203   2.334 -0.3260 -0.1605 -1.4054
  165SAPE    C318467   3.221   0.223   2.101  0.5455 -0.1795 -0.2208
  165SAPE    HX18468   3.116   0.191   2.081  1.2835 -2.4843 -0.6940
  165SAPE    HY18469   3.240   0.310   2.034 -0.4138 -0.4268 -0.8330
  165SAPE   O3118470   3.232   0.268   2.235 -0.2496 -0.2446 -0.6293
  165SAPE   C3118471   3.344   0.335   2.270  0.1209 -0.6344 -0.2935
  165SAPE   O3218472   3.445   0.342   2.202 -0.4925 -0.5478 -0.0032
  165SAPE   C3218473   3.329   0.400   2.403 -0.1189  0.3880 -1.3039
  165SAPE   H2X18474   3.306   0.322   2.479  0.3595  1.0615 -0.4571
  165SAPE   H2Y18475   3.248   0.476   2.406 -1.1649 -0.7145 -0.0686
  165SAPE   C2318476   3.256  -0.069   2.511 -0.5926 -0.1849  0.2093
  165SAPE   H3R18477   3.360  -0.055   2.547 -0.6212 -0.7952  0.5418
  165SAPE   H3S18478   3.214  -0.158   2.562 -1.2456 -2.3013 -3.6572
  165SAPE   C2418479   3.184   0.058   2.537  0.4430 -0.2276  0.4450
  165SAPE   H4R18480   3.209   0.141   2.467  1.0803  0.2585  1.2319
  165SAPE   H4S18481   3.214   0.102   2.634  0.2204  2.4446 -0.5823
  165SAPE   C2518482   3.035   0.036   2.540  0.2737 -0.6768  0.7115
  165SAPE   H5R18483   2.987   0.046   2.441  0.2790 -2.3740  0.5109
  165SAPE   C2618484   2.971   0.023   2.657  0.7918  0.9039 -0.5085
  165SAPE   H6R18485   2.862   0.008   2.663  0.9962 -0.1759  1.3429
  165SAPE   C2718486   3.014   0.012   2.802 -0.4960 -0.6830 -0.3413
  165SAPE   H7R18487   3.122   0.035   2.810 -0.1230 -1.9109 -1.5132
  165SAPE   H7S18488   2.995  -0.090   2.841 -2.6907 -0.5681 -0.9594
  165SAPE   C2818489   2.939   0.119   2.883 -0.5330 -0.5811 -0.6254
  165SAPE   H8R18490   2.850   0.163   2.837 -0.2926 -0.1237 -0.6678
  165SAPE   C2918491   2.968   0.130   3.016 -0.1766  0.4827  0.8231
  165SAPE   H9R18492   2.924   0.205   3.083  2.1361  0.4445  2.5133
  165SAPE  C21018493   3.073   0.049   3.086 -0.0177 -0.5114 -0.3244
  165SAPE  H10R18494   3.169   0.105   3.086  0.5565 -1.4530 -1.3404
  165SAPE  H10S18495   3.100  -0.040   3.026  0.8475 -1.3043  1.1959
  165SAPE  C21118496   3.029   0.006   3.221  0.1164 -0.6496 -0.1652
  165SAPE  H11R18497   2.980  -0.092   3.231  0.6812 -0.8670  0.6184
  165SAPE  C21218498   3.063   0.081   3.327  0.0511 -0.1986  0.1846
  165SAPE  H12R18499   3.036   0.042   3.426  0.3369 -2.2259 -0.4847
  165SAPE  C21318500   3.130   0.217   3.321 -0.6162 -0.3041  0.9808
  165SAPE  H13R18501   3.107   0.263   3.222  1.0788 -1.2895  0.0884
  165SAPE  H13S18502   3.240   0.206   3.313 -0.8451 -2.3269 -0.1142
  165SAPE  C21418503   3.096   0.304   3.434  0.9312  0.0900 -0.5060
  165SAPE  H14R18504   3.005   0.364   3.427  0.0236 -0.7699  2.6506
  165SAPE  C21518505   3.171   0.330   3.542  0.6576 -0.4620 -0.2142
  165SAPE  H15R18506   3.113   0.375   3.624 -0.3478 -3.3979  0.8504
  165SAPE  C21618507   3.307   0.271   3.575 -0.3080  0.5289  0.3460
  165SAPE  H16R18508   3.353   0.220   3.488 -1.8212 -0.9686  0.3629
  165SAPE  H16S18509   3.300   0.188   3.649 -0.3907 -0.1134 -0.3703
  165SAPE  C21718510   3.424   0.364   3.622  0.5651  0.3277 -0.2110
  165SAPE  H17R18511   3.424   0.451   3.553 -1.5382  0.3951 -0.1824
  165SAPE  H17S18512   3.521   0.309   3.615 -0.4184 -1.4696 -0.3367
  165SAPE  C21818513   3.427   0.422   3.759 -0.1416 -0.4631 -0.3741
  165SAPE  H18R18514   3.416   0.345   3.839 -1.4904  2.7563  2.8306
  165SAPE  H18S18515   3.331   0.478   3.763  0.9352  1.5920 -1.5914
  165SAPE  C21918516   3.543   0.513   3.779 -0.2759 -0.7233 -0.6572
  165SAPE  H19R18517   3.509   0.580   3.861  1.0784 -1.2874  0.3985
  165SAPE  H19S18518   3.555   0.574   3.687  1.5413 -1.6773 -1.0900
  165SAPE  C22018519   3.676   0.454   3.813 -0.1475  0.2420 -0.3022
  165SAPE  H20R18520   3.711   0.367   3.754  0.6094  1.5682 -1.9082
  165SAPE  H20S18521   3.683   0.436   3.922 -1.1074  1.1767 -0.0699
  165SAPE  H20T18522   3.747   0.537   3.793  1.3476 -0.6503  1.0526
  165SAPE   C3318523   3.462   0.473   2.446 -0.3351  0.5089 -0.7963
  165SAPE   H3X18524   3.471   0.568   2.388  2.2898  0.3752 -0.7002
  165SAPE   H3Y18525   3.557   0.417   2.434  0.8132  2.0462  0.7198
  165SAPE   C3418526   3.464   0.519   2.592 -0.1360  0.4784  0.2437
  165SAPE   H4X18527   3.370   0.578   2.602 -1.2920 -1.4575  1.3313
  165SAPE   H4Y18528   3.550   0.588   2.608 -1.4494  1.9952  1.0797
  165SAPE   C3518529   3.468   0.408   2.700 -1.1752  0.0314 -0.4432
  165SAPE   H5X18530   3.562   0.350   2.688 -1.5518 -0.5359 -0.6274
  165SAPE   H5Y18531   3.384   0.337   2.687  0.2543 -1.4494 -2.0379
  165SAPE   C3618532   3.480   0.457   2.849  0.2416  0.5961  0.3097
  165SAPE   H6X18533   3.493   0.369   2.916 -0.8570  0.7622  0.7593
  165SAPE   H6Y18534   3.383   0.505   2.873 -0.4291 -0.0700 -0.9941
  165SAPE   C3718535   3.592   0.565   2.874 -0.1593  0.0396  0.1754
  165SAPE   H7X18536   3.557   0.652   2.815  1.5238  0.2964 -0.5142
  165SAPE   H7Y18537   3.687   0.519   2.839 -0.6779  1.0909 -2.8323
  165SAPE   C3818538   3.609   0.608   3.020  0.0876  0.2775  0.3645
  165SAPE   H8X18539   3.532   0.680   3.056  0.3534  0.9878 -0.4811
  165SAPE   H8Y18540   3.706   0.662   3.025 -0.1252  0.7858 -0.7872
  165SAPE   C3918541   3.620   0.500   3.124 -1.1479 -0.0005  0.2480
  165SAPE   H9X18542   3.711   0.443   3.097 -1.1197  0.7367 -1.3167
  165SAPE   H9Y18543   3.532   0.432   3.129 -0.7924 -0.4465  0.4190
  165SAPE  C31018544   3.629   0.561   3.270 -1.1215  0.2632 -0.0800
  165SAPE  H10X18545   3.620   0.475   3.339  0.9882  0.7754  0.9148
  165SAPE  H10Y18546   3.552   0.639   3.290  0.4550  1.6592  0.9130
  165SAPE  C31118547   3.767   0.611   3.312  0.4757 -0.2832 -0.3107
  165SAPE  H11X18548   3.790   0.704   3.256  0.1541  0.2150  0.3666
  165SAPE  H11Y18549   3.837   0.536   3.270  0.4125  0.9792 -2.8456
  165SAPE  C31218550   3.780   0.636   3.463  0.8165 -0.3431 -0.0926
  165SAPE  H12X18551   3.753   0.538   3.508 -0.6357 -0.9181 -2.0861
  165SAPE  H12Y18552   3.703   0.707   3.501  1.7756  0.9513 -0.4941
  165SAPE  C31318553   3.922   0.683   3.501 -0.4725 -0.0806  0.4765
  165SAPE  H13X18554   3.924   0.733   3.600 -2.1318  2.4952 -0.7072
  165SAPE  H13Y18555   3.957   0.763   3.434 -1.6197 -0.2361 -0.3456
  165SAPE  C31418556   4.028   0.575   3.493 -0.7334  0.3689  0.0301
  165SAPE  H14X18557   4.129   0.622   3.484 -1.3084  1.3168 -2.1165
  165SAPE  H14Y18558   4.024   0.522   3.396  1.6223 -0.2639  0.2128
  165SAPE  C31518559   4.026   0.475   3.605 -0.2038 -0.1421  0.2231
  165SAPE  H15X18560   3.942   0.402   3.594  1.5607 -2.1265 -0.6831
  165SAPE  H15Y18561   4.002   0.531   3.698  0.7030 -0.4713  0.6665
  165SAPE  C31618562   4.151   0.387   3.616  0.1509  0.4478 -0.3562
  165SAPE  H16X18563   4.239   0.455   3.620  0.3674  0.1878 -0.6267
  165SAPE  H16Y18564   4.174   0.318   3.532 -0.8180 -3.1170  2.0798
  165SAPE  C31718565   4.141   0.294   3.736 -0.2737  0.6570  0.4713
  165SAPE  H17X18566   4.232   0.231   3.730 -2.3024 -2.3944 -0.6862
  165SAPE  H17Y18567   4.050   0.231   3.724 -1.0368  1.6258  1.0149
  165SAPE  C31818568   4.147   0.369   3.870 -0.2551 -0.2340  0.1755
  165SAPE  H18X18569   4.132   0.286   3.942  0.8536  0.3721  1.1450
  165SAPE  H18Y18570   4.072   0.451   3.874  2.2250  2.4531 -2.6546
  165SAPE  H18Z18571   4.248   0.414   3.882 -0.3249  0.0937 -0.4406
  166SAPE     N18572   4.762   0.881   1.840  0.5634 -0.0462  0.5333
  166SAPE   HN118573   4.861   0.874   1.810  0.7074  1.7254  0.4542
  166SAPE   HN218574   4.706   0.885   1.752 -0.4448 -1.2326  1.1013
  166SAPE   HN318575   4.754   0.965   1.900  0.8940 -1.1124  2.1287
  166SAPE   C1218576   4.737   0.754   1.913  0.2629 -0.2252  0.1294
  166SAPE  H12A18577   4.638   0.760   1.963  1.1184  0.1546  1.8696
  166SAPE  H12B18578   4.815   0.743   1.991 -0.4514 -1.5730  0.6848
  166SAPE   C1118579   4.768   0.628   1.828  0.4658 -0.4715 -0.5916
  166SAPE  H11A18580   4.692   0.611   1.749  1.1249 -2.0612 -0.9438
  166SAPE  H11B18581   4.757   0.547   1.904  0.0700  1.1822  1.2079
  166SAPE     P18582   4.941   0.595   1.634 -0.0695  0.0169  0.1511
  166SAPE   O1318583   4.835   0.620   1.539 -0.3304  0.2890 -0.2338
  166SAPE   O1418584   5.072   0.647   1.591  1.1140 -0.9901  0.0787
  166SAPE   O1218585   4.905   0.639   1.781  0.1031  0.1333 -0.0645
  166SAPE   O1118586   4.947   0.438   1.654  0.8606  0.4688 -0.2148
  166SAPE    C118587   5.060   0.378   1.713 -0.6478 -0.1467  0.7567
  166SAPE    HA18588   5.129   0.366   1.628 -0.9609  1.7765  0.1781
  166SAPE    HB18589   5.115   0.437   1.789 -0.2172 -0.6279  0.8197
  166SAPE    C218590   5.026   0.238   1.769 -0.3223  0.5699 -0.6423
  166SAPE    HS18591   4.993   0.185   1.677  1.3408  0.8177 -1.4281
  166SAPE   O2118592   4.915   0.263   1.861  0.6870  0.1492  0.4429
  166SAPE   C2118593   4.844   0.155   1.891 -0.5896  0.0739 -0.8264
  166SAPE   O2218594   4.848   0.053   1.823  0.3782  0.2934  0.4862
  166SAPE   C2218595   4.781   0.171   2.028 -0.1872  0.5179 -0.6481
  166SAPE   H2R18596   4.707   0.090   2.044 -0.1961  0.5237 -0.6561
  166SAPE   H2S18597   4.861   0.150   2.102 -3.0777  0.1831  2.6326
  166SAPE    C318598   5.139   0.152   1.825 -0.4101 -1.0250 -0.5907
  166SAPE    HX18599   5.230   0.164   1.764  0.2536 -0.3161  0.4976
  166SAPE    HY18600   5.110   0.047   1.804 -2.9869 -0.4090 -0.4295
  166SAPE   O3118601   5.158   0.175   1.967  0.3302  0.4979 -0.0031
  166SAPE   C3118602   5.248   0.274   2.004  0.1288  0.2137 -0.9070
  166SAPE   O3218603   5.329   0.325   1.929 -0.0943 -0.5154 -0.0391
  166SAPE   C3218604   5.232   0.313   2.151 -0.0132  0.5586 -0.0181
  166SAPE   H2X18605   5.123   0.311   2.173  0.0146 -2.2005  0.2765
  166SAPE   H2Y18606   5.260   0.420   2.163 -1.2153  0.9845 -0.8137
  166SAPE   C2318607   4.721   0.314   2.045 -0.0675  0.3630 -0.4936
  166SAPE   H3R18608   4.658   0.315   1.953 -1.0538  0.2012  0.1684
  166SAPE   H3S18609   4.807   0.384   2.040  1.8430 -1.7808  0.3791
  166SAPE   C2418610   4.644   0.342   2.178  0.0017 -0.5028 -0.0229
  166SAPE   H4R18611   4.563   0.266   2.183  1.4092 -2.0815 -0.3974
  166SAPE   H4S18612   4.609   0.447   2.184  2.6548  0.3583  2.4854
  166SAPE   C2518613   4.730   0.310   2.293 -0.4770 -0.1564 -0.2482
  166SAPE   H5R18614   4.731   0.204   2.324  0.3388  0.1442  0.7952
  166SAPE   C2618615   4.786   0.399   2.380 -0.2717  0.7053 -0.3109
  166SAPE   H6R18616   4.834   0.339   2.458  0.6715  0.0535 -1.3686
  166SAPE   C2718617   4.785   0.552   2.383  0.2008 -0.2529 -0.2023
  166SAPE   H7R18618   4.756   0.586   2.485 -0.3312 -1.0386 -0.0838
  166SAPE   H7S18619   4.697   0.594   2.331  0.4938  0.4950 -0.1045
  166SAPE   C2818620   4.915   0.610   2.337  0.3252  0.8414 -0.3676
  166SAPE   H8R18621   4.930   0.591   2.230  1.7019 -0.7655  0.0657
  166SAPE   C2918622   5.021   0.661   2.405 -0.0043  0.0233  0.2288
  166SAPE   H9R18623   5.102   0.700   2.342 -0.0408 -3.9281 -2.5847
  166SAPE  C21018624   5.024   0.667   2.554  1.0769  0.5749  0.3410
  166SAPE  H10R18625   4.982   0.571   2.591 -1.7427  0.8172 -1.8696
  166SAPE  H10S18626   4.944   0.733   2.593  0.4966 -0.5000  1.0329
  166SAPE  C21118627   5.162   0.706   2.609 -0.0193 -0.3368 -0.6586
  166SAPE  H11R18628   5.243   0.644   2.567 -0.2271  0.0956 -1.7384
  166SAPE  C21218629   5.195   0.793   2.710  0.0089 -0.2170  0.1483
  166SAPE  H12R18630   5.303   0.811   2.725  0.5327 -2.4244 -0.5804
  166SAPE  C21318631   5.099   0.877   2.787 -0.3869  0.4714  0.0536
  166SAPE  H13R18632   5.129   0.897   2.892 -0.6277  2.6509 -0.2316
  166SAPE  H13S18633   5.003   0.821   2.794 -1.2567  1.9215  0.3770
  166SAPE  C21418634   5.074   1.009   2.715  0.8475 -0.0590  0.5681
  166SAPE  H14R18635   5.053   0.987   2.609 -0.0274 -2.3690  1.1641
  166SAPE  C21518636   5.069   1.132   2.765  0.4714 -0.4390  0.0165
  166SAPE  H15R18637   5.060   1.222   2.701  0.8897 -0.2226  0.2547
  166SAPE  C21618638   5.087   1.159   2.915  0.1129 -0.1025 -0.0844
  166SAPE  H16R18639   5.094   1.269   2.924 -1.2333  0.2063 -2.1060
  166SAPE  H16S18640   5.186   1.115   2.939  0.4767  1.1478  0.8131
  166SAPE  C21718641   4.989   1.113   3.028 -0.0637 -0.4947  0.2361
  166SAPE  H17R18642   4.975   1.004   3.015 -3.0673  0.0760 -2.9784
  166SAPE  H17S18643   4.888   1.159   3.029 -0.1075 -0.3623 -2.4037
  166SAPE  C21818644   5.063   1.129   3.163 -0.1946 -0.3225 -0.2065
  166SAPE  H18R18645   5.078   1.235   3.194 -1.2069 -1.3415  4.4037
  166SAPE  H18S18646   5.161   1.078   3.157  0.0955 -0.0213  1.5695
  166SAPE  C21918647   4.992   1.070   3.286  0.4250  0.9373  0.4180
  166SAPE  H19R18648   5.048   1.096   3.378  2.4109 -0.3906 -0.3463
  166SAPE  H19S18649   4.990   0.959   3.280  2.7251  0.8143  0.8963
  166SAPE  C22018650   4.857   1.129   3.309  0.6815  0.0947  0.1730
  166SAPE  H20R18651   4.790   1.122   3.220  1.3256  0.9836 -0.4090
  166SAPE  H20S18652   4.853   1.235   3.342 -1.8200  0.0153  0.2923
  166SAPE  H20T18653   4.806   1.072   3.390  1.3338 -2.5565 -1.1712
  166SAPE   C3318654   5.297   0.215   2.250  0.0420 -0.2436 -0.5012
  166SAPE   H3X18655   5.397   0.252   2.283  0.7053 -1.0586 -1.5275
  166SAPE   H3Y18656   5.306   0.114   2.205  1.7765 -0.0942 -0.5920
  166SAPE   C3418657   5.206   0.183   2.382  0.2953 -0.2652  0.1207
  166SAPE   H4X18658   5.258   0.111   2.448  2.6787  0.5783 -0.7139
  166SAPE   H4Y18659   5.108   0.137   2.360 -0.2415  1.0745 -0.3752
  166SAPE   C3518660   5.172   0.319   2.449  0.4166  0.2265 -0.0787
  166SAPE   H5X18661   5.103   0.385   2.392  0.8474  2.1615  1.5297
  166SAPE   H5Y18662   5.266   0.377   2.457 -0.0734  1.4447 -2.2711
  166SAPE   C3618663   5.108   0.294   2.589 -0.0482  0.6139  0.4338
  166SAPE   H6X18664   5.037   0.210   2.575  0.0853  0.4968  0.4546
  166SAPE   H6Y18665   5.038   0.374   2.622 -0.1777  0.9734 -0.6814
  166SAPE   C3718666   5.220   0.270   2.691 -0.1633 -0.0312  0.5021
  166SAPE   H7X18667   5.293   0.353   2.679  0.1201 -0.2034  1.0339
  166SAPE   H7Y18668   5.271   0.177   2.660 -0.6586 -0.3579  0.6528
  166SAPE   C3818669   5.180   0.259   2.841  0.0248  0.0216  0.0006
  166SAPE   H8X18670   5.150   0.354   2.889 -0.2832  0.7058 -1.4701
  166SAPE   H8Y18671   5.265   0.205   2.888 -0.2362 -1.9612 -1.6670
  166SAPE   C3918672   5.056   0.171   2.867  0.2320  0.3933  0.3928
  166SAPE   H9X18673   5.085   0.068   2.834 -2.5470 -0.2115 -0.4281
  166SAPE   H9Y18674   4.972   0.206   2.804  2.6136  1.1168 -2.6306
  166SAPE  C31018675   5.013   0.163   3.017  0.3659  0.4466 -0.4209
  166SAPE  H10X18676   4.943   0.076   3.015 -0.1836  0.8801 -0.3539
  166SAPE  H10Y18677   4.954   0.253   3.043  0.2611  0.9646 -2.2705
  166SAPE  C31118678   5.138   0.140   3.110  0.5317 -0.1398 -0.0185
  166SAPE  H11X18679   5.216   0.218   3.099  2.1455 -1.4610  1.4166
  166SAPE  H11Y18680   5.191   0.050   3.072 -0.1604  0.7807 -3.5522
  166SAPE  C31218681   5.098   0.134   3.255  0.3280 -0.1877  0.2711
  166SAPE  H12X18682   5.051   0.227   3.293  1.0914  0.2622  0.1394
  166SAPE  H12Y18683   5.195   0.122   3.309  0.4639  1.2539  0.3798
  166SAPE  C31318684   5.011   0.013   3.279  0.0963 -0.2235 -0.3213
  166SAPE  H13X18685   5.084  -0.070   3.269  1.3914  0.4521  2.4691
  166SAPE  H13Y18686   4.929   0.020   3.205  0.1927 -1.0319 -0.5108
  166SAPE  C31418687   4.951  -0.003   3.422  0.7082  0.5262 -0.2863
  166SAPE  H14X18688   4.898   0.094   3.428 -1.7741 -0.6706 -1.2717
  166SAPE  H14Y18689   5.031  -0.001   3.498  2.4498 -0.4677 -1.9972
  166SAPE  C31518690   4.866  -0.137   3.430  0.0007  0.2478 -0.1363
  166SAPE  H15X18691   4.942  -0.218   3.425 -0.3017 -0.0586  0.2283
  166SAPE  H15Y18692   4.791  -0.135   3.348 -0.9836 -0.9380  0.7071
  166SAPE  C31618693   4.793  -0.157   3.568  0.3320  0.6251  1.0184
  166SAPE  H16X18694   4.757  -0.261   3.574 -0.5590  0.8757  0.2543
  166SAPE  H16Y18695   4.697  -0.105   3.586 -1.8254 -0.9446 -4.1336
  166SAPE  C31718696   4.881  -0.123   3.685 -0.2338  0.0790  0.1459
  166SAPE  H17X18697   4.898  -0.013   3.695  2.0710 -0.1580 -0.7637
  166SAPE  H17Y18698   4.975  -0.182   3.682 -0.2876  0.0497 -1.4050
  166SAPE  C31818699   4.815  -0.159   3.812 -0.0374  0.0080 -0.0289
  166SAPE  H18X18700   4.828  -0.266   3.840  0.4134 -0.0051 -0.2728
  166SAPE  H18Y18701   4.708  -0.127   3.818  0.4300  1.3800  2.1087
  166SAPE  H18Z18702   4.870  -0.104   3.891  1.1294 -1.9886  0.6242
  167SAPE     N18703   0.325   4.209   1.864 -0.1237 -0.3094  0.2428
  167SAPE   HN118704   0.330   4.280   1.788  1.4286  0.3658  0.9258
  167SAPE   HN218705   0.394   4.133   1.846 -0.8236 -0.5209 -1.8484
  167SAPE   HN318706   0.231   4.170   1.844 -0.5743  1.3277 -1.1146
  167SAPE   C1218707   0.330   4.274   2.004 -0.0645  0.4601  0.8397
  167SAPE  H12A18708   0.299   4.207   2.088  1.2776  2.9451  3.5061
  167SAPE  H12B18709   0.271   4.369   2.006 -0.7592  0.1195 -1.2712
  167SAPE   C1118710   0.474   4.303   2.037 -0.2676 -0.2248 -0.7825
  167SAPE  H11A18711   0.531   4.212   2.067 -1.6428 -0.3880  1.5355
  167SAPE  H11B18712   0.481   4.368   2.127  1.0715 -1.5846  0.1415
  167SAPE     P18713   0.560   4.529   1.915 -0.1644  0.2517 -0.1068
  167SAPE   O1318714   0.652   4.565   1.803  0.0253 -0.2711  0.2995
  167SAPE   O1418715   0.422   4.585   1.915  0.2263 -0.2376 -0.1361
  167SAPE   O1218716   0.550   4.374   1.934  0.3921  0.2796  0.4496
  167SAPE   O1118717   0.617   4.594   2.053  0.0500 -0.2104 -0.0040
  167SAPE    C118718   0.757   4.609   2.076  0.3467 -0.1420  0.1224
  167SAPE    HA18719   0.815   4.524   2.033  0.1993 -0.1095 -0.1414
  167SAPE    HB18720   0.790   4.705   2.029 -0.0015 -1.1017 -2.2188
  167SAPE    C218721   0.782   4.610   2.229 -0.7208  0.1258 -0.6550
  167SAPE    HS18722   0.891   4.586   2.231 -1.1556 -1.9322 -0.3904
  167SAPE   O2118723   0.705   4.510   2.302 -0.7579  0.1687  0.1819
  167SAPE   C2118724   0.774   4.391   2.303  0.0892  0.4019  0.2720
  167SAPE   O2218725   0.883   4.368   2.253  0.0075  0.4543 -0.4969
  167SAPE   C2218726   0.694   4.284   2.380  0.0059 -0.0444 -0.2352
  167SAPE   H2R18727   0.641   4.210   2.318 -0.0737  0.4174 -0.7255
  167SAPE   H2S18728   0.768   4.229   2.442 -0.3780 -0.6260 -0.2896
  167SAPE    C318729   0.756   4.753   2.286 -0.2219 -0.0124  0.0269
  167SAPE    HX18730   0.652   4.777   2.255  0.2205 -1.4207 -2.8320
  167SAPE    HY18731   0.822   4.833   2.246  0.8264 -0.6257  0.4973
  167SAPE   O3118732   0.766   4.760   2.426  0.5916  0.1631 -0.8127
  167SAPE   C3118733   0.892   4.753   2.475 -0.1147  0.7399 -0.2951
  167SAPE   O3218734   0.997   4.761   2.415 -0.4002  0.1587 -0.0379
  167SAPE   C3218735   0.883   4.714   2.621  0.7152 -0.5676 -0.3279
  167SAPE   H2X18736   0.900   4.607   2.642 -3.3050 -1.2072  0.3714
  167SAPE   H2Y18737   0.781   4.720   2.663 -0.0525 -0.2394 -2.1511
  167SAPE   C2318738   0.592   4.336   2.484  0.0869 -0.3273 -0.5097
  167SAPE   H3R18739   0.538   4.257   2.539 -1.8633  1.9225  1.0072
  167SAPE   H3S18740   0.514   4.395   2.431 -0.2383 -1.1420 -0.9576
  167SAPE   C2418741   0.648   4.417   2.600 -1.2371 -0.1902 -0.5935
  167SAPE   H4R18742   0.721   4.484   2.550 -1.2502  1.6454  1.6687
  167SAPE   H4S18743   0.713   4.347   2.657 -1.2024 -0.1930 -0.6370
  167SAPE   C2518744   0.547   4.489   2.682  0.1823 -0.2964 -0.0954
  167SAPE   H5R18745   0.465   4.538   2.627  0.7373  1.3908  0.5141
  167SAPE   C2618746   0.550   4.496   2.819  0.0189  0.3403  0.0086
  167SAPE   H6R18747   0.468   4.542   2.876  1.7192  1.4362  1.6928
  167SAPE   C2718748   0.662   4.450   2.906  0.4673 -0.1486 -0.1569
  167SAPE   H7R18749   0.756   4.436   2.849  0.9405 -1.5902  0.8920
  167SAPE   H7S18750   0.643   4.348   2.947  2.8362 -0.9219 -0.8698
  167SAPE   C2818751   0.692   4.551   3.012  0.2784 -0.2949 -0.2488
  167SAPE   H8R18752   0.764   4.629   2.987  0.1485 -0.2282 -0.4121
  167SAPE   C2918753   0.645   4.555   3.142 -0.0732  0.1008  0.5654
  167SAPE   H9R18754   0.689   4.629   3.211 -1.9911  0.4596  1.4593
  167SAPE  C21018755   0.563   4.446   3.198 -0.0774  1.0699 -0.0697
  167SAPE  H10R18756   0.631   4.359   3.189  0.5059  1.5053  0.0519
  167SAPE  H10S18757   0.475   4.421   3.135 -0.5676  0.6499  0.7662
  167SAPE  C21118758   0.520   4.477   3.340 -0.0017 -0.3337  0.5517
  167SAPE  H11R18759   0.462   4.570   3.348  1.3541  0.9385 -2.6781
  167SAPE  C21218760   0.528   4.389   3.442  0.6636 -0.4499  0.2889
  167SAPE  H12R18761   0.477   4.420   3.534 -1.5448 -0.2666 -0.9264
  167SAPE  C21318762   0.593   4.255   3.438  0.2475  0.0507  0.2649
  167SAPE  H13R18763   0.693   4.257   3.388  0.3356 -3.0918  0.1022
  167SAPE  H13S18764   0.544   4.190   3.362  1.0525  0.7323 -0.8866
  167SAPE  C21418765   0.610   4.194   3.574  0.0416 -0.4089  0.0731
  167SAPE  H14R18766   0.567   4.243   3.663  3.7906  0.0487  1.8165
  167SAPE  C21518767   0.673   4.081   3.598 -0.0379  0.2657  0.1574
  167SAPE  H15R18768   0.697   4.047   3.700 -2.5289  1.3218  1.1741
  167SAPE  C21618769   0.723   3.998   3.484 -0.3650  0.0278  0.1902
  167SAPE  H16R18770   0.699   4.045   3.386 -1.2066  0.4225  0.5789
  167SAPE  H16S18771   0.675   3.898   3.494 -0.2201  0.0573  1.2864
  167SAPE  C21718772   0.873   3.986   3.476  0.8742 -0.4534 -0.2622
  167SAPE  H17R18773   0.908   4.092   3.472 -1.8086  0.5224  0.0640
  167SAPE  H17S18774   0.907   3.930   3.386  0.2989 -0.1374 -0.6800
  167SAPE  C21818775   0.940   3.918   3.600  0.1584  0.0570 -0.2561
  167SAPE  H18R18776   0.897   3.815   3.599  1.3962 -0.5243 -2.8328
  167SAPE  H18S18777   0.892   3.964   3.689 -2.5387  1.6051 -2.3714
  167SAPE  C21918778   1.090   3.927   3.613 -0.2589  0.0013  0.7658
  167SAPE  H19R18779   1.120   4.033   3.628 -0.9756  0.2811  0.2345
  167SAPE  H19S18780   1.140   3.900   3.518  2.3680 -0.5002  2.1712
  167SAPE  C22018781   1.148   3.844   3.730 -0.0026  0.0452  0.5996
  167SAPE  H20R18782   1.135   3.739   3.695  2.7581  0.5164 -2.2582
  167SAPE  H20S18783   1.105   3.857   3.832 -0.3864  3.3128  0.1346
  167SAPE  H20T18784   1.258   3.856   3.732 -0.0362  0.2792  1.8598
  167SAPE   C3318785   0.981   4.796   2.715  0.3667  0.1694 -0.3888
  167SAPE   H3X18786   0.946   4.899   2.736  0.2288 -0.0110  0.2861
  167SAPE   H3Y18787   1.084   4.778   2.679  0.5140  1.2029 -0.5023
  167SAPE   C3418788   0.977   4.741   2.853  0.1366 -0.3091 -0.1702
  167SAPE   H4X18789   0.959   4.632   2.846 -0.8561 -0.0983 -1.2229
  167SAPE   H4Y18790   0.893   4.783   2.913 -0.1548 -1.4288  0.2334
  167SAPE   C3518791   1.103   4.770   2.933 -0.7589 -0.0602 -1.0729
  167SAPE   H5X18792   1.121   4.879   2.949  1.7223 -0.1706 -2.6481
  167SAPE   H5Y18793   1.190   4.744   2.870  0.3442  2.5475 -0.7504
  167SAPE   C3618794   1.105   4.695   3.069 -0.2267 -0.3106  0.2960
  167SAPE   H6X18795   1.209   4.681   3.105  1.0717  0.8237 -2.6631
  167SAPE   H6Y18796   1.047   4.600   3.069  0.8850 -1.0413  1.8851
  167SAPE   C3718797   1.047   4.796   3.173 -0.5751  0.6476  0.1723
  167SAPE   H7X18798   0.961   4.855   3.135 -1.7733 -0.8561  0.4693
  167SAPE   H7Y18799   1.127   4.867   3.204 -2.2519  2.2458  1.0342
  167SAPE   C3818800   0.989   4.718   3.295  0.1374 -0.1485  0.4139
  167SAPE   H8X18801   1.064   4.650   3.342 -0.7233 -0.8250  0.8473
  167SAPE   H8Y18802   0.913   4.650   3.251  0.0728  0.5127 -0.5217
  167SAPE   C3918803   0.943   4.823   3.395  0.3769 -0.9401 -0.0891
  167SAPE   H9X18804   0.912   4.914   3.339  2.4704 -0.7762 -1.0931
  167SAPE   H9Y18805   1.030   4.855   3.456  0.5553 -0.4826 -0.5733
  167SAPE  C31018806   0.839   4.778   3.497 -0.0901 -0.3190 -0.0859
  167SAPE  H10X18807   0.743   4.823   3.463 -0.0114  1.3961  1.7455
  167SAPE  H10Y18808   0.856   4.842   3.587 -0.9448  0.0057 -0.1459
  167SAPE  C31118809   0.844   4.633   3.547 -0.2325  0.8205  0.4125
  167SAPE  H11X18810   0.945   4.606   3.582 -0.6560 -1.6747 -0.1042
  167SAPE  H11Y18811   0.832   4.568   3.458  0.1954  0.2503  0.7672
  167SAPE  C31218812   0.733   4.591   3.648 -0.3242  0.2010 -0.0228
  167SAPE  H12X18813   0.750   4.485   3.676  2.1473  0.0914 -1.6128
  167SAPE  H12Y18814   0.632   4.602   3.604 -0.4533 -0.0530  0.2102
  167SAPE  C31318815   0.718   4.682   3.770  0.8238  0.2941  0.0844
  167SAPE  H13X18816   0.680   4.780   3.733 -0.4014  1.1456  3.3042
  167SAPE  H13Y18817   0.817   4.686   3.821  1.4362 -0.4107 -1.0042
  167SAPE  C31418818   0.616   4.618   3.867  0.5665  0.6157 -0.1745
  167SAPE  H14X18819   0.676   4.537   3.916  2.3731  0.5187 -2.3812
  167SAPE  H14Y18820   0.539   4.560   3.813 -0.2497  0.6697  0.9018
  167SAPE  C31518821   0.543   4.705   3.969 -0.0538 -0.4688 -0.5168
  167SAPE  H15X18822   0.618   4.762   4.028 -0.1154  0.8981 -1.7190
  167SAPE  H15Y18823   0.496   4.630   4.036  0.6584 -2.3097 -1.9860
  167SAPE  C31618824   0.444   4.811   3.906 -0.5081  0.9700 -0.2781
  167SAPE  H16X18825   0.366   4.757   3.848  0.2469 -0.5886  0.1090
  167SAPE  H16Y18826   0.505   4.875   3.838 -0.9362  1.3515 -0.3060
  167SAPE  C31718827   0.378   4.897   4.017 -0.5423  0.3632  0.0491
  167SAPE  H17X18828   0.451   4.940   4.089 -1.0156  0.2206  0.6205
  167SAPE  H17Y18829   0.320   4.821   4.074  1.7362 -0.5896  1.2353
  167SAPE  C31818830   0.279   4.993   3.952 -0.0795 -0.5505 -1.2037
  167SAPE  H18X18831   0.209   4.948   3.878 -0.3807 -0.8856 -0.7275
  167SAPE  H18Y18832   0.332   5.074   3.898  0.0441 -1.2806 -2.2196
  167SAPE  H18Z18833   0.212   5.049   4.021  1.1117  0.3700 -0.7582
  168SAPE     N18834   2.314   1.042   1.416  0.1747 -0.3317 -0.1838
  168SAPE   HN118835   2.323   1.027   1.314 -0.2461 -0.1835 -0.2469
  168SAPE   HN218836   2.404   1.082   1.450  2.0484 -3.1541 -1.4623
  168SAPE   HN318837   2.292   0.958   1.474  0.1890  0.2072  0.6184
  168SAPE   C1218838   2.196   1.137   1.437  0.6490  0.3240 -0.3495
  168SAPE  H12A18839   2.115   1.097   1.373  1.8202 -0.3298 -1.4814
  168SAPE  H12B18840   2.230   1.234   1.395  1.9199  0.8708  1.7622
  168SAPE   C1118841   2.158   1.159   1.592  0.3472  0.3920 -0.0996
  168SAPE  H11A18842   2.088   1.244   1.610  0.8122  0.5479  1.0569
  168SAPE  H11B18843   2.253   1.189   1.639  1.5835 -1.7914 -1.0525
  168SAPE     P18844   2.171   0.914   1.706  0.0903  0.1263 -0.2564
  168SAPE   O1318845   2.258   0.868   1.598 -0.5209 -0.0579  0.0661
  168SAPE   O1418846   2.224   0.926   1.846  0.6498 -0.2005 -0.0280
  168SAPE   O1218847   2.095   1.047   1.669 -0.5480 -0.3189  0.0220
  168SAPE   O1118848   2.057   0.812   1.706 -0.3379 -0.1182  0.2038
  168SAPE    C118849   1.965   0.792   1.817  0.2722 -0.4467  0.4069
  168SAPE    HA18850   1.938   0.887   1.868 -2.5499 -1.5151  1.0598
  168SAPE    HB18851   1.872   0.751   1.772  1.3983 -1.1855 -1.3610
  168SAPE    C218852   1.988   0.671   1.923  0.1816 -0.3814  0.0404
  168SAPE    HS18853   1.893   0.652   1.979 -1.0455  2.9551 -0.6773
  168SAPE   O2118854   2.107   0.693   2.011 -0.1929  0.1290  0.6027
  168SAPE   C2118855   2.070   0.785   2.098 -0.4037 -0.4554  0.0717
  168SAPE   O2218856   1.959   0.825   2.118  0.1032 -0.5461 -0.0812
  168SAPE   C2218857   2.188   0.839   2.169  0.5265 -0.3560  0.1320
  168SAPE   H2R18858   2.274   0.846   2.100 -0.3937 -0.7175 -1.0916
  168SAPE   H2S18859   2.153   0.938   2.205  1.5579 -0.3064  1.0589
  168SAPE    C318860   2.009   0.536   1.849  0.0759 -0.8686  0.3446
  168SAPE    HX18861   2.108   0.534   1.798  2.5269 -1.0086  4.5779
  168SAPE    HY18862   1.919   0.529   1.785 -0.7499  0.5406  1.3001
  168SAPE   O3118863   2.011   0.440   1.955  0.3918 -0.0901 -0.8496
  168SAPE   C3118864   2.039   0.319   1.923  0.0754  0.3410  0.9547
  168SAPE   O3218865   2.068   0.288   1.805 -0.1882 -0.3101 -0.1747
  168SAPE   C3218866   2.030   0.221   2.037 -0.6791 -0.4283 -0.1541
  168SAPE   H2X18867   2.132   0.181   2.054 -0.8050 -0.4192  0.6176
  168SAPE   H2Y18868   1.977   0.131   2.000  0.3196 -0.8914 -0.5009
  168SAPE   C2318869   2.238   0.748   2.290 -0.0602 -0.7588  0.6179
  168SAPE   H3R18870   2.314   0.805   2.347  0.3225 -0.1851 -0.4328
  168SAPE   H3S18871   2.288   0.658   2.248  0.1627 -0.1203 -0.5360
  168SAPE   C2418872   2.129   0.706   2.379 -0.3581  0.0409 -0.6938
  168SAPE   H4R18873   2.171   0.638   2.456  2.0941  2.2074  0.0419
  168SAPE   H4S18874   2.047   0.650   2.331 -0.6343  0.3750 -0.6184
  168SAPE   C2518875   2.075   0.831   2.452  0.0252 -0.2092 -0.0555
  168SAPE   H5R18876   2.035   0.911   2.387 -2.3534 -2.2436 -1.2550
  168SAPE   C2618877   2.048   0.842   2.588 -0.3278 -0.1611  0.3538
  168SAPE   H6R18878   2.000   0.936   2.621  1.1662  0.5610  0.5615
  168SAPE   C2718879   2.067   0.730   2.685 -0.4410  0.2147 -0.4798
  168SAPE   H7R18880   2.173   0.739   2.717 -0.9529  2.5471  0.8392
  168SAPE   H7S18881   2.049   0.631   2.638  0.8663  0.3972 -1.4223
  168SAPE   C2818882   1.984   0.742   2.806 -0.0886 -0.0914 -0.1800
  168SAPE   H8R18883   1.895   0.806   2.800 -0.0504 -0.0980 -0.9436
  168SAPE   C2918884   1.983   0.653   2.909 -1.2930 -0.0490  0.2701
  168SAPE   H9R18885   1.919   0.675   2.996 -0.1113 -1.5674  1.5663
  168SAPE  C21018886   2.068   0.527   2.917 -0.2127 -0.0462  0.2696
  168SAPE  H10R18887   2.165   0.550   2.966 -0.9741 -2.4604  3.1940
  168SAPE  H10S18888   2.097   0.481   2.820 -1.0132  0.0468 -0.0223
  168SAPE  C21118889   2.011   0.400   2.991  0.4934 -0.2656  0.3097
  168SAPE  H11R18890   1.947   0.329   2.937  1.1235 -0.9573  0.4501
  168SAPE  C21218891   2.017   0.381   3.126 -0.4625  0.8715 -0.1477
  168SAPE  H12R18892   1.972   0.300   3.185 -0.0943  1.0018  0.3219
  168SAPE  C21318893   2.076   0.475   3.231  0.2747 -0.9184  0.3501
  168SAPE  H13R18894   2.139   0.554   3.184  0.1897 -1.8901 -1.5029
  168SAPE  H13S18895   2.145   0.421   3.299 -1.9292 -3.0142  1.0760
  168SAPE  C21418896   1.970   0.548   3.312  0.4224  0.2177 -0.1134
  168SAPE  H14R18897   1.896   0.599   3.249 -0.5129  0.4921  1.1569
  168SAPE  C21518898   1.948   0.541   3.449 -0.9376 -0.6461  0.4292
  168SAPE  H15R18899   1.873   0.597   3.506 -1.5720 -0.7428 -0.3046
  168SAPE  C21618900   2.033   0.465   3.547  0.2494  0.2476 -0.1757
  168SAPE  H16R18901   2.059   0.537   3.627  1.4311  0.4122 -0.6895
  168SAPE  H16S18902   2.133   0.435   3.507 -0.3220 -1.1035 -0.6435
  168SAPE  C21718903   1.973   0.345   3.611  0.4742  0.9647  0.1230
  168SAPE  H17R18904   1.904   0.373   3.693 -0.2988 -1.5190  0.4160
  168SAPE  H17S18905   2.059   0.289   3.654 -0.1986 -1.0872 -1.0772
  168SAPE  C21818906   1.903   0.246   3.512 -0.4567  0.1201  0.1344
  168SAPE  H18R18907   1.944   0.226   3.411 -1.8749  0.2676 -0.5039
  168SAPE  H18S18908   1.808   0.295   3.482  0.4226  0.7729 -1.7638
  168SAPE  C21918909   1.868   0.104   3.572 -0.4059 -0.1078  0.2921
  168SAPE  H19R18910   1.827   0.129   3.673  0.3661 -1.3788  0.9444
  168SAPE  H19S18911   1.961   0.044   3.584  1.4480  2.6933  1.0338
  168SAPE  C22018912   1.772   0.026   3.492 -0.5259 -0.2998 -0.0228
  168SAPE  H20R18913   1.763  -0.080   3.524  1.6211  0.5140  3.8872
  168SAPE  H20S18914   1.798   0.032   3.384 -0.5572 -0.2694 -0.0284
  168SAPE  H20T18915   1.670   0.067   3.502  0.2438  1.8218 -0.3305
  168SAPE   C3318916   1.986   0.279   2.169 -0.6967 -0.5601 -0.6549
  168SAPE   H3X18917   1.887   0.327   2.153 -1.2177 -1.7623 -1.1839
  168SAPE   H3Y18918   2.056   0.359   2.200  0.6666 -1.1679 -2.0371
  168SAPE   C3418919   1.981   0.172   2.275  0.1937  0.6310  0.0608
  168SAPE   H4X18920   2.080   0.122   2.282  0.9342  2.0079 -0.3281
  168SAPE   H4Y18921   1.906   0.100   2.236 -0.9629  2.1156 -0.5789
  168SAPE   C3518922   1.915   0.219   2.412 -1.0217  0.2991 -0.0338
  168SAPE   H5X18923   1.807   0.243   2.401 -1.3138 -1.4458 -1.3987
  168SAPE   H5Y18924   1.975   0.295   2.466  0.7031  0.2995 -1.8352
  168SAPE   C3618925   1.921   0.100   2.508  0.4090 -0.0348 -0.1595
  168SAPE   H6X18926   2.025   0.064   2.522  0.8018  0.6814 -1.1637
  168SAPE   H6Y18927   1.867   0.011   2.468 -2.0311  0.0729  2.5450
  168SAPE   C3718928   1.862   0.130   2.646 -0.2712  0.3010 -0.0270
  168SAPE   H7X18929   1.752   0.142   2.638 -0.0160  1.7840 -1.7880
  168SAPE   H7Y18930   1.897   0.228   2.686  0.7648 -0.1222  0.1536
  168SAPE   C3818931   1.903   0.019   2.745 -0.3388  0.4002  0.8153
  168SAPE   H8X18932   2.011  -0.003   2.757 -0.3720  1.5934  5.1351
  168SAPE   H8Y18933   1.851  -0.072   2.708 -1.5761  2.1402 -2.0462
  168SAPE   C3918934   1.862   0.044   2.891  0.3557 -0.0968  0.0140
  168SAPE   H9X18935   1.755   0.076   2.892  0.0915 -0.9949  0.8097
  168SAPE   H9Y18936   1.921   0.128   2.935 -1.2684  0.4470  1.2572
  168SAPE  C31018937   1.906  -0.085   2.971  0.6310  0.2422  0.5211
  168SAPE  H10X18938   2.001  -0.125   2.929  1.4090 -2.9300  4.5305
  168SAPE  H10Y18939   1.823  -0.156   2.951  2.2070 -1.4480 -0.3441
  168SAPE  C31118940   1.919  -0.080   3.128  0.6464 -0.5062  0.5478
  168SAPE  H11X18941   1.825  -0.059   3.184  0.0232  0.4939 -0.8248
  168SAPE  H11Y18942   1.975   0.013   3.152  0.7881 -0.3282 -0.4194
  168SAPE  C31218943   1.976  -0.211   3.179 -0.0596  0.0701 -0.1266
  168SAPE  H12X18944   2.071  -0.218   3.123 -0.3755 -0.6167 -0.5986
  168SAPE  H12Y18945   1.913  -0.297   3.147 -0.7879 -0.1094  1.6672
  168SAPE  C31318946   1.988  -0.215   3.329 -0.3462  0.5994 -0.4795
  168SAPE  H13X18947   1.892  -0.185   3.376  0.5651 -0.4510  2.2501
  168SAPE  H13Y18948   2.064  -0.139   3.359  1.2815 -1.1358 -0.0613
  168SAPE  C31418949   2.027  -0.355   3.381  0.2654  0.0737  0.7925
  168SAPE  H14X18950   2.125  -0.388   3.342  1.0742  2.0349  1.0557
  168SAPE  H14Y18951   1.958  -0.430   3.336  1.3851 -0.0901 -0.7463
  168SAPE  C31518952   2.040  -0.359   3.533  0.0196  0.4182 -0.1553
  168SAPE  H15X18953   1.956  -0.296   3.568 -2.1160 -1.7715 -1.0649
  168SAPE  H15Y18954   2.138  -0.311   3.558  1.0894 -0.4386 -2.4119
  168SAPE  C31618955   2.035  -0.492   3.597 -0.2970  0.2739  0.1945
  168SAPE  H16X18956   2.092  -0.570   3.542 -0.7889 -1.2775  1.7925
  168SAPE  H16Y18957   1.927  -0.517   3.594 -0.3193  0.2751  0.9962
  168SAPE  C31718958   2.078  -0.491   3.747  0.1377 -0.1433  0.1526
  168SAPE  H17X18959   2.020  -0.403   3.784 -0.0695 -0.3992  0.4433
  168SAPE  H17Y18960   2.188  -0.477   3.754  0.0253  1.3946 -0.7406
  168SAPE  C31818961   2.024  -0.610   3.825  0.2824  0.0385  0.0904
  168SAPE  H18X18962   2.033  -0.597   3.935 -0.1469  1.8615 -0.0456
  168SAPE  H18Y18963   2.086  -0.697   3.797  0.7374  0.5818 -0.6321
  168SAPE  H18Z18964   1.919  -0.635   3.800  0.4635  0.5140 -1.1938
  169SAPE     N18965   7.131   4.779   1.851 -0.0231  0.5617  0.5235
  169SAPE   HN118966   7.177   4.720   1.779 -0.9556 -0.6861  0.9249
  169SAPE   HN218967   7.037   4.737   1.864  0.2103  0.1325  0.8357
  169SAPE   HN318968   7.114   4.876   1.817  1.5318  0.0079 -2.0892
  169SAPE   C1218969   7.201   4.767   1.981  0.9192 -0.3941 -0.4500
  169SAPE  H12A18970   7.126   4.806   2.053  0.5376 -0.4835 -0.7963
  169SAPE  H12B18971   7.299   4.820   1.986  1.9775 -2.0615 -2.3421
  169SAPE   C1118972   7.227   4.624   2.028 -0.6704 -0.6898  0.4223
  169SAPE  H11A18973   7.263   4.627   2.133  0.9813  1.9592 -0.1239
  169SAPE  H11B18974   7.313   4.585   1.970 -0.5829  2.0220 -1.4440
  169SAPE     P18975   7.076   4.413   2.046  0.2804 -0.2974 -0.4477
  169SAPE   O1318976   6.932   4.381   2.004  0.1855 -0.4637  0.1851
  169SAPE   O1418977   7.183   4.346   1.969  0.4352  0.0855 -0.2106
  169SAPE   O1218978   7.099   4.564   2.024  0.0464  0.4295 -0.5640
  169SAPE   O1118979   7.101   4.395   2.204 -0.1350  0.4615  0.1883
  169SAPE    C118980   6.987   4.357   2.287 -0.2138  0.8950 -0.1502
  169SAPE    HA18981   6.933   4.271   2.243  0.1563  0.1151  0.8801
  169SAPE    HB18982   7.034   4.309   2.376 -0.3167  1.7227  0.3600
  169SAPE    C218983   6.907   4.480   2.336  0.3367 -0.2331  1.1171
  169SAPE    HS18984   6.867   4.536   2.249  0.6332  0.1524  1.2262
  169SAPE   O2118985   6.998   4.560   2.405 -0.5256  1.2265 -0.2501
  169SAPE   C2118986   7.026   4.671   2.361 -0.6694 -0.8638 -0.0977
  169SAPE   O2218987   6.973   4.734   2.269 -0.2702  0.8129  0.2830
  169SAPE   C2218988   7.150   4.725   2.451  0.3347 -0.4741 -0.6806
  169SAPE   H2R18989   7.119   4.709   2.557  2.2110  0.8665  0.1159
  169SAPE   H2S18990   7.233   4.652   2.436  2.5472  1.2914  1.8904
  169SAPE    C318991   6.787   4.432   2.433 -0.4917 -1.7150  0.2671
  169SAPE    HX18992   6.712   4.387   2.364  1.3854 -3.4551 -0.7619
  169SAPE    HY18993   6.742   4.515   2.491  0.7632  0.4480 -1.6969
  169SAPE   O3118994   6.841   4.337   2.533 -0.4309 -0.1685  0.6305
  169SAPE   C3118995   6.896   4.390   2.640  0.4432 -0.1255 -0.3387
  169SAPE   O3218996   6.870   4.502   2.683  0.2194  0.4483  0.4772
  169SAPE   C3218997   6.984   4.287   2.712  0.7189  0.0224 -0.0452
  169SAPE   H2X18998   6.917   4.198   2.717 -0.7484  1.0169 -1.2122
  169SAPE   H2Y18999   7.012   4.332   2.810 -1.5885 -0.6776  1.0108
  169SAPE   C2319000   7.195   4.857   2.429 -0.0894 -0.6439 -0.2024
  169SAPE   H3R19001   7.110   4.924   2.453  0.0344 -0.5894  0.0920
  169SAPE   H3S19002   7.213   4.861   2.320 -1.3528 -0.2235 -0.4168
  169SAPE   C2419003   7.318   4.917   2.503 -0.6280  0.1286 -0.1054
  169SAPE   H4R19004   7.300   4.931   2.612  2.4017  4.1211  0.0898
  169SAPE   H4S19005   7.338   5.016   2.457 -1.9393  1.8213  2.6826
  169SAPE   C2519006   7.447   4.841   2.478 -0.1772  0.4954 -0.0407
  169SAPE   H5R19007   7.438   4.766   2.398 -1.9568 -0.5334  1.0568
  169SAPE   C2619008   7.556   4.844   2.550 -0.3796 -0.4058  0.1074
  169SAPE   H6R19009   7.641   4.779   2.523 -0.4106 -0.0898 -0.7910
  169SAPE   C2719010   7.574   4.930   2.671 -0.5872  0.2608 -0.6900
  169SAPE   H7R19011   7.481   4.949   2.728 -0.9129 -0.4811 -0.9527
  169SAPE   H7S19012   7.599   5.033   2.638 -0.1364  0.5442  0.4760
  169SAPE   C2819013   7.687   4.889   2.764  0.1536  0.5614  1.1546
  169SAPE   H8R19014   7.738   4.803   2.718 -0.0265  0.8170  0.4611
  169SAPE   C2919015   7.707   4.943   2.882  1.1039  0.0952  0.2803
  169SAPE   H9R19016   7.776   4.892   2.950 -0.0770 -3.2090 -0.8100
  169SAPE  C21019017   7.620   5.050   2.941 -0.1260 -0.0984  0.6171
  169SAPE  H10R19018   7.518   5.012   2.960 -0.7828  0.2254 -1.9893
  169SAPE  H10S19019   7.607   5.131   2.866  3.8731  0.0375 -0.1551
  169SAPE  C21119020   7.686   5.123   3.055 -0.4028  0.4339  0.2312
  169SAPE  H11R19021   7.763   5.198   3.032  1.3726 -2.2356 -3.6682
  169SAPE  C21219022   7.664   5.078   3.182  0.1357  0.3883 -0.5571
  169SAPE  H12R19023   7.681   5.151   3.262 -0.8749 -1.9638  1.9591
  169SAPE  C21319024   7.564   4.967   3.228  0.2272  0.1823  0.4048
  169SAPE  H13R19025   7.560   4.890   3.149 -1.4468 -1.1324  1.6936
  169SAPE  H13S19026   7.464   5.013   3.239  0.4948  0.4841  1.9085
  169SAPE  C21419027   7.622   4.904   3.347  0.7442  0.2685 -0.3999
  169SAPE  H14R19028   7.726   4.868   3.336  0.3392 -0.4944 -2.0979
  169SAPE  C21519029   7.572   4.891   3.475 -0.4806 -0.4170 -0.0150
  169SAPE  H15R19030   7.618   4.823   3.549  0.8877  0.1082 -0.3532
  169SAPE  C21619031   7.438   4.948   3.512  0.1995 -0.6750  0.6504
  169SAPE  H16R19032   7.430   5.036   3.445  0.2575 -1.3323 -0.2342
  169SAPE  H16S19033   7.426   4.995   3.613  0.3454  0.5382  0.1248
  169SAPE  C21719034   7.324   4.858   3.486 -0.3317 -1.4781  0.1138
  169SAPE  H17R19035   7.321   4.824   3.380 -1.3460 -1.0739  0.0010
  169SAPE  H17S19036   7.242   4.930   3.508 -0.0462 -0.6427 -1.3741
  169SAPE  C21819037   7.320   4.728   3.569  0.2615 -0.4477 -0.2247
  169SAPE  H18R19038   7.337   4.749   3.677 -2.6178  2.0335 -0.0987
  169SAPE  H18S19039   7.404   4.664   3.536  0.6300 -0.0596 -0.0460
  169SAPE  C21919040   7.189   4.660   3.554 -0.2623  0.4031 -0.4919
  169SAPE  H19R19041   7.211   4.562   3.601 -1.2778 -0.2573 -1.3465
  169SAPE  H19S19042   7.174   4.643   3.445 -1.4591 -1.7238 -0.0531
  169SAPE  C22019043   7.076   4.734   3.625 -0.4252  0.6149 -0.0265
  169SAPE  H20R19044   6.989   4.665   3.620  1.5571 -1.9794 -0.3481
  169SAPE  H20S19045   7.046   4.829   3.576 -0.9537 -0.5438 -2.0563
  169SAPE  H20T19046   7.095   4.743   3.734 -1.3862 -2.8856  0.5649
  169SAPE   C3319047   7.108   4.259   2.634  0.0074 -0.7082 -0.0626
  169SAPE   H3X19048   7.158   4.354   2.603 -1.0275 -0.1338 -0.0275
  169SAPE   H3Y19049   7.069   4.199   2.550  0.3243 -0.5671 -0.3127
  169SAPE   C3419050   7.204   4.160   2.702 -0.4453 -0.2791 -0.0643
  169SAPE   H4X19051   7.287   4.129   2.635 -0.3761 -1.2037  0.4297
  169SAPE   H4Y19052   7.141   4.071   2.725  3.0597 -3.0702 -0.3493
  169SAPE   C3519053   7.272   4.211   2.829 -0.5718 -0.0742  0.3401
  169SAPE   H5X19054   7.192   4.221   2.906 -1.3268 -2.8437  0.0449
  169SAPE   H5Y19055   7.316   4.312   2.818  0.4511 -0.4718  0.7134
  169SAPE   C3619056   7.376   4.124   2.883 -0.1374  0.3688  0.5531
  169SAPE   H6X19057   7.431   4.077   2.798 -0.4235 -0.1747  0.6657
  169SAPE   H6Y19058   7.333   4.044   2.947 -0.3778  0.2287  0.2186
  169SAPE   C3719059   7.472   4.200   2.970  0.0426  0.1287 -0.8590
  169SAPE   H7X19060   7.420   4.257   3.050 -0.3855 -0.2143 -0.8904
  169SAPE   H7Y19061   7.515   4.279   2.904 -1.0803  0.6575 -0.9947
  169SAPE   C3819062   7.587   4.102   3.020 -0.0010 -0.1462  0.3741
  169SAPE   H8X19063   7.671   4.160   3.065  1.2781 -1.9044  0.3501
  169SAPE   H8Y19064   7.625   4.043   2.934 -1.7409  1.2870 -1.4907
  169SAPE   C3919065   7.539   4.000   3.126  0.1525  0.6637  0.7211
  169SAPE   H9X19066   7.464   3.942   3.069  0.9465 -0.1589  0.5021
  169SAPE   H9Y19067   7.492   4.049   3.214  0.0209 -0.5030  1.3124
  169SAPE  C31019068   7.656   3.910   3.164  0.1659  0.2947  0.2955
  169SAPE  H10X19069   7.709   3.959   3.247 -3.0865 -1.9592  4.0856
  169SAPE  H10Y19070   7.729   3.879   3.086 -0.2767 -1.8801  0.6595
  169SAPE  C31119071   7.622   3.767   3.219 -0.0317 -0.3759  0.1664
  169SAPE  H11X19072   7.543   3.719   3.159  1.5974 -0.9457 -1.5991
  169SAPE  H11Y19073   7.573   3.778   3.318 -1.9307 -0.8092 -0.6869
  169SAPE  C31219074   7.738   3.663   3.221 -0.3177 -0.2953 -0.2675
  169SAPE  H12X19075   7.812   3.694   3.297 -1.2318 -0.1663  0.5957
  169SAPE  H12Y19076   7.776   3.655   3.117 -0.4559  0.4461 -0.3824
  169SAPE  C31319077   7.690   3.524   3.275 -0.2291 -0.7490 -0.1054
  169SAPE  H13X19078   7.580   3.513   3.264 -0.1058 -0.9132 -1.3723
  169SAPE  H13Y19079   7.710   3.510   3.383 -0.4411  0.8239  0.1545
  169SAPE  C31419080   7.776   3.414   3.210  0.3432  0.4494  0.1446
  169SAPE  H14X19081   7.761   3.314   3.257  0.6725  0.2597 -0.1430
  169SAPE  H14Y19082   7.884   3.442   3.208  0.6298 -0.6335 -0.8136
  169SAPE  C31519083   7.741   3.390   3.065  0.1548  0.2474 -1.0602
  169SAPE  H15X19084   7.822   3.342   3.006 -0.9674 -0.1387 -2.3445
  169SAPE  H15Y19085   7.740   3.492   3.019 -0.5388  1.3518  1.2514
  169SAPE  C31619086   7.611   3.314   3.036  1.0747 -0.3706  0.8464
  169SAPE  H16X19087   7.533   3.384   3.073  0.4205  0.1553 -1.3817
  169SAPE  H16Y19088   7.611   3.218   3.093  1.1263 -1.5863 -1.1176
  169SAPE  C31719089   7.595   3.305   2.883 -0.0903  0.1826 -0.8492
  169SAPE  H17X19090   7.678   3.239   2.850  0.8403  1.2688 -0.7281
  169SAPE  H17Y19091   7.613   3.397   2.823 -1.1464  1.5830  0.8793
  169SAPE  C31819092   7.455   3.252   2.855 -0.0208 -0.2896  0.0970
  169SAPE  H18X19093   7.378   3.331   2.859  1.9071  1.8654 -2.1744
  169SAPE  H18Y19094   7.426   3.161   2.913 -1.4014 -2.0789 -3.1431
  169SAPE  H18Z19095   7.438   3.218   2.750  1.2519 -1.7716  0.3207
  170SAPE     N19096   6.112   6.493   1.838  0.0255 -0.3799  0.1716
  170SAPE   HN119097   6.127   6.406   1.893 -1.1256 -0.4414  0.4207
  170SAPE   HN219098   6.010   6.516   1.830 -0.0201 -0.7277 -0.3179
  170SAPE   HN319099   6.147   6.474   1.742  3.1764 -0.1347  1.1590
  170SAPE   C1219100   6.179   6.597   1.920  0.2060  0.1179 -0.3878
  170SAPE  H12A19101   6.218   6.670   1.846 -1.6283  3.6769  1.8566
  170SAPE  H12B19102   6.260   6.544   1.974  0.7709 -0.8221 -2.0820
  170SAPE   C1119103   6.076   6.671   2.014  0.3347 -0.1608 -0.9066
  170SAPE  H11A19104   6.140   6.739   2.074  0.5389 -0.7349 -0.4705
  170SAPE  H11B19105   6.039   6.602   2.093  0.4425  1.0993  0.2951
  170SAPE     P19106   5.838   6.716   1.899 -0.1265 -0.7305  0.1594
  170SAPE   O1319107   5.785   6.803   1.791  0.1642  0.0774 -0.4212
  170SAPE   O1419108   5.848   6.575   1.865 -0.3456  0.4714 -0.2917
  170SAPE   O1219109   5.981   6.755   1.946  0.1075  0.1302 -0.1977
  170SAPE   O1119110   5.758   6.732   2.031  0.0557  0.2337  0.1477
  170SAPE    C119111   5.706   6.863   2.060  0.2387  0.3369  0.1604
  170SAPE    HA19112   5.639   6.887   1.975  0.9012 -1.5211 -0.9645
  170SAPE    HB19113   5.635   6.854   2.145 -2.4784  1.9670 -1.7890
  170SAPE    C219114   5.807   6.973   2.090 -0.3582 -0.2944 -0.0002
  170SAPE    HS19115   5.875   6.990   2.004 -0.7473 -1.5763 -0.5889
  170SAPE   O2119116   5.899   6.926   2.184 -0.3256 -0.5649 -0.0556
  170SAPE   C2119117   6.013   6.985   2.217 -0.2215  0.5815 -0.0761
  170SAPE   O2219118   6.049   7.092   2.167 -0.1938  0.4769  0.1482
  170SAPE   C2219119   6.080   6.918   2.339 -0.1788  0.7358  0.0313
  170SAPE   H2R19120   6.045   6.975   2.428  0.9662  0.5205  0.6329
  170SAPE   H2S19121   6.044   6.813   2.346 -1.2525  0.9927 -1.2600
  170SAPE    C319122   5.753   7.114   2.132 -0.3432  0.4859  0.0222
  170SAPE    HX19123   5.668   7.137   2.064  1.5743  1.3153 -2.1853
  170SAPE    HY19124   5.834   7.189   2.135  1.1704 -1.1219  1.2612
  170SAPE   O3119125   5.698   7.113   2.267  0.7468 -0.4673  0.3895
  170SAPE   C3119126   5.668   7.238   2.305 -0.2278  0.0546 -0.5620
  170SAPE   O3219127   5.667   7.336   2.233  0.2125  0.2857  0.4752
  170SAPE   C3219128   5.627   7.247   2.455  0.3892 -0.1710 -0.4530
  170SAPE   H2X19129   5.587   7.146   2.479 -2.9787  0.9329 -0.7783
  170SAPE   H2Y19130   5.543   7.321   2.457  0.1810 -0.4079  0.4640
  170SAPE   C2319131   6.230   6.917   2.324  0.2813 -0.5258  0.1099
  170SAPE   H3R19132   6.272   7.019   2.336  1.3224 -1.2675  4.3706
  170SAPE   H3S19133   6.256   6.870   2.227 -1.0978 -1.4596  0.1576
  170SAPE   C2419134   6.308   6.834   2.427 -0.2868  0.4177 -0.2227
  170SAPE   H4R19135   6.402   6.808   2.374 -0.0379  1.5668 -0.3746
  170SAPE   H4S19136   6.273   6.730   2.446  0.2601  0.3672  0.5246
  170SAPE   C2519137   6.337   6.892   2.564  0.6849  0.2789  0.7227
  170SAPE   H5R19138   6.435   6.940   2.583  1.2306 -0.9281  1.0496
  170SAPE   C2619139   6.256   6.887   2.663 -0.3179 -1.1349  0.4606
  170SAPE   H6R19140   6.288   6.925   2.761  2.0056 -1.3454 -0.1602
  170SAPE   C2719141   6.118   6.821   2.661 -0.1485  0.2658  0.5407
  170SAPE   H7R19142   6.120   6.725   2.718 -0.9229  1.4436  2.6749
  170SAPE   H7S19143   6.092   6.788   2.559  0.4054 -0.9056  0.7551
  170SAPE   C2819144   6.000   6.900   2.711  0.5487 -0.1479  0.1439
  170SAPE   H8R19145   5.940   6.937   2.627  0.7654 -1.9916 -0.8800
  170SAPE   C2919146   5.954   6.917   2.837 -0.2466  0.9619 -1.0635
  170SAPE   H9R19147   5.867   6.983   2.853 -0.3366  0.1987  2.0892
  170SAPE  C21019148   6.030   6.863   2.954 -0.5393  0.2632 -0.2287
  170SAPE  H10R19149   6.082   6.769   2.924 -0.0790  0.0921  1.0423
  170SAPE  H10S19150   5.952   6.834   3.027  1.2456 -0.0739  1.6298
  170SAPE  C21119151   6.123   6.974   3.006 -0.5169  0.2899 -0.0434
  170SAPE  H11R19152   6.220   6.988   2.956 -0.6832 -1.1706 -0.8396
  170SAPE  C21219153   6.089   7.050   3.111  0.0601  0.1707  0.3275
  170SAPE  H12R19154   6.165   7.109   3.164  1.6754 -1.4093 -0.1179
  170SAPE  C21319155   5.969   7.027   3.204  0.4771  0.1677 -0.7238
  170SAPE  H13R19156   5.876   7.008   3.147  0.1191  0.0715 -0.1159
  170SAPE  H13S19157   5.943   7.129   3.238 -0.1973  0.2156 -1.3455
  170SAPE  C21419158   5.988   6.914   3.301 -0.3696 -0.0049 -0.1466
  170SAPE  H14R19159   6.069   6.844   3.278 -0.0295  0.1265  0.6205
  170SAPE  C21519160   5.932   6.917   3.425 -0.2461 -0.5154  0.2473
  170SAPE  H15R19161   5.965   6.837   3.493  1.4941 -0.6725 -0.7258
  170SAPE  C21619162   5.822   7.012   3.471 -1.0707 -0.4363  0.0201
  170SAPE  H16R19163   5.726   6.968   3.437 -0.9113 -0.1625 -0.8040
  170SAPE  H16S19164   5.842   7.107   3.417 -2.7802  1.7632  2.9747
  170SAPE  C21719165   5.817   7.033   3.621  1.0117 -0.4012 -0.3442
  170SAPE  H17R19166   5.732   7.104   3.630  1.6778  0.4764 -0.8436
  170SAPE  H17S19167   5.909   7.076   3.665  0.5357 -0.9224  1.1989
  170SAPE  C21819168   5.768   6.907   3.702 -0.0324  0.6791 -0.1993
  170SAPE  H18R19169   5.821   6.823   3.653 -0.0004  0.1483  0.7167
  170SAPE  H18S19170   5.658   6.894   3.703  0.1912 -1.6494 -0.6872
  170SAPE  C21919171   5.811   6.915   3.848  0.2568  0.1740 -0.6386
  170SAPE  H19R19172   5.782   7.013   3.890  0.9577  0.7997 -1.5741
  170SAPE  H19S19173   5.922   6.911   3.852  0.4213  2.7153 -1.0098
  170SAPE  C22019174   5.758   6.793   3.937  0.1227  0.1587  0.6139
  170SAPE  H20R19175   5.786   6.696   3.891 -1.2178  0.2511 -0.4539
  170SAPE  H20S19176   5.647   6.786   3.931 -0.1822  0.5609  3.9235
  170SAPE  H20T19177   5.783   6.790   4.045  0.3530  1.3842  0.6100
  170SAPE   C3319178   5.719   7.304   2.569 -0.5501  0.1199  0.1922
  170SAPE   H3X19179   5.656   7.301   2.660 -0.4923  0.7110  0.2522
  170SAPE   H3Y19180   5.736   7.412   2.551  0.2797 -0.2113 -1.1781
  170SAPE   C3419181   5.836   7.215   2.605  0.2276  0.5975  0.1790
  170SAPE   H4X19182   5.889   7.168   2.519 -1.2078 -1.9324  0.6009
  170SAPE   H4Y19183   5.795   7.130   2.662 -1.5430  0.0873 -1.7409
  170SAPE   C3519184   5.942   7.289   2.692  0.3243  0.2780 -0.2588
  170SAPE   H5X19185   6.001   7.356   2.626  3.2004 -1.8749 -0.0679
  170SAPE   H5Y19186   6.037   7.243   2.727  0.1202 -0.0794 -0.1640
  170SAPE   C3619187   5.875   7.368   2.813  0.1092  0.3511 -0.4592
  170SAPE   H6X19188   5.793   7.437   2.782 -0.0183 -0.1534 -1.3046
  170SAPE   H6Y19189   5.960   7.415   2.865  1.9291  0.8262 -3.6013
  170SAPE   C3719190   5.804   7.264   2.898  0.3799 -0.3690 -0.5055
  170SAPE   H7X19191   5.854   7.165   2.889 -0.2489 -0.7093 -0.3450
  170SAPE   H7Y19192   5.699   7.251   2.866 -0.5029  2.1256  1.0474
  170SAPE   C3819193   5.806   7.288   3.051 -0.9369  0.7618 -0.1472
  170SAPE   H8X19194   5.909   7.285   3.091 -1.0185  1.9140  0.1964
  170SAPE   H8Y19195   5.745   7.202   3.086 -0.5833 -0.1631 -1.7295
  170SAPE   C3919196   5.739   7.417   3.098 -0.7079 -0.3862  0.1759
  170SAPE   H9X19197   5.649   7.423   3.033 -1.1363  2.4837  0.9015
  170SAPE   H9Y19198   5.813   7.499   3.084 -1.8374  0.5665 -0.3785
  170SAPE  C31019199   5.691   7.425   3.251 -0.0447 -0.4899 -0.1589
  170SAPE  H10X19200   5.769   7.470   3.316 -0.7613  2.6880 -1.3048
  170SAPE  H10Y19201   5.664   7.322   3.280 -0.1390  0.2875  2.8678
  170SAPE  C31119202   5.556   7.505   3.254  0.1859 -0.2570 -0.1136
  170SAPE  H11X19203   5.483   7.461   3.183 -1.3621  1.5067  0.2954
  170SAPE  H11Y19204   5.564   7.604   3.205  0.7254 -0.7522 -1.0573
  170SAPE  C31219205   5.501   7.515   3.394 -0.1293 -0.3406  0.6814
  170SAPE  H12X19206   5.403   7.566   3.384  0.0199 -0.4941 -2.8175
  170SAPE  H12Y19207   5.569   7.575   3.458 -1.5606  1.2046  0.8359
  170SAPE  C31319208   5.489   7.380   3.468 -0.0013  0.0608  0.1943
  170SAPE  H13X19209   5.593   7.352   3.497  0.3059  1.3292  0.3790
  170SAPE  H13Y19210   5.449   7.295   3.409 -0.0235 -0.2314  0.6244
  170SAPE  C31419211   5.406   7.410   3.594 -0.0940 -0.6688 -0.7071
  170SAPE  H14X19212   5.448   7.501   3.641 -0.0490 -1.1332  0.1726
  170SAPE  H14Y19213   5.415   7.328   3.669  0.5746  0.4231  0.4195
  170SAPE  C31519214   5.257   7.436   3.570  0.4087  0.2327 -0.2546
  170SAPE  H15X19215   5.203   7.343   3.542 -1.4723  0.4869  2.1521
  170SAPE  H15Y19216   5.234   7.526   3.509  0.4690  1.6711  1.7075
  170SAPE  C31619217   5.173   7.462   3.706 -0.9042 -0.5235  0.5469
  170SAPE  H16X19218   5.100   7.545   3.692  0.2747  0.5250  0.4231
  170SAPE  H16Y19219   5.250   7.475   3.785 -1.2355  1.7211  0.5607
  170SAPE  C31719220   5.092   7.340   3.748  0.2003 -0.0001  0.4728
  170SAPE  H17X19221   5.148   7.244   3.743  1.9054  0.9664  0.2971
  170SAPE  H17Y19222   5.012   7.331   3.671 -1.3608  2.2337  1.7240
  170SAPE  C31819223   5.032   7.359   3.891  0.2750 -0.6289 -0.2552
  170SAPE  H18X19224   4.977   7.455   3.895 -0.9815 -1.3405  0.0081
  170SAPE  H18Y19225   5.115   7.364   3.965  0.5209 -0.4336 -0.5410
  170SAPE  H18Z19226   4.963   7.281   3.928  2.4569 -1.3498  2.6772
  171SAPE     N19227   0.982   5.077   1.801 -0.2458  0.5299 -0.0441
  171SAPE   HN119228   0.994   4.997   1.867  0.7764 -0.6000 -1.5334
  171SAPE   HN219229   0.880   5.080   1.778  0.0358 -0.3062 -1.5372
  171SAPE   HN319230   1.041   5.059   1.717  0.1104  0.9323  0.1188
  171SAPE   C1219231   1.023   5.203   1.866 -0.7723 -0.1940  0.3676
  171SAPE  H12A19232   1.038   5.270   1.778  0.3080 -2.4613 -1.2950
  171SAPE  H12B19233   1.120   5.180   1.915  0.1125  1.9008 -0.3236
  171SAPE   C1119234   0.927   5.266   1.969  0.3799 -0.8664 -0.3124
  171SAPE  H11A19235   0.977   5.343   2.031  0.0265  0.2527 -1.3924
  171SAPE  H11B19236   0.909   5.182   2.040  0.9158  0.7083  1.7735
  171SAPE     P19237   0.791   5.475   1.881 -0.0620 -0.1459 -0.3348
  171SAPE   O1319238   0.908   5.520   1.803 -0.0910  0.6027 -0.1909
  171SAPE   O1419239   0.658   5.501   1.825 -0.0350 -0.6894  0.3464
  171SAPE   O1219240   0.802   5.317   1.925 -0.0873 -0.2079  0.2451
  171SAPE   O1119241   0.794   5.539   2.026 -0.0895  0.0546  0.0391
  171SAPE    C119242   0.701   5.496   2.127 -0.5513 -0.0340 -0.3896
  171SAPE    HA19243   0.597   5.488   2.089 -0.7983 -0.2399  0.3117
  171SAPE    HB19244   0.725   5.396   2.168 -1.1929  1.0727  3.0043
  171SAPE    C219245   0.690   5.605   2.231  0.0940  0.3755 -0.2751
  171SAPE    HS19246   0.677   5.703   2.181 -0.7803  0.0599 -0.6859
  171SAPE   O2119247   0.813   5.593   2.302 -0.0234 -0.5578  0.1286
  171SAPE   C2119248   0.852   5.710   2.355 -0.1150 -0.2107 -0.3495
  171SAPE   O2219249   0.791   5.818   2.349  0.3797 -0.3858  0.0296
  171SAPE   C2219250   0.976   5.685   2.443 -0.1448  0.0001  0.0400
  171SAPE   H2R19251   1.060   5.656   2.376  1.7086 -0.1760  2.3030
  171SAPE   H2S19252   0.994   5.780   2.499 -1.2043  0.3888 -0.2622
  171SAPE    C319253   0.565   5.588   2.323  0.4459 -0.5152  0.0497
  171SAPE    HX19254   0.466   5.610   2.276 -0.7612 -1.5383  1.9822
  171SAPE    HY19255   0.568   5.680   2.385 -0.1566 -1.6591  1.8573
  171SAPE   O3119256   0.551   5.475   2.410 -0.4883 -0.6825  0.9788
  171SAPE   C3119257   0.474   5.380   2.372 -0.2920 -0.5449  0.1109
  171SAPE   O3219258   0.412   5.377   2.265 -0.0999 -0.3583 -0.5089
  171SAPE   C3219259   0.479   5.262   2.470 -1.2146  0.1857 -0.2012
  171SAPE   H2X19260   0.381   5.211   2.456 -1.6425  1.2099 -1.1720
  171SAPE   H2Y19261   0.490   5.294   2.576  0.7252 -2.8132  0.6274
  171SAPE   C2319262   0.968   5.565   2.548  0.5597  0.0540 -0.2101
  171SAPE   H3R19263   0.995   5.465   2.506 -0.4649 -0.5319  0.4986
  171SAPE   H3S19264   0.876   5.569   2.609  1.0703  0.9699  0.5242
  171SAPE   C2419265   1.071   5.596   2.656 -0.6335 -0.2595 -0.1735
  171SAPE   H4R19266   1.054   5.529   2.744  1.0929 -1.1524 -0.4672
  171SAPE   H4S19267   1.053   5.698   2.695  0.0173 -0.0229 -0.4788
  171SAPE   C2519268   1.211   5.584   2.599  0.2646  0.5075 -0.1512
  171SAPE   H5R19269   1.225   5.631   2.501 -1.6493  1.6489  0.0790
  171SAPE   C2619270   1.314   5.539   2.672 -0.4735  0.1257  0.2349
  171SAPE   H6R19271   1.411   5.545   2.621  0.3448  0.2441  1.7223
  171SAPE   C2719272   1.302   5.504   2.820 -0.2748 -0.9848  0.2218
  171SAPE   H7R19273   1.232   5.419   2.829  0.8423 -2.0096 -0.5549
  171SAPE   H7S19274   1.266   5.594   2.874 -0.1684 -1.3151  0.8592
  171SAPE   C2819275   1.435   5.447   2.880  0.2366 -0.8651  0.5244
  171SAPE   H8R19276   1.521   5.434   2.812  0.9378 -1.1765  1.4473
  171SAPE   C2919277   1.445   5.419   3.014  0.9841  0.5362  0.0059
  171SAPE   H9R19278   1.533   5.369   3.056 -1.2355 -1.6154  2.5145
  171SAPE  C21019279   1.339   5.431   3.120 -0.4008  0.2452  0.3666
  171SAPE  H10R19280   1.296   5.332   3.146 -1.0205 -0.0984 -1.8010
  171SAPE  H10S19281   1.256   5.493   3.080 -0.7308  0.1690  0.9250
  171SAPE  C21119282   1.403   5.492   3.238  0.5216 -0.1625 -0.3771
  171SAPE  H11R19283   1.501   5.539   3.221  0.9785 -0.1352  2.0752
  171SAPE  C21219284   1.342   5.509   3.359 -0.4233 -0.0274 -0.0326
  171SAPE  H12R19285   1.400   5.565   3.434 -1.2158 -1.2916  1.5892
  171SAPE  C21319286   1.207   5.446   3.395  0.9067 -0.7611  0.1854
  171SAPE  H13R19287   1.203   5.338   3.369 -3.3187 -1.1570  1.6863
  171SAPE  H13S19288   1.128   5.479   3.324  0.2145 -1.0184  0.8199
  171SAPE  C21419289   1.158   5.467   3.531 -0.6560 -0.1271 -0.8009
  171SAPE  H14R19290   1.102   5.559   3.551  0.3541  0.6366 -1.4497
  171SAPE  C21519291   1.181   5.393   3.639 -0.9328 -0.3556  0.0317
  171SAPE  H15R19292   1.153   5.434   3.737  2.2245 -0.5664  1.1252
  171SAPE  C21619293   1.262   5.264   3.648 -0.3305  0.0442 -0.3616
  171SAPE  H16R19294   1.344   5.260   3.722  0.3097 -0.1145 -1.0618
  171SAPE  H16S19295   1.305   5.228   3.552  2.6327 -1.1619  1.2806
  171SAPE  C21719296   1.165   5.153   3.708 -0.0734 -0.0750 -0.8006
  171SAPE  H17R19297   1.093   5.114   3.633 -1.5307  0.4967  0.2661
  171SAPE  H17S19298   1.096   5.196   3.783  0.6119  2.7800 -1.6890
  171SAPE  C21819299   1.239   5.025   3.768 -0.9831 -0.1838 -0.1197
  171SAPE  H18R19300   1.294   5.067   3.855 -1.0704 -1.5929  0.6389
  171SAPE  H18S19301   1.309   4.994   3.687 -1.9218 -0.4268 -0.8684
  171SAPE  C21919302   1.152   4.901   3.805 -0.6868  0.5689 -0.7274
  171SAPE  H19R19303   1.095   4.862   3.718 -0.9537  0.7551 -0.6364
  171SAPE  H19S19304   1.066   4.933   3.867 -1.3657 -2.9858  0.3727
  171SAPE  C22019305   1.230   4.784   3.869 -0.3863 -0.6024 -0.3044
  171SAPE  H20R19306   1.282   4.814   3.963  0.5178 -2.9517 -0.0037
  171SAPE  H20S19307   1.299   4.739   3.794 -2.3226 -2.1603 -1.2345
  171SAPE  H20T19308   1.170   4.695   3.897  0.0403 -1.1339 -1.0533
  171SAPE   C3319309   0.596   5.171   2.431  0.6803 -0.2768  0.3588
  171SAPE   H3X19310   0.597   5.156   2.320 -1.8398  1.5418 -0.0023
  171SAPE   H3Y19311   0.575   5.070   2.472  1.4741 -1.4043 -1.8479
  171SAPE   C3419312   0.734   5.212   2.483 -0.4647  0.4489  0.4040
  171SAPE   H4X19313   0.787   5.290   2.423  0.5927 -1.2510 -0.9834
  171SAPE   H4Y19314   0.805   5.128   2.464 -0.7248  0.1933  0.5704
  171SAPE   C3519315   0.736   5.248   2.633  0.4294 -0.3499  0.0591
  171SAPE   H5X19316   0.674   5.181   2.697  0.6310 -0.1611  0.4475
  171SAPE   H5Y19317   0.694   5.351   2.637 -0.7002 -0.7728 -0.2611
  171SAPE   C3619318   0.873   5.244   2.704 -0.0324  0.1290  0.4702
  171SAPE   H6X19319   0.948   5.313   2.659 -0.5671 -0.7884 -1.9763
  171SAPE   H6Y19320   0.920   5.146   2.683 -1.3001 -0.6999  1.3526
  171SAPE   C3719321   0.868   5.258   2.862  0.3446 -0.2718  0.5268
  171SAPE   H7X19322   0.789   5.188   2.898  1.2269 -0.9172  1.2698
  171SAPE   H7Y19323   0.840   5.363   2.882  0.6821  0.8033 -3.6960
  171SAPE   C3819324   1.006   5.230   2.932  0.6496  0.4445  0.4772
  171SAPE   H8X19325   1.075   5.317   2.926  1.1279  0.1408  1.4686
  171SAPE   H8Y19326   1.054   5.142   2.885 -1.5274 -1.0084  0.8662
  171SAPE   C3919327   0.988   5.196   3.080  0.3841  0.2762  1.1582
  171SAPE   H9X19328   1.087   5.203   3.130  1.4561  3.1331 -1.1005
  171SAPE   H9Y19329   0.953   5.090   3.085  1.3735 -0.0454  1.5155
  171SAPE  C31019330   0.903   5.285   3.172  0.2512 -0.1768  0.4113
  171SAPE  H10X19331   0.800   5.295   3.130 -0.0388 -0.0608  1.1407
  171SAPE  H10Y19332   0.958   5.379   3.191 -0.1871  0.4364 -1.1803
  171SAPE  C31119333   0.886   5.218   3.309  1.1434 -0.2461 -0.4989
  171SAPE  H11X19334   0.983   5.210   3.362  0.8469  0.2832  0.1438
  171SAPE  H11Y19335   0.846   5.115   3.300 -0.7863  0.6008 -2.3990
  171SAPE  C31219336   0.775   5.287   3.400 -0.3142 -0.0586  0.5290
  171SAPE  H12X19337   0.683   5.317   3.347 -0.4605  1.1779  1.4447
  171SAPE  H12Y19338   0.822   5.371   3.455 -1.5970 -0.4503  2.3081
  171SAPE  C31319339   0.722   5.196   3.520  0.6772 -0.3866  0.0091
  171SAPE  H13X19340   0.807   5.156   3.578  2.5555  1.3104 -1.4337
  171SAPE  H13Y19341   0.672   5.104   3.484 -0.5242  0.5277 -0.7715
  171SAPE  C31419342   0.621   5.269   3.616 -0.0999 -0.1073  0.0743
  171SAPE  H14X19343   0.544   5.309   3.547  1.4826  1.2956 -0.9704
  171SAPE  H14Y19344   0.666   5.361   3.658  0.2259 -0.8184  1.3270
  171SAPE  C31519345   0.556   5.168   3.708 -0.2300 -0.4176  0.0123
  171SAPE  H15X19346   0.525   5.084   3.642  1.0586 -1.1770  0.3593
  171SAPE  H15Y19347   0.462   5.200   3.759 -0.2520 -0.7379  0.1792
  171SAPE  C31619348   0.642   5.112   3.821  0.0419  0.4257  0.4790
  171SAPE  H16X19349   0.721   5.051   3.772  1.3691  1.0711  1.7174
  171SAPE  H16Y19350   0.583   5.042   3.883 -0.8387  0.5801 -0.1731
  171SAPE  C31719351   0.719   5.209   3.916  0.0547  0.1218  0.5251
  171SAPE  H17X19352   0.638   5.252   3.978  0.5511  0.5977  0.8533
  171SAPE  H17Y19353   0.772   5.288   3.859  1.2214 -0.8264  0.2392
  171SAPE  C31819354   0.826   5.129   3.996 -0.3548  0.2035  0.6553
  171SAPE  H18X19355   0.784   5.082   4.088  1.3968  1.8550  2.3983
  171SAPE  H18Y19356   0.908   5.192   4.035  1.8849 -2.0137 -0.1872
  171SAPE  H18Z19357   0.872   5.050   3.932  0.5557  0.0106  1.5148
  172SAPE     N19358   6.239   6.276   2.225  0.0723 -0.7004 -0.0282
  172SAPE   HN119359   6.204   6.227   2.310 -0.0423  4.2258  3.1560
  172SAPE   HN219360   6.178   6.356   2.199  1.5221  0.6630  0.5939
  172SAPE   HN319361   6.263   6.206   2.152  3.2089 -1.0898  1.1989
  172SAPE   C1219362   6.379   6.342   2.254  0.8991  0.1559  0.2735
  172SAPE  H12A19363   6.364   6.402   2.346  0.3297  0.3046  0.0870
  172SAPE  H12B19364   6.395   6.412   2.170 -1.4570 -0.6633 -0.9667
  172SAPE   C1119365   6.489   6.242   2.276  0.2441  0.1418  0.6911
  172SAPE  H11A19366   6.453   6.162   2.344 -1.9933  0.1657 -0.3859
  172SAPE  H11B19367   6.574   6.285   2.333 -0.3397  0.3267  1.4395
  172SAPE     P19368   6.656   6.092   2.119  0.2552 -0.0241 -0.3757
  172SAPE   O1319369   6.647   5.963   2.188 -0.3269 -0.1125 -0.6633
  172SAPE   O1419370   6.670   6.081   1.971 -0.1373 -0.0871 -0.2245
  172SAPE   O1219371   6.535   6.190   2.149  0.2783  0.0436 -0.3303
  172SAPE   O1119372   6.781   6.174   2.180  0.9111  0.4481  0.5488
  172SAPE    C119373   6.803   6.308   2.158  0.2866 -0.0612  0.1007
  172SAPE    HA19374   6.782   6.326   2.051 -2.1522 -4.2359 -0.3603
  172SAPE    HB19375   6.741   6.368   2.228  1.4888 -1.1997  2.2506
  172SAPE    C219376   6.947   6.354   2.183 -0.6583  0.4321  0.2130
  172SAPE    HS19377   7.006   6.307   2.102 -2.1481 -1.5043  0.1831
  172SAPE   O2119378   6.978   6.302   2.314  0.0440 -0.4124 -0.6279
  172SAPE   C2119379   7.105   6.267   2.337  0.4323 -0.0569 -0.5607
  172SAPE   O2219380   7.196   6.259   2.254  0.1753 -0.0214 -0.7345
  172SAPE   C2219381   7.118   6.229   2.482  0.4041  0.6408  1.2645
  172SAPE   H2R19382   7.083   6.124   2.493 -2.0593  1.6112  4.1200
  172SAPE   H2S19383   7.227   6.223   2.504  0.9920  0.3299 -1.4294
  172SAPE    C319384   6.989   6.505   2.173  0.1166  0.3403 -0.5902
  172SAPE    HX19385   6.960   6.548   2.074 -3.0093  1.5799  0.7633
  172SAPE    HY19386   7.101   6.504   2.173  0.1258  0.8976 -0.0359
  172SAPE   O3119387   6.954   6.579   2.283  0.2883  0.0978  0.3063
  172SAPE   C3119388   6.823   6.610   2.284  0.2134  0.7719 -0.2801
  172SAPE   O3219389   6.744   6.608   2.191 -0.0003  0.3258  0.0801
  172SAPE   C3219390   6.784   6.644   2.428  0.1004  0.4631 -0.4095
  172SAPE   H2X19391   6.799   6.752   2.449  1.9320  0.2682 -0.6021
  172SAPE   H2Y19392   6.863   6.595   2.489  0.1285 -2.0184 -2.2642
  172SAPE   C2319393   7.038   6.326   2.573 -0.4850 -0.1413 -0.1969
  172SAPE   H3R19394   7.052   6.427   2.530  1.1960 -0.4540 -0.4691
  172SAPE   H3S19395   7.097   6.322   2.667 -0.0171  1.0415 -0.4206
  172SAPE   C2419396   6.897   6.287   2.607  1.1130  0.1767  0.4664
  172SAPE   H4R19397   6.841   6.268   2.513  0.4298  0.5393  0.8006
  172SAPE   H4S19398   6.834   6.356   2.666 -0.7501 -0.2258 -0.9517
  172SAPE   C2519399   6.893   6.159   2.685 -0.4461 -0.0423 -0.1146
  172SAPE   H5R19400   6.981   6.093   2.681  0.7457  1.4355  0.8223
  172SAPE   C2619401   6.810   6.126   2.791 -0.0351 -0.0913  0.3283
  172SAPE   H6R19402   6.833   6.043   2.860  1.7986  0.8776  0.9527
  172SAPE   C2719403   6.703   6.201   2.846  0.2363 -1.4176  0.1501
  172SAPE   H7R19404   6.725   6.309   2.832 -2.5815 -0.9756 -1.6514
  172SAPE   H7S19405   6.705   6.196   2.957 -0.2705  3.1206  0.5309
  172SAPE   C2819406   6.559   6.180   2.799  0.3152  0.5616 -0.1462
  172SAPE   H8R19407   6.548   6.097   2.727  0.9243 -0.4685  0.9208
  172SAPE   C2919408   6.455   6.247   2.841  0.0833 -0.4215  0.3039
  172SAPE   H9R19409   6.354   6.209   2.818 -0.6032 -0.1070  2.5182
  172SAPE  C21019410   6.453   6.356   2.944 -0.5283 -0.2468  0.1280
  172SAPE  H10R19411   6.550   6.408   2.956  0.9643 -1.9703 -3.0870
  172SAPE  H10S19412   6.434   6.301   3.038  0.1156 -0.3459  0.1975
  172SAPE  C21119413   6.345   6.450   2.921 -0.1035 -0.3698 -0.7749
  172SAPE  H11R19414   6.315   6.460   2.816  1.0852 -2.4005 -1.3768
  172SAPE  C21219415   6.299   6.535   3.015  0.0914  1.2221 -0.7134
  172SAPE  H12R19416   6.217   6.608   3.006 -1.7594  0.1570  4.3495
  172SAPE  C21319417   6.340   6.524   3.163  0.0771  0.3217  1.6356
  172SAPE  H13R19418   6.436   6.469   3.167  0.2258  0.2696 -0.7745
  172SAPE  H13S19419   6.275   6.450   3.215  0.1804 -0.6040  0.4867
  172SAPE  C21419420   6.354   6.647   3.243 -0.5366 -0.7632 -0.1066
  172SAPE  H14R19421   6.333   6.737   3.183  0.1716 -1.0756 -0.8386
  172SAPE  C21519422   6.369   6.662   3.376 -0.2578  0.1534 -0.2019
  172SAPE  H15R19423   6.402   6.759   3.416  0.8940 -1.3930  3.0069
  172SAPE  C21619424   6.385   6.543   3.476 -0.1455 -0.2505 -0.3821
  172SAPE  H16R19425   6.483   6.549   3.528 -0.3500  1.7021 -0.1232
  172SAPE  H16S19426   6.390   6.445   3.424 -1.5118 -0.1068 -0.8240
  172SAPE  C21719427   6.296   6.536   3.602 -0.1862  0.1104 -0.2437
  172SAPE  H17R19428   6.332   6.447   3.659  0.5615  0.3208 -0.3764
  172SAPE  H17S19429   6.191   6.539   3.566 -0.4169 -0.9621  0.2852
  172SAPE  C21819430   6.315   6.659   3.685  1.1306  0.5009  0.0584
  172SAPE  H18R19431   6.293   6.748   3.622 -0.5383  0.0284 -0.0756
  172SAPE  H18S19432   6.415   6.660   3.732  0.3339 -0.0661  1.8634
  172SAPE  C21919433   6.215   6.665   3.809  0.1099 -0.2479  0.7260
  172SAPE  H19R19434   6.111   6.646   3.775  0.7068  0.5350 -1.7851
  172SAPE  H19S19435   6.235   6.765   3.851  2.8835 -0.5254  0.2409
  172SAPE  C22019436   6.248   6.577   3.924 -0.0168 -0.3450  0.2004
  172SAPE  H20R19437   6.357   6.588   3.946  0.5486 -1.8504 -1.5880
  172SAPE  H20S19438   6.232   6.473   3.888  0.9630  0.0545 -1.5182
  172SAPE  H20T19439   6.194   6.607   4.016  1.8267 -1.0315  1.5784
  172SAPE   C3319440   6.650   6.584   2.479 -0.0109  0.4066 -0.3579
  172SAPE   H3X19441   6.665   6.481   2.516 -0.2588  0.9765  1.3853
  172SAPE   H3Y19442   6.572   6.589   2.400  0.8136  0.5253 -1.1833
  172SAPE   C3419443   6.608   6.661   2.608  0.1758  0.5684 -0.0875
  172SAPE   H4X19444   6.507   6.629   2.642  0.2182  0.9147  0.3801
  172SAPE   H4Y19445   6.595   6.765   2.572  0.9883  0.8758  0.4916
  172SAPE   C3519446   6.711   6.654   2.727 -0.9894 -0.5705  0.4731
  172SAPE   H5X19447   6.801   6.716   2.706 -0.9369  0.7391  3.9122
  172SAPE   H5Y19448   6.759   6.555   2.738 -0.4342 -0.8037 -2.9511
  172SAPE   C3619449   6.641   6.713   2.852  0.2869  0.0944 -0.3262
  172SAPE   H6X19450   6.558   6.641   2.865  2.7865 -2.8731  0.4582
  172SAPE   H6Y19451   6.604   6.814   2.828  2.1456  0.9911  0.3348
  172SAPE   C3719452   6.729   6.721   2.980 -0.0752 -0.5223  0.1527
  172SAPE   H7X19453   6.837   6.741   2.967 -0.6405  2.3299 -0.9139
  172SAPE   H7Y19454   6.726   6.623   3.032 -0.2801 -1.1050 -0.9417
  172SAPE   C3819455   6.691   6.845   3.068 -0.0806 -0.6592  0.4571
  172SAPE   H8X19456   6.585   6.830   3.097 -0.7242  0.0447 -1.3475
  172SAPE   H8Y19457   6.693   6.946   3.021  0.4009 -0.8267  0.1070
  172SAPE   C3919458   6.782   6.851   3.190 -0.2565 -0.4918 -0.1731
  172SAPE   H9X19459   6.805   6.955   3.224  0.7116 -0.5098 -0.7276
  172SAPE   H9Y19460   6.884   6.824   3.157 -0.4228  0.4005 -1.4872
  172SAPE  C31019461   6.731   6.753   3.296  0.0009 -0.5566 -0.8594
  172SAPE  H10X19462   6.734   6.647   3.263 -0.5890 -1.1542  0.8734
  172SAPE  H10Y19463   6.621   6.768   3.307 -0.0263 -0.1917 -1.6324
  172SAPE  C31119464   6.812   6.769   3.429 -0.2479  0.2303  0.0947
  172SAPE  H11X19465   6.807   6.880   3.435 -2.7534  0.3595 -2.0247
  172SAPE  H11Y19466   6.915   6.730   3.418 -0.5567  0.0645 -3.6612
  172SAPE  C31219467   6.735   6.720   3.552  0.6375 -0.0774 -0.8510
  172SAPE  H12X19468   6.626   6.741   3.546  0.9407  1.5863 -1.1555
  172SAPE  H12Y19469   6.779   6.779   3.635 -0.7980 -0.3768  0.1543
  172SAPE  C31319470   6.762   6.573   3.578  0.5787  0.5661  0.4629
  172SAPE  H13X19471   6.869   6.550   3.564  0.0726 -1.8067  0.0446
  172SAPE  H13Y19472   6.693   6.509   3.519  0.9925 -0.1394  0.7341
  172SAPE  C31419473   6.732   6.548   3.730 -0.5997 -0.3521  0.1161
  172SAPE  H14X19474   6.621   6.556   3.730 -0.6236 -0.3114 -1.2544
  172SAPE  H14Y19475   6.776   6.627   3.794 -1.5719 -0.8325  1.4202
  172SAPE  C31519476   6.781   6.410   3.781  0.2214  0.2590  0.3872
  172SAPE  H15X19477   6.884   6.389   3.745  1.3551  1.8502  2.4934
  172SAPE  H15Y19478   6.710   6.339   3.734  0.8542  0.5824 -1.1082
  172SAPE  C31619479   6.796   6.392   3.934  0.5913 -0.2448  0.2218
  172SAPE  H16X19480   6.690   6.398   3.966  0.5979  0.3382  0.1545
  172SAPE  H16Y19481   6.857   6.474   3.980  1.8829 -1.4437  0.7147
  172SAPE  C31719482   6.852   6.257   3.970  0.2602  0.0747  0.2210
  172SAPE  H17X19483   6.924   6.226   3.891 -0.9268  2.0229 -1.7428
  172SAPE  H17Y19484   6.771   6.182   3.964  0.0833  0.3922 -3.6302
  172SAPE  C31819485   6.910   6.254   4.116  0.3368 -0.4844  0.3227
  172SAPE  H18X19486   6.821   6.262   4.183  0.6385 -0.4248  0.7193
  172SAPE  H18Y19487   6.982   6.335   4.136 -2.1187  2.1989 -0.9536
  172SAPE  H18Z19488   6.960   6.158   4.142  1.2556 -0.7936 -2.3136
  173SLPC     N19489   5.451   2.855   5.878  0.6141  0.0056  0.4534
  173SLPC   C1319490   5.537   2.745   5.930  0.1593  0.0645 -0.1226
  173SLPC  H13A19491   5.505   2.706   6.026 -1.7741  2.0419  0.1048
  173SLPC  H13B19492   5.541   2.662   5.861 -0.2768  0.3163 -0.4537
  173SLPC  H13C19493   5.641   2.771   5.929 -0.4399  2.8389 -2.4622
  173SLPC   C1419494   5.474   2.964   5.983 -0.2453 -0.1206  0.3808
  173SLPC  H14A19495   5.443   2.924   6.079 -1.1726 -2.8778 -0.9736
  173SLPC  H14B19496   5.575   3.002   5.978 -0.0580 -0.4679  1.2204
  173SLPC  H14C19497   5.396   3.035   5.962  2.0138  2.0426 -1.1993
  173SLPC   C1519498   5.304   2.827   5.875 -0.0991  0.0079 -0.5270
  173SLPC  H15A19499   5.284   2.738   5.817 -0.7377  0.0504 -0.3863
  173SLPC  H15B19500   5.273   2.789   5.972 -0.1142 -1.1082 -0.9564
  173SLPC  H15C19501   5.235   2.904   5.843 -0.3602  0.3181  0.7159
  173SLPC   C1219502   5.510   2.899   5.741 -0.5539 -0.3809 -0.6224
  173SLPC  H12A19503   5.612   2.928   5.757 -1.1186  0.7313  1.2091
  173SLPC  H12B19504   5.457   2.989   5.713  0.9922  1.4056  1.8436
  173SLPC   C1119505   5.530   2.795   5.636 -0.1834 -0.4220 -0.2947
  173SLPC  H11A19506   5.555   2.843   5.539 -1.7107 -0.3691 -0.7010
  173SLPC  H11B19507   5.432   2.742   5.629  0.0138 -0.7997 -0.2171
  173SLPC     P19508   5.792   2.756   5.647 -0.1546  0.0228  0.1877
  173SLPC   O1319509   5.823   2.869   5.731 -0.5179 -0.7966 -0.4247
  173SLPC   O1419510   5.877   2.638   5.667  0.5924  0.1338  0.3991
  173SLPC   O1219511   5.639   2.709   5.666 -0.2996  0.1848 -0.4515
  173SLPC   O1119512   5.796   2.794   5.498  0.9667 -0.1720 -0.1672
  173SLPC    C119513   5.783   2.690   5.403 -0.6627 -0.1384  0.7546
  173SLPC    HA19514   5.708   2.613   5.431 -0.6241 -0.6073 -0.4116
  173SLPC    HB19515   5.735   2.736   5.314 -1.4516 -0.5534  0.9583
  173SLPC    C219516   5.918   2.623   5.356 -0.7912  0.4326 -0.5124
  173SLPC    HS19517   5.949   2.584   5.455 -2.2753 -0.2619 -0.3010
  173SLPC   O2119518   6.002   2.720   5.301  0.1129 -0.1979 -0.3648
  173SLPC   C2119519   6.123   2.721   5.353 -0.1689 -0.4412 -0.9378
  173SLPC   O2219520   6.165   2.640   5.437 -0.7792  0.3221  0.5900
  173SLPC   C2219521   6.193   2.854   5.311  0.3573  0.0091 -0.2130
  173SLPC   H2R19522   6.166   2.869   5.204 -2.8650  0.6196  0.5646
  173SLPC   H2S19523   6.153   2.939   5.371  1.2976  0.3165 -0.0048
  173SLPC    C319524   5.894   2.503   5.266 -0.7796  0.1601  0.0098
  173SLPC    HX19525   5.834   2.423   5.316 -0.9785 -0.3840 -1.0722
  173SLPC    HY19526   5.992   2.456   5.246 -1.2819 -1.1495  0.5332
  173SLPC   O3119527   5.831   2.544   5.144  0.3437  0.1585  0.9672
  173SLPC   C3119528   5.899   2.552   5.032  0.2879  0.7781 -0.5734
  173SLPC   O3219529   6.021   2.536   5.030  0.0723  0.0350 -0.2360
  173SLPC   C3219530   5.806   2.581   4.916  0.4579  0.5042 -0.0927
  173SLPC   H2X19531   5.753   2.486   4.894 -1.1082  0.5991  2.6950
  173SLPC   H2Y19532   5.869   2.611   4.830 -0.7346  0.1112 -1.1369
  173SLPC   C2319533   6.348   2.845   5.330  0.7322 -0.1173 -0.3170
  173SLPC   H3R19534   6.379   2.832   5.436  1.5501  2.2427 -0.2116
  173SLPC   H3S19535   6.386   2.943   5.295  2.6693 -1.0273 -0.9008
  173SLPC   C2419536   6.416   2.730   5.254  0.0291  0.2110 -0.3076
  173SLPC   H4R19537   6.427   2.634   5.308  0.2800  0.4040 -0.0119
  173SLPC   H4S19538   6.525   2.754   5.246  0.5370 -1.5136  0.8334
  173SLPC   C2519539   6.351   2.705   5.113 -0.7309 -0.1758 -0.3157
  173SLPC   H5R19540   6.241   2.692   5.106 -0.6813  0.0070 -1.5637
  173SLPC   H5S19541   6.392   2.610   5.072 -0.2961 -0.0843 -0.1046
  173SLPC   C2619542   6.394   2.822   5.020 -0.0197 -0.7279 -0.3071
  173SLPC   H6R19543   6.386   2.924   5.065  0.0060 -1.1352  0.6523
  173SLPC   H6S19544   6.318   2.826   4.939 -0.0462  0.9835 -0.2265
  173SLPC   C2719545   6.537   2.803   4.966 -0.2940  0.0408  0.9363
  173SLPC   H7R19546   6.546   2.698   4.930 -1.1681 -0.3352  1.7491
  173SLPC   H7S19547   6.610   2.815   5.049 -0.6370 -0.0661  1.2594
  173SLPC   C2819548   6.570   2.906   4.857 -0.3756 -0.6881  0.3428
  173SLPC   H8R19549   6.575   3.007   4.904  0.5494 -0.7684  0.4184
  173SLPC   H8S19550   6.485   2.903   4.785  1.0257 -1.7186 -1.3261
  173SLPC   C2919551   6.698   2.869   4.789  0.1275 -0.0432 -0.2653
  173SLPC   H9R19552   6.780   2.864   4.863 -0.8181  0.0511  0.8052
  173SLPC  C21019553   6.731   2.849   4.664 -0.2561  0.7671  1.0665
  173SLPC  H10R19554   6.836   2.820   4.644 -0.1912  2.5946 -1.9803
  173SLPC  C21119555   6.641   2.833   4.547  0.4610 -0.2451 -0.1224
  173SLPC  H11R19556   6.558   2.906   4.557  1.0762  0.4820 -0.2519
  173SLPC  H11S19557   6.588   2.735   4.546  0.8814 -0.4743 -1.2333
  173SLPC  C21219558   6.698   2.845   4.403  0.4770 -0.1201  0.4337
  173SLPC  H12R19559   6.801   2.883   4.392 -0.0434  0.6893 -2.3473
  173SLPC  C21319560   6.641   2.798   4.285  0.6987 -0.0061 -0.5288
  173SLPC  H13R19561   6.693   2.806   4.189  1.2329  0.1275 -0.2372
  173SLPC  C21419562   6.501   2.740   4.292 -0.8761  0.0675  0.4305
  173SLPC  H14R19563   6.444   2.815   4.351  0.5772  1.4778  0.1040
  173SLPC  H14S19564   6.511   2.650   4.357  3.4838 -0.9629 -1.2787
  173SLPC  C21519565   6.447   2.702   4.146 -0.5624 -0.0186 -0.8391
  173SLPC  H15R19566   6.349   2.653   4.161 -1.0210  1.0949 -0.0214
  173SLPC  H15S19567   6.511   2.628   4.092  0.7066  0.9594 -0.7315
  173SLPC  C21619568   6.432   2.829   4.063 -0.4644  0.1392  0.4450
  173SLPC  H16R19569   6.536   2.858   4.037 -1.0848  2.7177  0.6292
  173SLPC  H16S19570   6.386   2.908   4.126 -2.0649  0.7095 -1.3512
  173SLPC  C21719571   6.326   2.811   3.958 -0.4993 -0.1177 -0.1376
  173SLPC  H17R19572   6.337   2.707   3.918  1.7343 -0.4104  1.0751
  173SLPC  H17S19573   6.350   2.883   3.877 -1.7944  1.0102  0.4454
  173SLPC  C21819574   6.182   2.846   3.991 -0.3043 -0.2426  0.2197
  173SLPC  H18R19575   6.179   2.955   4.014  0.5676 -0.1182 -0.2114
  173SLPC  H18S19576   6.140   2.784   4.073  0.3427 -1.7507 -0.5532
  173SLPC  H18T19577   6.125   2.830   3.897 -0.6784  3.1304 -0.2551
  173SLPC   C3319578   5.702   2.693   4.939 -0.4881  0.0390 -1.0292
  173SLPC   H3X19579   5.652   2.677   5.037 -0.1233 -0.6394 -0.9436
  173SLPC   H3Y19580   5.618   2.680   4.867  0.4990 -0.6888 -2.0864
  173SLPC   C3419581   5.745   2.844   4.922 -0.0001  0.6595  0.2193
  173SLPC   H4X19582   5.649   2.899   4.918 -0.5542 -0.3299 -0.8731
  173SLPC   H4Y19583   5.786   2.861   4.820  0.0269 -1.2678 -0.1442
  173SLPC   C3519584   5.837   2.895   5.032  0.2420 -0.8365  0.3763
  173SLPC   H5X19585   5.939   2.851   5.026  0.3259 -0.4709 -2.7174
  173SLPC   H5Y19586   5.784   2.875   5.127 -2.0590  1.6429 -0.2738
  173SLPC   C3619587   5.859   3.048   5.036  0.6122 -0.4397  0.6339
  173SLPC   H6X19588   5.890   3.075   5.139  1.5397 -0.4978  0.3785
  173SLPC   H6Y19589   5.760   3.096   5.018  2.0289  2.4608 -0.0383
  173SLPC   C3719590   5.950   3.104   4.925 -0.1851  0.0858  0.4090
  173SLPC   H7X19591   5.910   3.202   4.893  0.1253 -0.1258 -0.6878
  173SLPC   H7Y19592   5.940   3.034   4.839  1.1851  1.2956 -0.7914
  173SLPC   C3819593   6.101   3.118   4.959  0.2657  0.7266  0.4285
  173SLPC   H8X19594   6.124   3.020   5.006  0.8927  1.1881  1.1088
  173SLPC   H8Y19595   6.110   3.194   5.040 -0.7646  0.9044  0.3915
  173SLPC   C3919596   6.204   3.140   4.854 -0.0627 -0.4471 -0.0330
  173SLPC   H9X19597   6.300   3.120   4.907 -0.6032 -1.0712  0.7341
  173SLPC   H9Y19598   6.222   3.246   4.828  0.0904 -0.2793  0.7321
  173SLPC  C31019599   6.184   3.047   4.734  0.3612 -0.7743 -0.5327
  173SLPC  H10X19600   6.081   3.057   4.693  0.1828 -1.3223 -0.2288
  173SLPC  H10Y19601   6.193   2.942   4.768 -3.9201 -0.4273  2.4494
  173SLPC  C31119602   6.283   3.080   4.624  0.4101  0.5452 -0.1933
  173SLPC  H11X19603   6.286   3.001   4.545 -0.0294 -0.8423  1.1440
  173SLPC  H11Y19604   6.385   3.083   4.668  0.5122  1.8781 -0.4642
  173SLPC  C31219605   6.272   3.221   4.559  0.2667  0.3584  0.6165
  173SLPC  H12X19606   6.315   3.296   4.629  1.1476  0.4538 -0.0144
  173SLPC  H12Y19607   6.165   3.242   4.539  0.4368 -0.1899 -1.0069
  173SLPC  C31319608   6.343   3.241   4.427 -0.7914 -0.9429  1.2051
  173SLPC  H13X19609   6.315   3.345   4.400 -1.6506 -1.0700  1.5569
  173SLPC  H13Y19610   6.305   3.181   4.342 -2.6206  1.3079  0.3087
  173SLPC  C31419611   6.499   3.232   4.431  0.2305 -0.0385  0.0641
  173SLPC  H14X19612   6.519   3.142   4.493 -0.5136  0.1594  0.6093
  173SLPC  H14Y19613   6.552   3.311   4.489  2.7068 -1.3096 -0.3388
  173SLPC  C31519614   6.557   3.204   4.292 -0.1790 -0.4812  0.2424
  173SLPC  H15X19615   6.521   3.112   4.242 -0.3517  0.5361 -1.5953
  173SLPC  H15Y19616   6.668   3.200   4.302  0.0982  1.4376 -1.4569
  173SLPC  C31619617   6.534   3.326   4.204 -0.1529 -0.3670 -0.3748
  173SLPC  H16X19618   6.439   3.381   4.223  0.6862  0.7601  0.7358
  173SLPC  H16Y19619   6.525   3.283   4.102  0.5715 -0.5505 -0.3628
  173SLPC  C31719620   6.643   3.428   4.207  0.0319 -0.5199 -0.2910
  173SLPC  H17X19621   6.735   3.378   4.170 -0.2949 -0.1029 -1.7132
  173SLPC  H17Y19622   6.662   3.466   4.309  1.1312  0.9054 -0.9967
  173SLPC  C31819623   6.614   3.541   4.107  0.6508  0.4842  0.8108
  173SLPC  H18X19624   6.531   3.599   4.151  1.1528  0.9454  1.1562
  173SLPC  H18Y19625   6.590   3.499   4.007 -0.0687 -0.0881  1.2161
  173SLPC  H18Z19626   6.694   3.615   4.085 -0.1717  0.8322 -1.2761
  174SLPC     N19627   1.694   1.197   5.868  0.8273 -0.3565  0.3386
  174SLPC   C1319628   1.619   1.125   5.754 -0.4024 -0.1947  0.0755
  174SLPC  H13A19629   1.688   1.060   5.703 -0.8396  0.2790 -1.1678
  174SLPC  H13B19630   1.531   1.072   5.787  0.0424 -0.5258  0.7454
  174SLPC  H13C19631   1.590   1.194   5.676 -0.4515  1.1074  1.1999
  174SLPC   C1419632   1.809   1.278   5.811  1.0534 -0.1458  0.1092
  174SLPC  H14A19633   1.772   1.329   5.724  1.2661  0.6723  0.4830
  174SLPC  H14B19634   1.847   1.357   5.875  2.3868 -1.2386  0.7375
  174SLPC  H14C19635   1.899   1.220   5.795  0.9413 -0.3569  0.2347
  174SLPC   C1519636   1.740   1.090   5.952 -0.1153  0.3043  0.1817
  174SLPC  H15A19637   1.663   1.033   6.001  0.0050 -1.6556 -1.7378
  174SLPC  H15B19638   1.799   1.021   5.893 -0.2032  1.1780 -0.9570
  174SLPC  H15C19639   1.809   1.127   6.026  0.5456 -0.6864  0.0867
  174SLPC   C1219640   1.592   1.290   5.931 -0.2210  0.5366  0.0671
  174SLPC  H12A19641   1.506   1.241   5.974  0.8556 -1.4374  0.0662
  174SLPC  H12B19642   1.551   1.361   5.861  1.8789  2.3900  0.5813
  174SLPC   C1119643   1.650   1.394   6.034  0.0671  0.6221  0.1253
  174SLPC  H11A19644   1.731   1.343   6.091  1.5706  0.3014 -2.1688
  174SLPC  H11B19645   1.576   1.414   6.114  0.5040 -2.8560  1.6000
  174SLPC     P19646   1.624   1.643   5.940  0.0600  0.1176  0.4540
  174SLPC   O1319647   1.501   1.618   5.860  0.7332 -0.4521 -0.0644
  174SLPC   O1419648   1.617   1.722   6.063  0.1816  0.1267  0.4939
  174SLPC   O1219649   1.700   1.508   5.966 -0.1252  0.6677 -0.2958
  174SLPC   O1119650   1.718   1.721   5.842 -0.3505  0.1910 -0.0840
  174SLPC    C119651   1.818   1.652   5.757 -0.2953 -0.4025 -0.2234
  174SLPC    HA19652   1.894   1.608   5.825  0.2997  1.5012  0.3941
  174SLPC    HB19653   1.770   1.574   5.693  1.3705 -0.9251 -0.9056
  174SLPC    C219654   1.886   1.740   5.652  0.3438 -0.1635  0.0704
  174SLPC    HS19655   1.934   1.829   5.698 -0.3535  0.3201 -0.1037
  174SLPC   O2119656   1.787   1.798   5.563 -0.3506 -0.0758 -0.1478
  174SLPC   C2119657   1.720   1.900   5.606  0.1584  0.0607 -0.8203
  174SLPC   O2219658   1.732   1.968   5.706 -0.0078  0.4289  0.3334
  174SLPC   C2219659   1.629   1.947   5.492 -0.3737  0.4400 -0.0022
  174SLPC   H2R19660   1.644   2.053   5.460  0.9434  0.8096  1.6938
  174SLPC   H2S19661   1.655   1.888   5.402 -1.0706 -0.9499  0.6713
  174SLPC    C319662   1.999   1.673   5.570  0.4828 -0.5328 -0.1973
  174SLPC    HX19663   2.087   1.659   5.637 -0.5878  0.0501  1.3944
  174SLPC    HY19664   2.023   1.750   5.494  1.0789  0.6139  1.0999
  174SLPC   O3119665   1.958   1.541   5.514  0.0792  0.1067  0.8082
  174SLPC   C3119666   1.984   1.527   5.389 -0.6738  0.1064 -0.1701
  174SLPC   O3219667   2.062   1.591   5.318  0.0754  0.3115  0.5427
  174SLPC   C3219668   1.908   1.396   5.359  0.3691  0.2538  0.3678
  174SLPC   H2X19669   1.816   1.392   5.422 -0.5159 -1.7259 -0.9302
  174SLPC   H2Y19670   1.977   1.315   5.390 -1.6485 -0.9610  1.9412
  174SLPC   C2319671   1.484   1.935   5.530  0.4794  0.3207  0.2624
  174SLPC   H3R19672   1.451   2.009   5.606 -0.6282  1.1501 -0.9946
  174SLPC   H3S19673   1.476   1.834   5.577  1.9714 -0.0232 -0.1539
  174SLPC   C2419674   1.398   1.934   5.413 -0.0317  0.3328  0.2175
  174SLPC   H4R19675   1.295   1.912   5.448  0.2010 -2.1396 -0.5099
  174SLPC   H4S19676   1.431   1.844   5.358  0.8463  1.4245 -1.1353
  174SLPC   C2519677   1.411   2.058   5.322  0.5331 -0.1550  0.4054
  174SLPC   H5R19678   1.458   2.142   5.378 -1.2199 -0.2103  2.0300
  174SLPC   H5S19679   1.309   2.082   5.286  0.7274  0.5201  0.2995
  174SLPC   C2619680   1.506   2.040   5.199  0.0592  0.0753  0.8122
  174SLPC   H6R19681   1.451   1.971   5.132 -0.8652  0.6696  0.9423
  174SLPC   H6S19682   1.602   1.990   5.225 -0.0748 -0.6035  0.0345
  174SLPC   C2719683   1.529   2.169   5.119 -0.1191  0.0177 -0.1261
  174SLPC   H7R19684   1.533   2.268   5.169 -1.6983  0.9127 -1.6927
  174SLPC   H7S19685   1.435   2.179   5.061  2.1814  1.4338 -3.9520
  174SLPC   C2819686   1.650   2.146   5.014 -0.5513 -1.0448 -0.2610
  174SLPC   H8R19687   1.604   2.174   4.917 -0.2127 -1.0744 -0.4296
  174SLPC   H8S19688   1.670   2.037   4.999 -0.1549 -1.0383  0.1814
  174SLPC   C2919689   1.772   2.221   5.050  0.3824 -0.6514 -0.0612
  174SLPC   H9R19690   1.787   2.234   5.158 -0.9912 -0.3593  0.1148
  174SLPC  C21019691   1.853   2.274   4.955 -0.1596  0.4781 -0.1449
  174SLPC  H10R19692   1.943   2.330   4.982  0.1016  1.4167 -2.6603
  174SLPC  C21119693   1.832   2.271   4.807 -0.3142 -0.1771 -0.0682
  174SLPC  H11R19694   1.783   2.175   4.779 -0.7205 -0.3128  1.0677
  174SLPC  H11S19695   1.932   2.281   4.759 -0.3859  2.1303  0.1801
  174SLPC  C21219696   1.742   2.382   4.752  0.2927  0.0281  0.5655
  174SLPC  H12R19697   1.726   2.471   4.814 -1.8677 -0.3614  0.6512
  174SLPC  C21319698   1.694   2.391   4.629  0.6339  0.0047  0.1447
  174SLPC  H13R19699   1.634   2.476   4.593  0.2284 -1.1180 -2.0506
  174SLPC  C21419700   1.707   2.293   4.520 -0.0437 -0.1553  0.1233
  174SLPC  H14R19701   1.782   2.213   4.537 -1.0308 -1.1635 -0.1620
  174SLPC  H14S19702   1.747   2.342   4.429  0.7521 -0.8728  0.0762
  174SLPC  C21519703   1.572   2.222   4.508 -0.0824  0.3491 -0.1145
  174SLPC  H15R19704   1.575   2.170   4.410  0.4857  2.7188 -1.4272
  174SLPC  H15S19705   1.488   2.295   4.504 -1.2399 -0.8720  1.0918
  174SLPC  C21619706   1.552   2.115   4.612 -0.5466 -0.2482 -0.0262
  174SLPC  H16R19707   1.516   2.165   4.705  0.3673  0.0275  0.1911
  174SLPC  H16S19708   1.644   2.063   4.645 -1.7343 -2.6024 -0.1964
  174SLPC  C21719709   1.438   2.014   4.563  0.2462 -0.2538  0.0279
  174SLPC  H17R19710   1.472   1.969   4.467  2.0565  1.4817 -0.2103
  174SLPC  H17S19711   1.366   2.087   4.521  3.8899  2.0799 -2.8822
  174SLPC  C21819712   1.369   1.914   4.657 -0.0440 -0.8460 -0.3828
  174SLPC  H18R19713   1.273   1.875   4.617 -0.7971  0.5188  0.0488
  174SLPC  H18S19714   1.343   1.955   4.757 -0.1573  0.5566 -0.9713
  174SLPC  H18T19715   1.442   1.837   4.692  1.5270  0.4797 -0.6397
  174SLPC   C3319716   1.868   1.388   5.206 -0.7438 -0.0177 -0.5783
  174SLPC   H3X19717   1.846   1.491   5.170  2.5453  0.6883 -0.8908
  174SLPC   H3Y19718   1.777   1.325   5.194 -2.5080  2.1535  0.5871
  174SLPC   C3419719   1.981   1.327   5.117 -0.3683  0.4439  0.0285
  174SLPC   H4X19720   1.991   1.223   5.154  1.3439  1.2637  2.0293
  174SLPC   H4Y19721   2.074   1.387   5.127  1.2666 -2.2645  2.4608
  174SLPC   C3519722   1.936   1.328   4.968 -0.2778  0.8783  0.9311
  174SLPC   H5X19723   1.933   1.438   4.952 -1.4381  0.9531  1.5745
  174SLPC   H5Y19724   1.834   1.284   4.961  0.0387  0.1172  1.0396
  174SLPC   C3619725   2.038   1.258   4.883 -0.0064  0.1084  0.3238
  174SLPC   H6X19726   2.015   1.149   4.879  1.1336 -0.2350  2.1679
  174SLPC   H6Y19727   2.134   1.264   4.939  0.7724  0.7501 -1.0174
  174SLPC   C3719728   2.065   1.337   4.752 -0.5020  0.4210 -0.0455
  174SLPC   H7X19729   2.151   1.293   4.696 -0.6726 -1.4782  1.1151
  174SLPC   H7Y19730   2.093   1.440   4.784 -0.5684  0.3402  0.2711
  174SLPC   C3819731   1.939   1.338   4.669  0.4955 -0.4340  0.2353
  174SLPC   H8X19732   1.860   1.406   4.707  0.9467  2.4941 -3.4038
  174SLPC   H8Y19733   1.899   1.234   4.666  0.1346 -0.2856 -1.9221
  174SLPC   C3919734   1.972   1.382   4.521  0.2767 -0.3937  0.1127
  174SLPC   H9X19735   2.077   1.351   4.507 -0.2848 -1.7406 -1.4667
  174SLPC   H9Y19736   1.945   1.488   4.505  1.2652  0.0092  0.9979
  174SLPC  C31019737   1.890   1.305   4.410 -0.0197  0.5794  0.4273
  174SLPC  H10X19738   1.786   1.339   4.429 -0.7316 -0.5612 -1.1303
  174SLPC  H10Y19739   1.887   1.194   4.413 -0.1100  0.5931  0.8633
  174SLPC  C31119740   1.922   1.350   4.264 -0.4218 -0.7964 -0.0173
  174SLPC  H11X19741   2.031   1.330   4.270 -0.7634 -2.4651  1.5030
  174SLPC  H11Y19742   1.919   1.460   4.251  0.2626 -0.3882  2.7642
  174SLPC  C31219743   1.856   1.274   4.149 -0.1564 -1.0206 -0.2755
  174SLPC  H12X19744   1.749   1.302   4.159  0.3704  0.6870  1.0093
  174SLPC  H12Y19745   1.856   1.166   4.176 -0.9501 -1.3031 -1.3314
  174SLPC  C31319746   1.915   1.303   4.005  0.5602  0.4432 -0.2754
  174SLPC  H13X19747   2.026   1.301   4.004  0.6221  0.2935  1.8545
  174SLPC  H13Y19748   1.891   1.402   3.962  0.5901  0.6803  0.2371
  174SLPC  C31419749   1.873   1.191   3.901  0.4242  0.1884  0.0485
  174SLPC  H14X19750   1.763   1.207   3.891  0.1187 -2.5563 -1.8436
  174SLPC  H14Y19751   1.904   1.090   3.933 -2.1598 -0.1081  1.9585
  174SLPC  C31519752   1.938   1.210   3.759  0.5204 -0.0862 -0.3214
  174SLPC  H15X19753   1.947   1.119   3.696 -0.4975 -0.3217 -0.1318
  174SLPC  H15Y19754   2.041   1.224   3.800 -0.2706  1.8038  1.1684
  174SLPC  C31619755   1.889   1.333   3.687 -0.1188  0.4667  0.2397
  174SLPC  H16X19756   1.923   1.427   3.734  0.9104  1.2767 -2.0107
  174SLPC  H16Y19757   1.779   1.320   3.686  0.0703 -1.3839 -0.5118
  174SLPC  C31719758   1.929   1.328   3.533 -0.0675 -0.4349  0.3360
  174SLPC  H17X19759   1.876   1.415   3.488 -0.6350 -1.3145 -0.7430
  174SLPC  H17Y19760   1.889   1.234   3.490  0.5004 -0.9118  0.8353
  174SLPC  C31819761   2.071   1.349   3.495 -1.0621 -0.2622 -0.5884
  174SLPC  H18X19762   2.105   1.452   3.522 -1.2217  0.5089 -3.0950
  174SLPC  H18Y19763   2.080   1.352   3.385 -1.2309  1.5169 -0.5795
  174SLPC  H18Z19764   2.140   1.272   3.537  1.0382  0.7551 -2.0014
  175SLPC     N19765   6.376   3.879   5.588 -0.2278 -0.3004 -0.1702
  175SLPC   C1319766   6.238   3.839   5.623  0.3358 -0.0071 -0.0938
  175SLPC  H13A19767   6.240   3.740   5.665 -0.6409  0.3165  0.7546
  175SLPC  H13B19768   6.194   3.903   5.698  1.1086  0.7448 -0.2644
  175SLPC  H13C19769   6.172   3.828   5.538  0.1517  0.0639  0.0406
  175SLPC   C1419770   6.428   3.778   5.494  0.6407  0.0865 -0.1398
  175SLPC  H14A19771   6.420   3.681   5.540 -0.5162 -1.0222 -2.4909
  175SLPC  H14B19772   6.369   3.774   5.404  1.6304 -0.9515 -0.7774
  175SLPC  H14C19773   6.528   3.799   5.459  2.0935 -3.7875  1.2370
  175SLPC   C1519774   6.447   3.865   5.718 -0.7786 -0.3679 -0.8092
  175SLPC  H15A19775   6.551   3.896   5.714 -0.0707 -2.2902  0.7532
  175SLPC  H15B19776   6.404   3.929   5.793  1.6159  0.7391 -0.2832
  175SLPC  H15C19777   6.442   3.760   5.745  0.1025 -0.1122  0.3968
  175SLPC   C1219778   6.375   4.024   5.537  0.0393 -0.2817 -0.0550
  175SLPC  H12A19779   6.346   4.081   5.624  0.6384  1.1162 -0.7440
  175SLPC  H12B19780   6.296   4.043   5.467 -0.3560 -1.0627  0.1661
  175SLPC   C1119781   6.508   4.077   5.479  1.0621 -0.3034 -0.2156
  175SLPC  H11A19782   6.487   4.168   5.418 -1.6693  0.0523  1.1140
  175SLPC  H11B19783   6.538   3.991   5.415 -0.3981 -1.2668  0.3513
  175SLPC     P19784   6.594   4.246   5.662 -0.2273  0.0882  0.2182
  175SLPC   O1319785   6.504   4.238   5.779 -0.1057 -0.1941  0.3058
  175SLPC   O1419786   6.733   4.281   5.696 -0.1835  0.8841 -0.1437
  175SLPC   O1219787   6.600   4.107   5.586 -0.0009 -0.4389 -0.5071
  175SLPC   O1119788   6.530   4.352   5.564  0.3253  0.5809 -0.1211
  175SLPC    C119789   6.609   4.434   5.479 -0.7186 -0.9280 -0.0789
  175SLPC    HA19790   6.672   4.504   5.537 -0.3743 -1.0420 -0.3077
  175SLPC    HB19791   6.687   4.377   5.424 -0.5226 -1.6265  0.9007
  175SLPC    C219792   6.533   4.515   5.379 -0.3410 -0.2301  0.5129
  175SLPC    HS19793   6.455   4.574   5.432 -1.1503 -0.6133 -0.2315
  175SLPC   O2119794   6.456   4.428   5.293  0.2763 -0.4082  0.0039
  175SLPC   C2119795   6.346   4.478   5.248  0.4118 -0.0128 -0.5561
  175SLPC   O2219796   6.305   4.594   5.268  0.1215 -0.4479  0.2715
  175SLPC   C2219797   6.270   4.371   5.181 -0.0971 -0.4293  0.4998
  175SLPC   H2R19798   6.336   4.286   5.150  1.1119  0.7814 -0.3612
  175SLPC   H2S19799   6.209   4.321   5.259  0.5913  0.0611  1.3658
  175SLPC    C319800   6.612   4.608   5.285 -0.0809  0.0670  1.1534
  175SLPC    HX19801   6.652   4.695   5.341 -0.1826  0.8945 -0.0184
  175SLPC    HY19802   6.542   4.652   5.210  2.5787 -0.2272 -1.6785
  175SLPC   O3119803   6.715   4.537   5.209 -0.0096 -0.2140 -0.0315
  175SLPC   C3119804   6.806   4.614   5.156  0.0599  0.4951  0.4706
  175SLPC   O3219805   6.815   4.735   5.167 -0.0382 -0.0831  0.4866
  175SLPC   C3219806   6.909   4.526   5.086  0.0289  0.3717  0.3337
  175SLPC   H2X19807   6.860   4.472   5.002  1.9355 -0.1779 -0.4833
  175SLPC   H2Y19808   6.954   4.460   5.164 -1.5314 -1.4733 -0.2273
  175SLPC   C2319809   6.168   4.422   5.072 -0.1958 -0.3991 -0.5462
  175SLPC   H3R19810   6.095   4.495   5.113  0.2520  0.5218 -1.3276
  175SLPC   H3S19811   6.110   4.333   5.038 -0.4092 -0.0656 -1.0825
  175SLPC   C2419812   6.234   4.489   4.951  0.4185  0.3661 -0.8586
  175SLPC   H4R19813   6.268   4.590   4.983  0.1566 -0.0548  0.8607
  175SLPC   H4S19814   6.153   4.506   4.878 -0.1172 -0.0438 -0.3688
  175SLPC   C2519815   6.346   4.419   4.879 -0.0973  0.0181 -0.2836
  175SLPC   H5R19816   6.317   4.332   4.816 -0.1177 -1.0223  1.1239
  175SLPC   H5S19817   6.426   4.379   4.945  0.0387 -0.5603 -0.7949
  175SLPC   C2619818   6.427   4.512   4.784 -0.9812  0.0854 -1.0047
  175SLPC   H6R19819   6.454   4.604   4.841 -4.2731  0.8186 -0.4371
  175SLPC   H6S19820   6.351   4.551   4.713 -2.3716  3.4241  1.9879
  175SLPC   C2719821   6.552   4.438   4.721 -0.0756 -0.5749 -0.8602
  175SLPC   H7R19822   6.519   4.348   4.664 -1.3317  0.0241 -1.1111
  175SLPC   H7S19823   6.617   4.406   4.805 -0.1888  1.1575 -0.0821
  175SLPC   C2819824   6.625   4.536   4.634 -0.1218  0.2715  0.1079
  175SLPC   H8R19825   6.657   4.617   4.704 -0.4554  3.4936 -3.1362
  175SLPC   H8S19826   6.545   4.595   4.585 -0.8795 -2.1968 -1.8364
  175SLPC   C2919827   6.740   4.492   4.557  0.0115  0.5972  0.6124
  175SLPC   H9R19828   6.795   4.416   4.615  0.5474  1.3981  1.1899
  175SLPC  C21019829   6.776   4.529   4.430  0.1057 -0.2811 -0.2385
  175SLPC  H10R19830   6.855   4.466   4.386 -0.2618  0.3325 -1.8382
  175SLPC  C21119831   6.691   4.612   4.331 -0.8345  0.7263 -0.0119
  175SLPC  H11R19832   6.763   4.656   4.259 -0.5790 -0.7877 -0.7141
  175SLPC  H11S19833   6.637   4.691   4.388  1.0237  1.1547  1.2645
  175SLPC  C21219834   6.579   4.539   4.266  0.2411  0.5532  0.0549
  175SLPC  H12R19835   6.512   4.493   4.341  0.7926 -0.5941 -0.1206
  175SLPC  C21319836   6.569   4.509   4.133  0.1323 -0.2805 -0.4865
  175SLPC  H13R19837   6.481   4.451   4.103 -0.6827  0.0865  1.0855
  175SLPC  C21419838   6.661   4.562   4.017  0.0283  0.0793 -0.1487
  175SLPC  H14R19839   6.705   4.659   4.048  0.9175 -0.1352 -0.7133
  175SLPC  H14S19840   6.598   4.582   3.928  1.7751  1.0360 -1.2275
  175SLPC  C21519841   6.773   4.467   3.962 -0.2108  0.4048  0.8459
  175SLPC  H15R19842   6.846   4.455   4.045 -0.0972 -0.5958  0.6111
  175SLPC  H15S19843   6.821   4.532   3.886  0.4018 -2.1290 -1.0691
  175SLPC  C21619844   6.721   4.338   3.888 -0.0448  0.2395 -0.5261
  175SLPC  H16R19845   6.658   4.290   3.966  1.2242 -0.4779  0.0803
  175SLPC  H16S19846   6.805   4.273   3.854 -2.2984 -1.8385 -2.5815
  175SLPC  C21719847   6.637   4.374   3.769 -0.3014  0.3310 -0.1001
  175SLPC  H17R19848   6.703   4.440   3.708  1.0978 -1.2436 -0.3740
  175SLPC  H17S19849   6.549   4.432   3.803 -0.1498  1.7969 -2.0302
  175SLPC  C21819850   6.592   4.256   3.678  0.4773  0.9583  0.0988
  175SLPC  H18R19851   6.534   4.178   3.732  0.8478 -0.4570 -1.4364
  175SLPC  H18S19852   6.674   4.205   3.623 -0.0096  1.1378 -0.8246
  175SLPC  H18T19853   6.519   4.285   3.600  0.3934 -1.8395 -1.0032
  175SLPC   C3319854   7.040   4.596   5.017  0.3207 -0.8290  0.5115
  175SLPC   H3X19855   7.118   4.523   4.987  0.9013  0.4867 -1.3789
  175SLPC   H3Y19856   7.088   4.648   5.103  2.8790 -0.9549 -0.7568
  175SLPC   C3419857   7.016   4.698   4.896  0.0819  0.3139  0.6696
  175SLPC   H4X19858   7.102   4.768   4.886 -0.3911  0.6083 -1.8503
  175SLPC   H4Y19859   6.927   4.761   4.916 -0.5159 -0.9321  2.0901
  175SLPC   C3519860   7.003   4.627   4.758 -0.0685 -0.5607  0.0449
  175SLPC   H5X19861   6.892   4.628   4.746 -0.6995  3.0840  3.9146
  175SLPC   H5Y19862   7.051   4.527   4.767 -0.8973 -0.9991 -0.2206
  175SLPC   C3619863   7.067   4.711   4.644 -0.1782  0.6758 -0.0771
  175SLPC   H6X19864   7.148   4.780   4.676  0.8248 -1.5597  2.5012
  175SLPC   H6Y19865   6.982   4.767   4.600 -2.6814 -1.4671  1.7622
  175SLPC   C3719866   7.128   4.617   4.537 -0.1783  0.3752 -0.0642
  175SLPC   H7X19867   7.048   4.548   4.502 -0.3165 -0.7217  2.2652
  175SLPC   H7Y19868   7.208   4.562   4.591  0.0159  0.6747 -0.0437
  175SLPC   C3819869   7.187   4.681   4.416  0.9228 -0.1378 -0.0065
  175SLPC   H8X19870   7.286   4.730   4.430  0.8638 -0.1003  0.2821
  175SLPC   H8Y19871   7.116   4.757   4.378  2.4416  0.7362 -1.2375
  175SLPC   C3919872   7.204   4.573   4.302  0.5232 -0.5882 -0.3512
  175SLPC   H9X19873   7.103   4.551   4.262 -0.5595  1.5661  0.9932
  175SLPC   H9Y19874   7.257   4.488   4.349 -1.1493 -1.3511  0.2100
  175SLPC  C31019875   7.296   4.626   4.189 -0.5541 -0.3112 -0.3361
  175SLPC  H10X19876   7.394   4.665   4.224 -0.9111  0.6463 -0.3810
  175SLPC  H10Y19877   7.244   4.715   4.147  0.0427  0.2290  0.0563
  175SLPC  C31119878   7.321   4.529   4.077  0.2270 -1.0011 -0.4210
  175SLPC  H11X19879   7.391   4.447   4.104 -0.0076 -1.3904 -0.9858
  175SLPC  H11Y19880   7.376   4.582   3.996  0.1048  0.8174  0.6198
  175SLPC  C31219881   7.192   4.465   4.018 -0.3887 -0.1123 -0.0310
  175SLPC  H12X19882   7.109   4.537   4.002 -2.2734 -1.4847  2.7684
  175SLPC  H12Y19883   7.155   4.387   4.088 -1.0687  0.3805  0.1641
  175SLPC  C31319884   7.216   4.389   3.890 -0.1357  0.2959  0.3602
  175SLPC  H13X19885   7.268   4.453   3.814  1.0074 -1.4596 -0.4041
  175SLPC  H13Y19886   7.116   4.359   3.853 -0.1015  1.0653 -0.3984
  175SLPC  C31419887   7.305   4.266   3.907 -0.0136 -0.1752 -0.0189
  175SLPC  H14X19888   7.236   4.206   3.971 -2.7685  0.4733 -2.2071
  175SLPC  H14Y19889   7.403   4.287   3.955  0.3628  0.2626 -0.9775
  175SLPC  C31519890   7.325   4.172   3.780  0.7360  0.0088 -0.1205
  175SLPC  H15X19891   7.406   4.102   3.809  0.8962 -0.5599 -1.8035
  175SLPC  H15Y19892   7.366   4.236   3.698 -0.3815  1.7672  0.6382
  175SLPC  C31619893   7.200   4.096   3.734  0.2231 -0.4618 -0.0850
  175SLPC  H16X19894   7.134   4.179   3.700  0.5662 -0.0994  0.1131
  175SLPC  H16Y19895   7.158   4.042   3.821 -0.9007  0.9426  0.2723
  175SLPC  C31719896   7.237   4.000   3.625  0.4299 -0.3722  0.3106
  175SLPC  H17X19897   7.280   4.049   3.535  1.6209 -1.6271  0.1658
  175SLPC  H17Y19898   7.142   3.957   3.589  1.1395 -0.1679 -1.9332
  175SLPC  C31819899   7.330   3.880   3.669  0.6499  0.5690  0.0954
  175SLPC  H18X19900   7.352   3.801   3.594 -0.4896  0.9217 -0.6313
  175SLPC  H18Y19901   7.279   3.817   3.745  1.6609 -1.1310 -0.5764
  175SLPC  H18Z19902   7.427   3.919   3.705  0.6289  1.1479 -0.4536
  176SLPC     N19903   5.447   1.330   5.897  0.9659 -0.4582 -0.4609
  176SLPC   C1319904   5.412   1.475   5.921  0.2631 -0.3620 -0.1241
  176SLPC  H13A19905   5.345   1.514   5.846  2.1364  0.7194 -1.3441
  176SLPC  H13B19906   5.348   1.483   6.007 -1.6254 -0.1972 -1.4890
  176SLPC  H13C19907   5.500   1.538   5.918  0.1460 -0.1180  1.1445
  176SLPC   C1419908   5.551   1.298   5.991  0.1944 -0.0753  0.0563
  176SLPC  H14A19909   5.522   1.308   6.094 -2.0736 -0.3844 -0.5172
  176SLPC  H14B19910   5.584   1.196   5.974  1.7258  0.7973 -2.9259
  176SLPC  H14C19911   5.639   1.360   5.976  2.4764 -3.0512  0.0256
  176SLPC   C1519912   5.488   1.326   5.753  0.2935 -0.1536  0.2779
  176SLPC  H15A19913   5.476   1.227   5.712  1.7693 -0.4554  0.5123
  176SLPC  H15B19914   5.437   1.394   5.686  0.6777 -1.0219 -0.9369
  176SLPC  H15C19915   5.594   1.341   5.741 -0.0362  0.3963 -2.6707
  176SLPC   C1219916   5.326   1.244   5.914  1.1053  0.2019  0.1951
  176SLPC  H12A19917   5.265   1.240   5.825  0.0321 -0.4253  0.9336
  176SLPC  H12B19918   5.273   1.268   6.005  0.1709 -0.2062 -0.2347
  176SLPC   C1119919   5.355   1.093   5.925  0.2106 -0.2956 -0.1261
  176SLPC  H11A19920   5.425   1.091   6.011  2.2792  4.0730 -1.4426
  176SLPC  H11B19921   5.415   1.049   5.843 -0.7798  1.3047 -1.7760
  176SLPC     P19922   5.148   0.967   5.837  0.1704 -0.0182  0.0234
  176SLPC   O1319923   5.042   0.883   5.905  0.1999 -0.3429  0.2689
  176SLPC   O1419924   5.101   1.083   5.758  0.4183  0.7050  0.9740
  176SLPC   O1219925   5.244   1.018   5.951 -0.9036  0.2247  0.1532
  176SLPC   O1119926   5.225   0.872   5.744  0.2341  0.0865  0.6611
  176SLPC    C119927   5.286   0.923   5.624 -0.3964  0.5878 -0.8481
  176SLPC    HA19928   5.230   0.897   5.532  0.5945  0.2933 -1.3812
  176SLPC    HB19929   5.317   1.030   5.623  2.4014 -0.1011  0.7971
  176SLPC    C219930   5.415   0.840   5.615  1.0483 -0.3527 -0.0282
  176SLPC    HS19931   5.482   0.838   5.704  0.9698  0.4063  0.0488
  176SLPC   O2119932   5.491   0.885   5.508  0.0054  0.3710  0.0222
  176SLPC   C2119933   5.564   0.998   5.523 -0.2399  0.4241 -0.1967
  176SLPC   O2219934   5.572   1.051   5.630 -0.5970  0.9638 -0.4265
  176SLPC   C2219935   5.636   1.026   5.398  0.0545 -0.1437  0.1652
  176SLPC   H2R19936   5.744   1.013   5.420  0.7834  2.2957 -1.6197
  176SLPC   H2S19937   5.600   0.965   5.312  0.7309  2.1766 -1.8518
  176SLPC    C319938   5.382   0.688   5.594  0.2494  0.5907 -0.0913
  176SLPC    HX19939   5.325   0.657   5.685 -1.0212  0.0027 -1.0572
  176SLPC    HY19940   5.471   0.622   5.595 -0.3027 -0.2206 -1.5942
  176SLPC   O3119941   5.295   0.672   5.482 -0.4766 -0.0571 -0.1416
  176SLPC   C3119942   5.361   0.637   5.371 -0.4790 -0.1009 -0.1527
  176SLPC   O3219943   5.481   0.611   5.369  0.7086  0.5740  0.7721
  176SLPC   C3219944   5.271   0.629   5.252 -0.5684 -0.8755 -0.2029
  176SLPC   H2X19945   5.175   0.683   5.266  0.0221  0.5988 -1.5071
  176SLPC   H2Y19946   5.256   0.523   5.222  1.2227 -0.9540 -0.9608
  176SLPC   C2319947   5.625   1.176   5.349  0.6064  0.4862 -0.8920
  176SLPC   H3R19948   5.647   1.162   5.241  1.8558 -0.6632 -0.5093
  176SLPC   H3S19949   5.698   1.242   5.401 -0.3996 -0.1742  1.4872
  176SLPC   C2419950   5.476   1.226   5.350 -0.0593 -0.4394  0.0132
  176SLPC   H4R19951   5.444   1.238   5.456  0.7615  1.0996  0.1111
  176SLPC   H4S19952   5.407   1.158   5.294  0.8418 -0.9567 -0.4998
  176SLPC   C2519953   5.464   1.369   5.296  0.5812 -0.0658  0.1020
  176SLPC   H5R19954   5.535   1.446   5.334  0.9456 -0.4195  0.1424
  176SLPC   H5S19955   5.368   1.418   5.323  0.6387  0.4984 -0.7163
  176SLPC   C2619956   5.482   1.361   5.146 -0.6788 -0.0617  1.0831
  176SLPC   H6R19957   5.419   1.280   5.104 -1.5580  1.5395 -0.8366
  176SLPC   H6S19958   5.587   1.331   5.122 -0.2067  2.3048 -0.1419
  176SLPC   C2719959   5.456   1.494   5.068 -0.0632  0.1668 -0.5725
  176SLPC   H7R19960   5.524   1.571   5.109  2.4655 -0.8768 -2.5399
  176SLPC   H7S19961   5.353   1.531   5.087 -0.4268  0.4501 -2.8294
  176SLPC   C2819962   5.474   1.484   4.908  0.1874  0.9557  0.5449
  176SLPC   H8R19963   5.440   1.577   4.858  0.2669  0.3411 -0.7121
  176SLPC   H8S19964   5.416   1.396   4.873 -0.2738 -0.3666  4.1964
  176SLPC   C2919965   5.622   1.446   4.879 -0.1756 -0.2734 -0.0533
  176SLPC   H9R19966   5.648   1.340   4.897  3.2747  0.6010  0.8535
  176SLPC  C21019967   5.715   1.524   4.820  0.5769  0.0664  0.0995
  176SLPC  H10R19968   5.814   1.479   4.802 -0.4721 -1.7277 -1.5874
  176SLPC  C21119969   5.705   1.660   4.756 -0.2178  0.0513 -0.4368
  176SLPC  H11R19970   5.622   1.661   4.682 -0.3169 -1.6925 -0.3990
  176SLPC  H11S19971   5.800   1.673   4.701  1.1370  1.1203  2.0166
  176SLPC  C21219972   5.688   1.771   4.848 -0.4974 -0.6777  0.2200
  176SLPC  H12R19973   5.650   1.745   4.948  1.2864 -1.5744  0.7002
  176SLPC  C21319974   5.694   1.903   4.815  0.1280  0.3570 -0.8766
  176SLPC  H13R19975   5.695   1.971   4.902  3.0076 -1.6147  0.8279
  176SLPC  C21419976   5.723   1.955   4.671  0.1617  0.4239 -0.0755
  176SLPC  H14R19977   5.695   1.880   4.594  1.0296 -0.1782  0.1825
  176SLPC  H14S19978   5.826   1.990   4.650  0.6693 -2.0734 -2.2475
  176SLPC  C21519979   5.638   2.077   4.641 -0.2416  0.3927 -0.2733
  176SLPC  H15R19980   5.667   2.153   4.716 -0.4276  0.5575 -0.3681
  176SLPC  H15S19981   5.530   2.051   4.653  0.1402 -1.1797 -0.0797
  176SLPC  C21619982   5.673   2.149   4.512  0.3132 -0.0540  0.0787
  176SLPC  H16R19983   5.629   2.102   4.422  0.7205  2.0483 -1.2928
  176SLPC  H16S19984   5.783   2.141   4.496 -0.0130 -1.9991 -1.6468
  176SLPC  C21719985   5.618   2.290   4.518 -0.0226 -0.7210  0.0746
  176SLPC  H17R19986   5.523   2.309   4.572  0.3439  1.2046  0.1033
  176SLPC  H17S19987   5.605   2.326   4.414  1.5888  0.9992  0.4096
  176SLPC  C21819988   5.726   2.390   4.567  0.3809  0.5445 -0.1158
  176SLPC  H18R19989   5.747   2.364   4.673 -0.1456  4.2995  1.0506
  176SLPC  H18S19990   5.697   2.497   4.562  1.0177  0.7107 -0.3003
  176SLPC  H18T19991   5.819   2.371   4.510  0.8054  2.2295 -0.0281
  176SLPC   C3319992   5.333   0.689   5.125 -0.1054 -0.0358 -0.0430
  176SLPC   H3X19993   5.287   0.644   5.034 -0.1026 -1.4284  0.6205
  176SLPC   H3Y19994   5.434   0.646   5.111 -1.0874 -2.1258 -1.3537
  176SLPC   C3419995   5.319   0.841   5.117  0.0385  0.4504 -0.4133
  176SLPC   H4X19996   5.380   0.878   5.033  0.1291  1.6598  0.1604
  176SLPC   H4Y19997   5.373   0.886   5.203  0.0089 -0.3496  0.0361
  176SLPC   C3519998   5.176   0.886   5.096 -0.3661 -0.4227 -0.1449
  176SLPC   H5X19999   5.126   0.885   5.195  1.2682  1.1448  0.7592
  176SLPC   H5Y20000   5.121   0.820   5.025  0.2152 -0.9071 -0.1599
  176SLPC   C3620001   5.172   1.031   5.043 -0.1480 -0.0124 -0.6456
  176SLPC   H6X20002   5.241   1.100   5.097 -1.9619 -1.2454  3.7215
  176SLPC   H6Y20003   5.070   1.070   5.064  0.4379  1.2013  0.0953
  176SLPC   C3720004   5.185   1.035   4.893 -0.0736 -0.3253 -0.1891
  176SLPC   H7X20005   5.113   0.973   4.836  0.1665  1.1050 -2.1334
  176SLPC   H7Y20006   5.284   0.995   4.862 -0.4331 -0.0035 -1.8675
  176SLPC   C3820007   5.166   1.185   4.853  0.2209  0.0905  0.2588
  176SLPC   H8X20008   5.225   1.251   4.921  0.9757  0.5421 -0.8100
  176SLPC   H8Y20009   5.059   1.205   4.875  0.1607 -1.3109  1.4186
  176SLPC   C3920010   5.222   1.214   4.714 -0.8440 -0.3379 -0.7379
  176SLPC   H9X20011   5.333   1.206   4.719 -0.8996 -0.2254  1.1308
  176SLPC   H9Y20012   5.195   1.321   4.696 -2.1704 -0.6299 -0.5956
  176SLPC  C31020013   5.199   1.118   4.593  0.0909 -1.1963 -0.1433
  176SLPC  H10X20014   5.095   1.081   4.602 -0.0489 -0.7284  0.2346
  176SLPC  H10Y20015   5.268   1.032   4.607 -0.7773 -1.6551  1.6930
  176SLPC  C31120016   5.211   1.194   4.459 -0.1843  0.0972  0.3683
  176SLPC  H11X20017   5.136   1.276   4.466 -2.5585 -1.9099 -0.1178
  176SLPC  H11Y20018   5.178   1.128   4.376  0.5534  0.8937 -0.5680
  176SLPC  C31220019   5.356   1.233   4.426 -0.1367 -0.6467 -0.4531
  176SLPC  H12X20020   5.401   1.137   4.394  0.7609 -0.4573  0.2090
  176SLPC  H12Y20021   5.409   1.276   4.514 -0.6202 -0.3723 -0.2910
  176SLPC  C31320022   5.358   1.328   4.304 -0.1940  0.0045  0.1479
  176SLPC  H13X20023   5.324   1.431   4.326 -0.0303  0.1327 -0.2005
  176SLPC  H13Y20024   5.290   1.289   4.225  0.1277 -1.0872  0.3834
  176SLPC  C31420025   5.496   1.342   4.232 -0.1903 -0.1596 -0.1268
  176SLPC  H14X20026   5.487   1.411   4.146  1.5264 -1.9287 -1.8488
  176SLPC  H14Y20027   5.517   1.239   4.195 -1.9116 -1.7671  2.9517
  176SLPC  C31520028   5.613   1.388   4.316 -0.1600 -0.4551  0.4347
  176SLPC  H15X20029   5.709   1.365   4.267  0.6642 -0.1690  1.8587
  176SLPC  H15Y20030   5.612   1.329   4.410  0.0118  0.8330  1.2760
  176SLPC  C31620031   5.607   1.538   4.359  0.1225 -0.1452  0.5355
  176SLPC  H16X20032   5.708   1.575   4.388  0.4300 -1.2728  0.9389
  176SLPC  H16Y20033   5.534   1.543   4.442 -0.9371 -2.4444 -0.1820
  176SLPC  C31720034   5.531   1.624   4.255  0.4234  0.1114 -0.3612
  176SLPC  H17X20035   5.427   1.590   4.239  0.5544 -0.4015 -0.1241
  176SLPC  H17Y20036   5.579   1.624   4.155 -1.9802  0.7489 -1.5849
  176SLPC  C31820037   5.537   1.767   4.293 -0.3728  0.4281 -0.1687
  176SLPC  H18X20038   5.642   1.805   4.295 -0.9840  2.2568 -1.0168
  176SLPC  H18Y20039   5.476   1.793   4.382  0.8349  2.2686  0.1807
  176SLPC  H18Z20040   5.493   1.833   4.215 -0.9396 -0.0707 -0.2736
  177SLPC     N20041   6.796   3.155   5.996 -0.1366  0.5820 -0.1230
  177SLPC   C1320042   6.703   3.201   6.109  0.6955  0.7646 -0.0442
  177SLPC  H13A20043   6.754   3.276   6.168  1.9334 -1.5451  2.0032
  177SLPC  H13B20044   6.604   3.234   6.082  0.5968 -1.2625 -2.5156
  177SLPC  H13C20045   6.679   3.117   6.172 -0.8228  0.8987 -0.4193
  177SLPC   C1420046   6.918   3.100   6.070 -0.3419  0.3037 -0.4712
  177SLPC  H14A20047   6.964   3.182   6.123 -1.0774  1.3249 -1.3643
  177SLPC  H14B20048   6.912   3.011   6.130  1.0497  1.4249  1.4693
  177SLPC  H14C20049   6.986   3.078   5.990  0.5912 -0.9932  0.6219
  177SLPC   C1520050   6.840   3.281   5.923  0.3419 -0.4189 -0.8555
  177SLPC  H15A20051   6.901   3.261   5.836  0.1878 -1.9150 -0.6408
  177SLPC  H15B20052   6.755   3.335   5.884 -1.0931 -2.5974 -0.9091
  177SLPC  H15C20053   6.899   3.351   5.980  0.9837 -0.8963 -0.9275
  177SLPC   C1220054   6.720   3.058   5.901 -0.2818  0.4827  0.3778
  177SLPC  H12A20055   6.637   3.112   5.859 -0.3470 -0.5935 -0.9519
  177SLPC  H12B20056   6.670   2.976   5.951  0.5855 -0.0748  0.3608
  177SLPC   C1120057   6.793   2.984   5.793 -0.2144  0.0614  0.0741
  177SLPC  H11A20058   6.827   3.059   5.719  2.7834 -2.1635 -1.0059
  177SLPC  H11B20059   6.727   2.908   5.746 -2.9493 -0.1074  3.7022
  177SLPC     P20060   6.904   2.791   5.909  0.1602  0.0270 -0.2896
  177SLPC   O1320061   6.979   2.808   6.037 -0.3480  0.0128 -0.0013
  177SLPC   O1420062   6.764   2.742   5.911 -0.3455 -0.4543  0.9711
  177SLPC   O1220063   6.923   2.927   5.827 -0.0407  0.2428  0.2417
  177SLPC   O1120064   6.997   2.696   5.819 -0.0520  0.4941 -0.5791
  177SLPC    C120065   7.112   2.734   5.747 -0.7677  0.2760  0.3370
  177SLPC    HA20066   7.174   2.808   5.801  1.5826  1.3921 -3.4505
  177SLPC    HB20067   7.183   2.651   5.726  2.1924  2.5555  0.5414
  177SLPC    C220068   7.087   2.808   5.610 -0.0605 -0.3267 -0.3594
  177SLPC    HS20069   7.018   2.894   5.627 -0.2511 -0.4100 -0.7151
  177SLPC   O2120070   7.049   2.710   5.512  0.4720  0.0061  0.1703
  177SLPC   C2120071   6.948   2.747   5.439 -0.8938  0.6325  0.5129
  177SLPC   O2220072   6.883   2.847   5.449 -0.4761 -0.4527 -0.0489
  177SLPC   C2220073   6.928   2.644   5.331 -0.1542 -0.0807 -0.0123
  177SLPC   H2R20074   7.020   2.626   5.272  0.0904 -1.5134  0.7790
  177SLPC   H2S20075   6.893   2.550   5.378 -2.0118  0.2177 -0.7003
  177SLPC    C320076   7.213   2.884   5.556 -0.1045  0.4103 -0.1845
  177SLPC    HX20077   7.277   2.806   5.510 -0.6997 -0.3175  0.2084
  177SLPC    HY20078   7.262   2.933   5.643  0.9880  2.4375 -1.8305
  177SLPC   O3120079   7.179   2.997   5.468  0.3231 -0.0279  0.4856
  177SLPC   C3120080   7.182   2.968   5.329  0.5033  0.5504 -0.0579
  177SLPC   O3220081   7.196   2.856   5.281  0.6770 -0.2116  0.0427
  177SLPC   C3220082   7.161   3.098   5.246  0.3238 -0.8052  0.4600
  177SLPC   H2X20083   7.216   3.176   5.303  1.8757 -2.2531  1.0229
  177SLPC   H2Y20084   7.052   3.108   5.231  0.6764  0.4583 -1.5491
  177SLPC   C2320085   6.821   2.684   5.225 -0.9952  0.8518  0.3025
  177SLPC   H3R20086   6.865   2.757   5.153  0.7865  0.5066  0.9891
  177SLPC   H3S20087   6.737   2.727   5.283  0.0103  2.6272  0.5064
  177SLPC   C2420088   6.763   2.558   5.155  0.2740  0.3467 -0.9453
  177SLPC   H4R20089   6.660   2.576   5.117 -1.3364 -1.0889  2.3874
  177SLPC   H4S20090   6.749   2.482   5.234 -0.7843 -2.0815 -3.2833
  177SLPC   C2520091   6.854   2.493   5.055 -0.2780  0.5595  0.2192
  177SLPC   H5R20092   6.817   2.392   5.028 -0.3132  0.8316 -0.7869
  177SLPC   H5S20093   6.951   2.469   5.105 -0.0060  0.9530 -0.1219
  177SLPC   C2620094   6.867   2.573   4.929 -0.1398 -1.3127  0.4315
  177SLPC   H6R20095   6.905   2.675   4.952 -2.4742 -0.4135  0.5947
  177SLPC   H6S20096   6.770   2.605   4.884  1.7533  2.2358 -1.5864
  177SLPC   C2720097   6.945   2.497   4.818 -0.4286 -0.7162 -0.1721
  177SLPC   H7R20098   7.023   2.431   4.862 -0.1722  0.1309  0.6881
  177SLPC   H7S20099   7.011   2.571   4.768 -0.0661 -1.6329 -1.0920
  177SLPC   C2820100   6.859   2.424   4.714  0.3318 -0.9249  0.4090
  177SLPC   H8R20101   6.786   2.494   4.669  1.8113  0.0661 -0.5501
  177SLPC   H8S20102   6.808   2.350   4.779 -2.4563 -0.2437 -0.8634
  177SLPC   C2920103   6.939   2.360   4.604 -0.6018 -0.2958 -0.1029
  177SLPC   H9R20104   7.015   2.286   4.631 -0.7324 -0.3365  0.1582
  177SLPC  C21020105   6.923   2.374   4.471 -0.0612  0.1889  0.0316
  177SLPC  H10R20106   6.999   2.329   4.406 -0.2564 -0.2619  0.1108
  177SLPC  C21120107   6.821   2.466   4.412 -0.1443 -0.2659 -0.0307
  177SLPC  H11R20108   6.853   2.572   4.401 -0.5253 -0.2387 -1.0074
  177SLPC  H11S20109   6.721   2.474   4.459  0.5154  2.4723  1.0718
  177SLPC  C21220110   6.809   2.412   4.264 -0.7238 -0.2066 -1.0826
  177SLPC  H12R20111   6.899   2.427   4.203  0.1801 -0.4249  0.1557
  177SLPC  C21320112   6.697   2.366   4.199 -0.3106  0.6848 -0.2158
  177SLPC  H13R20113   6.697   2.334   4.094 -0.8038  0.1577 -0.0581
  177SLPC  C21420114   6.560   2.339   4.263 -0.6568 -0.2021  0.0460
  177SLPC  H14R20115   6.482   2.369   4.189 -0.8093  1.9376  0.9979
  177SLPC  H14S20116   6.550   2.407   4.350  0.7755 -0.8760  0.7636
  177SLPC  C21520117   6.535   2.201   4.316 -0.3038 -0.5152 -0.0228
  177SLPC  H15R20118   6.549   2.123   4.238 -0.2690 -2.4785  1.8588
  177SLPC  H15S20119   6.428   2.207   4.344 -0.5273 -1.6288 -0.5870
  177SLPC  C21620120   6.617   2.163   4.443 -0.8499 -0.2956 -0.3305
  177SLPC  H16R20121   6.636   2.250   4.509  0.4754  0.7568 -1.9969
  177SLPC  H16S20122   6.718   2.137   4.405 -0.5498 -1.8085  1.3600
  177SLPC  C21720123   6.557   2.054   4.530 -0.4985  0.3561  0.4145
  177SLPC  H17R20124   6.534   1.964   4.468  0.1516 -0.2933  1.0945
  177SLPC  H17S20125   6.459   2.089   4.568 -0.3917 -2.2247  3.5055
  177SLPC  C21820126   6.647   2.014   4.647 -0.1181  0.5472  0.2863
  177SLPC  H18R20127   6.590   1.943   4.711  0.9820 -1.2249 -0.5951
  177SLPC  H18S20128   6.682   2.104   4.701  0.8305 -1.1935  2.7982
  177SLPC  H18T20129   6.731   1.947   4.617 -0.7910  0.2876 -1.0821
  177SLPC   C3320130   7.204   3.083   5.101 -0.0039 -0.6786  0.4870
  177SLPC   H3X20131   7.302   3.030   5.093  1.0265  1.0560  1.0670
  177SLPC   H3Y20132   7.212   3.182   5.050 -1.9108  0.3371  2.0557
  177SLPC   C3420133   7.113   3.005   5.002 -0.3382  0.4961  0.2133
  177SLPC   H4X20134   7.016   3.061   5.002  0.3878  1.8488  1.5693
  177SLPC   H4Y20135   7.099   2.899   5.032 -1.6472  0.2152 -1.2561
  177SLPC   C3520136   7.181   2.999   4.868  0.5105  0.2211  0.2596
  177SLPC   H5X20137   7.272   2.938   4.882 -0.3601 -0.9609  0.9397
  177SLPC   H5Y20138   7.235   3.090   4.833  0.9719 -0.5118 -0.9671
  177SLPC   C3620139   7.097   2.934   4.754  0.3981  0.0785 -0.1781
  177SLPC   H6X20140   6.994   2.976   4.752  0.3603 -0.0271 -0.7098
  177SLPC   H6Y20141   7.083   2.831   4.794 -2.1186  0.8358  1.1271
  177SLPC   C3720142   7.160   2.931   4.618  0.5859 -0.4259  0.5227
  177SLPC   H7X20143   7.271   2.933   4.611  0.4966  2.0732 -2.2381
  177SLPC   H7Y20144   7.130   3.032   4.583 -2.2983 -0.8636  1.5273
  177SLPC   C3820145   7.099   2.823   4.522 -0.4510 -0.1033 -0.0461
  177SLPC   H8X20146   7.000   2.850   4.479  0.7718  0.3463 -2.7886
  177SLPC   H8Y20147   7.092   2.738   4.593  0.0953  0.8186  1.1459
  177SLPC   C3920148   7.178   2.787   4.397 -0.5967  0.0025  0.0840
  177SLPC   H9X20149   7.284   2.779   4.430 -0.7015  0.2056  0.4726
  177SLPC   H9Y20150   7.175   2.871   4.325  0.6070 -1.2664 -1.5420
  177SLPC  C31020151   7.119   2.659   4.331 -0.0057 -0.3341  0.0067
  177SLPC  H10X20152   7.014   2.685   4.305 -0.1573 -1.1634 -0.2125
  177SLPC  H10Y20153   7.137   2.571   4.397  1.1419 -2.0928 -2.5188
  177SLPC  C31120154   7.199   2.629   4.201  0.5279 -0.0037 -0.0658
  177SLPC  H11X20155   7.163   2.533   4.157  1.1769  0.0673 -0.7644
  177SLPC  H11Y20156   7.305   2.604   4.227  0.7542 -0.3037 -1.2421
  177SLPC  C31220157   7.184   2.746   4.099  0.2911 -0.8288  0.5600
  177SLPC  H12X20158   7.241   2.718   4.008  1.2085  1.9353  0.2034
  177SLPC  H12Y20159   7.229   2.838   4.141  0.6809 -1.3793  1.3908
  177SLPC  C31320160   7.040   2.774   4.053  0.0295  0.5725 -0.3192
  177SLPC  H13X20161   6.977   2.792   4.144  1.4235  1.2105  0.5478
  177SLPC  H13Y20162   6.997   2.686   4.000 -0.7349  0.0377  1.1247
  177SLPC  C31420163   7.026   2.897   3.975  0.6604 -1.7857 -0.2620
  177SLPC  H14X20164   7.091   2.889   3.885  2.9812 -0.5270  1.2219
  177SLPC  H14Y20165   7.053   2.985   4.037 -0.7877 -1.2949 -0.2911
  177SLPC  C31520166   6.882   2.927   3.938  0.9700 -0.0506  0.1021
  177SLPC  H15X20167   6.819   2.959   4.024 -0.0576 -2.9422  0.5253
  177SLPC  H15Y20168   6.837   2.831   3.907  0.5545 -0.4788  1.8930
  177SLPC  C31620169   6.860   3.020   3.820  0.9927  0.4402 -0.4376
  177SLPC  H16X20170   6.917   2.990   3.729  0.5867 -1.7002 -0.0371
  177SLPC  H16Y20171   6.911   3.113   3.851  0.4594  0.0568  1.7078
  177SLPC  C31720172   6.714   3.057   3.790 -0.3037 -0.3570 -0.2596
  177SLPC  H17X20173   6.713   3.141   3.718 -0.4134 -2.0559 -2.3313
  177SLPC  H17Y20174   6.664   3.086   3.885  0.8614  1.5308 -0.1719
  177SLPC  C31820175   6.650   2.928   3.731 -0.5294 -1.1366 -1.0728
  177SLPC  H18X20176   6.704   2.915   3.635  1.1936 -2.4478  0.0161
  177SLPC  H18Y20177   6.542   2.945   3.709 -0.7877 -1.4404 -0.0847
  177SLPC  H18Z20178   6.653   2.841   3.800 -0.9989 -0.2145  0.1595
  178SLPC     N20179   1.509   6.905   6.170  0.4150 -0.2371 -0.4991
  178SLPC   C1320180   1.569   7.038   6.213  0.0119 -0.4027  1.0981
  178SLPC  H13A20181   1.518   7.115   6.157 -0.2240 -0.2949  1.4559
  178SLPC  H13B20182   1.565   7.061   6.319  1.6848 -0.8447  1.2883
  178SLPC  H13C20183   1.675   7.039   6.194 -0.3392  4.6096 -2.3292
  178SLPC   C1420184   1.362   6.908   6.186 -0.3840  0.3717  0.1682
  178SLPC  H14A20185   1.320   7.001   6.149  0.2577  0.6666  0.1627
  178SLPC  H14B20186   1.323   6.822   6.134  1.3636 -1.2183  1.3531
  178SLPC  H14C20187   1.323   6.898   6.287  0.7100  0.1820  0.5840
  178SLPC   C1520188   1.573   6.799   6.257  0.7761  0.5667  0.2988
  178SLPC  H15A20189   1.550   6.700   6.220  2.4682 -0.5576  2.0366
  178SLPC  H15B20190   1.681   6.812   6.258  1.0856 -1.0130 -2.1178
  178SLPC  H15C20191   1.536   6.808   6.358 -0.7421  2.6731 -0.3775
  178SLPC   C1220192   1.542   6.873   6.022 -0.4966  0.1722 -0.0117
  178SLPC  H12A20193   1.490   6.954   5.971 -1.3839 -1.2965 -1.5319
  178SLPC  H12B20194   1.488   6.787   5.987 -0.9765  0.8640 -1.0402
  178SLPC   C1120195   1.690   6.862   5.976  0.1980  0.3443 -0.0372
  178SLPC  H11A20196   1.715   6.796   5.890 -0.9904  1.0490 -0.9675
  178SLPC  H11B20197   1.746   6.809   6.055 -0.2723 -2.8761 -1.6680
  178SLPC     P20198   1.687   7.119   5.885 -0.2384 -0.1584 -0.2978
  178SLPC   O1320199   1.547   7.138   5.927 -0.6725 -0.5053 -0.3648
  178SLPC   O1420200   1.780   7.232   5.906 -0.0068  0.8141  0.2150
  178SLPC   O1220201   1.752   6.991   5.946 -0.7062 -0.3598 -0.3336
  178SLPC   O1120202   1.687   7.070   5.734  0.8411  0.0084  0.4745
  178SLPC    C120203   1.793   7.002   5.669 -0.3869  0.5006  0.2434
  178SLPC    HA20204   1.813   6.902   5.713  0.4380  0.4988 -0.1003
  178SLPC    HB20205   1.757   6.971   5.569  0.4746  0.3547 -0.0363
  178SLPC    C220206   1.928   7.090   5.638 -0.0229  0.0747  0.7721
  178SLPC    HS20207   1.966   7.117   5.739  3.6889  0.8085 -0.6631
  178SLPC   O2120208   1.894   7.207   5.557  0.1741  0.5300  0.0838
  178SLPC   C2120209   1.994   7.286   5.534 -0.5159  0.4906  0.3058
  178SLPC   O2220210   2.092   7.295   5.607 -0.0420  0.4027 -0.0434
  178SLPC   C2220211   1.952   7.384   5.413  0.1255  0.1683 -0.7228
  178SLPC   H2R20212   1.876   7.451   5.457 -1.4224 -1.8836 -0.1494
  178SLPC   H2S20213   2.037   7.452   5.390  1.9656 -0.8126  2.4872
  178SLPC    C320214   2.046   7.006   5.578  0.8321  0.7219 -0.1627
  178SLPC    HX20215   2.056   6.915   5.640 -1.3395 -0.7593 -1.7932
  178SLPC    HY20216   2.138   7.066   5.592  0.1346  1.8133 -0.1115
  178SLPC   O3120217   2.021   6.981   5.438  0.3009  0.2939 -0.4140
  178SLPC   C3120218   1.990   6.849   5.415  0.6180 -0.5129 -0.8643
  178SLPC   O3220219   1.973   6.763   5.495 -0.5245  0.2498 -0.4069
  178SLPC   C3220220   1.947   6.840   5.267 -0.4308 -0.0617  0.1112
  178SLPC   H2X20221   1.937   6.732   5.246  1.0904 -0.2966  0.4374
  178SLPC   H2Y20222   2.038   6.875   5.213 -0.2902 -2.3440 -1.2420
  178SLPC   C2320223   1.903   7.309   5.286  1.3203 -0.4392  0.1026
  178SLPC   H3R20224   1.806   7.256   5.299 -0.1243  1.9754 -0.2318
  178SLPC   H3S20225   1.982   7.231   5.270  1.8006 -0.0554  0.5736
  178SLPC   C2420226   1.910   7.400   5.158 -0.3940  0.6673 -0.0396
  178SLPC   H4R20227   1.989   7.476   5.174  2.0936 -1.7697 -0.0084
  178SLPC   H4S20228   1.818   7.460   5.145 -0.7601  0.2869  0.7529
  178SLPC   C2520229   1.913   7.323   5.029 -0.6482 -0.3068 -0.8234
  178SLPC   H5R20230   1.837   7.243   5.039  1.3884 -2.5593 -2.2859
  178SLPC   H5S20231   2.009   7.269   5.018 -0.8467 -0.4665 -1.9688
  178SLPC   C2620232   1.889   7.406   4.908 -0.1025  0.3309 -0.0868
  178SLPC   H6R20233   1.978   7.467   4.883  0.1136 -0.5548 -1.5423
  178SLPC   H6S20234   1.803   7.475   4.922 -0.8708 -0.4178 -1.0126
  178SLPC   C2720235   1.855   7.313   4.779  0.1094 -0.1228  0.2955
  178SLPC   H7R20236   1.756   7.265   4.795 -0.5763  1.0723 -0.2142
  178SLPC   H7S20237   1.937   7.239   4.774  1.4789  1.3982 -1.0170
  178SLPC   C2820238   1.849   7.405   4.657 -0.6237 -0.1808  0.3872
  178SLPC   H8R20239   1.887   7.346   4.571 -1.6623  0.8890 -0.8529
  178SLPC   H8S20240   1.922   7.486   4.682 -0.5616 -0.7771  2.3146
  178SLPC   C2920241   1.714   7.465   4.627 -0.0531 -0.4541  0.3833
  178SLPC   H9R20242   1.697   7.564   4.672  0.8240  0.2410 -0.7634
  178SLPC  C21020243   1.610   7.420   4.559  0.0098 -0.2722  0.3126
  178SLPC  H10R20244   1.513   7.471   4.568 -0.7201 -0.9891 -2.2894
  178SLPC  C21120245   1.608   7.289   4.483 -0.8229 -0.0951  0.4548
  178SLPC  H11R20246   1.509   7.243   4.503 -0.9371 -1.0159 -1.9588
  178SLPC  H11S20247   1.678   7.215   4.528 -0.5106  0.2906  0.6100
  178SLPC  C21220248   1.629   7.291   4.332  0.4196  0.0410 -0.4427
  178SLPC  H12R20249   1.670   7.384   4.291  0.3771  0.1430 -0.2551
  178SLPC  C21320250   1.594   7.196   4.247  0.3769  0.4231 -0.4600
  178SLPC  H13R20251   1.638   7.189   4.147  0.8360  0.6760 -0.2747
  178SLPC  C21420252   1.523   7.066   4.292  0.5228 -0.5626  0.0625
  178SLPC  H14R20253   1.466   7.039   4.201 -1.2553  1.4929  0.4983
  178SLPC  H14S20254   1.454   7.094   4.374  1.1215  1.1062  0.0342
  178SLPC  C21520255   1.629   6.957   4.325  0.4494  0.0952 -0.6213
  178SLPC  H15R20256   1.576   6.873   4.374  0.0877  0.0855 -1.0240
  178SLPC  H15S20257   1.694   6.998   4.405  0.3464  0.8787 -0.9281
  178SLPC  C21620258   1.704   6.925   4.203 -0.4142 -0.4070 -0.0638
  178SLPC  H16R20259   1.779   7.004   4.177 -0.4343 -0.3398  0.0842
  178SLPC  H16S20260   1.625   6.921   4.125 -2.1623 -0.7623  1.6774
  178SLPC  C21720261   1.776   6.799   4.216  0.1329  0.6810 -0.4544
  178SLPC  H17R20262   1.704   6.718   4.241  0.4781  0.6895  0.6009
  178SLPC  H17S20263   1.852   6.796   4.297  0.1002  4.4427 -0.1328
  178SLPC  C21820264   1.846   6.754   4.085  0.1535  0.0623 -0.3742
  178SLPC  H18R20265   1.777   6.755   3.997  0.1138  3.1960 -0.4386
  178SLPC  H18S20266   1.904   6.662   4.105  0.4662  0.4311  0.4471
  178SLPC  H18T20267   1.920   6.834   4.062 -0.9979  1.3889  0.3845
  178SLPC   C3320268   1.822   6.917   5.228  0.4709 -0.6736 -0.3148
  178SLPC   H3X20269   1.837   7.016   5.182 -2.1064 -0.2043 -0.3284
  178SLPC   H3Y20270   1.756   6.935   5.316 -1.3149 -3.0243 -1.0554
  178SLPC   C3420271   1.723   6.833   5.145  0.5312  0.5256 -0.1361
  178SLPC   H4X20272   1.698   6.739   5.199  0.0289  0.5072 -0.4029
  178SLPC   H4Y20273   1.783   6.815   5.053 -0.4528  0.5310 -0.7855
  178SLPC   C3520274   1.601   6.914   5.092 -0.5308  0.9964 -0.3788
  178SLPC   H5X20275   1.554   6.970   5.177 -1.6527 -1.8687  1.0184
  178SLPC   H5Y20276   1.523   6.844   5.057  0.6594  1.3664 -4.2170
  178SLPC   C3620277   1.627   7.003   4.971  0.2829 -1.0139  0.1480
  178SLPC   H6X20278   1.725   7.055   4.975 -0.3417  0.1575  0.6240
  178SLPC   H6Y20279   1.541   7.073   4.972  1.3397  0.3353  0.8669
  178SLPC   C3720280   1.619   6.910   4.853 -0.0114  0.5040  0.3986
  178SLPC   H7X20281   1.512   6.886   4.834 -0.2619  1.3192  0.7163
  178SLPC   H7Y20282   1.672   6.813   4.868 -0.7608  0.1613  0.9255
  178SLPC   C3820283   1.667   6.986   4.722 -0.4954  0.6556  0.6154
  178SLPC   H8X20284   1.638   7.093   4.716 -1.6270  0.3130 -0.5912
  178SLPC   H8Y20285   1.628   6.929   4.635  1.0780 -2.4007  1.7625
  178SLPC   C3920286   1.820   6.986   4.713 -0.2199  0.0101 -0.1518
  178SLPC   H9X20287   1.854   6.995   4.819 -0.8142 -0.7717  0.1236
  178SLPC   H9Y20288   1.850   7.069   4.647  2.3245  0.3393  1.2603
  178SLPC  C31020289   1.865   6.852   4.658 -0.2811 -0.4067 -0.3252
  178SLPC  H10X20290   1.784   6.827   4.585 -0.1049  0.6463 -0.9024
  178SLPC  H10Y20291   1.858   6.769   4.731 -0.4108  1.0860  1.4362
  178SLPC  C31120292   2.003   6.851   4.595  0.7308 -0.7584 -0.2366
  178SLPC  H11X20293   2.023   6.753   4.546 -0.9304 -0.5338 -1.4602
  178SLPC  H11Y20294   2.087   6.848   4.669  0.1412  0.7464  0.5322
  178SLPC  C31220295   2.027   6.953   4.487 -0.6316  0.0920 -0.2481
  178SLPC  H12X20296   2.029   7.056   4.529 -2.4569  0.0056  0.1106
  178SLPC  H12Y20297   1.943   6.947   4.414  0.2384 -1.1453 -1.2027
  178SLPC  C31320298   2.153   6.922   4.407 -0.2381  0.5784 -0.7067
  178SLPC  H13X20299   2.137   6.952   4.302  1.2878 -0.0751 -1.1633
  178SLPC  H13Y20300   2.171   6.812   4.411 -1.5278  0.3652 -0.2407
  178SLPC  C31420301   2.276   6.992   4.461  0.2433 -0.3439 -0.0391
  178SLPC  H14X20302   2.279   6.969   4.570  1.9034 -2.2371 -0.4366
  178SLPC  H14Y20303   2.275   7.103   4.450 -2.6304 -0.2392  0.3351
  178SLPC  C31520304   2.401   6.931   4.396 -0.0679  0.6744 -0.3517
  178SLPC  H15X20305   2.400   6.821   4.414  2.5289  0.6529  0.0010
  178SLPC  H15Y20306   2.501   6.967   4.426  0.7878 -0.6488 -1.4839
  178SLPC  C31620307   2.388   6.966   4.249 -0.1575 -0.2691 -0.8090
  178SLPC  H16X20308   2.356   7.073   4.244 -2.2106 -0.7628  0.5026
  178SLPC  H16Y20309   2.321   6.898   4.193  0.8050 -0.3328 -1.9236
  178SLPC  C31720310   2.518   6.954   4.169 -0.0713 -0.5261  0.8657
  178SLPC  H17X20311   2.568   6.856   4.185  2.8038  1.0606  2.6280
  178SLPC  H17Y20312   2.591   7.025   4.214  0.0879  0.2562 -0.5914
  178SLPC  C31820313   2.503   6.977   4.016  0.9866 -0.9761  0.8216
  178SLPC  H18X20314   2.591   6.937   3.961 -0.1429 -0.1218 -1.7402
  178SLPC  H18Y20315   2.506   7.086   3.996 -2.1045 -1.2109 -1.6957
  178SLPC  H18Z20316   2.406   6.937   3.979  0.6266 -0.3307  1.0585
  179SLPC     N20317   3.096   2.235   2.084 -0.6613  0.8820 -0.2176
  179SLPC   C1320318   3.241   2.270   2.109 -0.4591  0.7512 -0.6156
  179SLPC  H13A20319   3.271   2.330   2.024 -0.3188  0.3557 -0.8488
  179SLPC  H13B20320   3.252   2.327   2.201  0.6984 -4.3016  2.7739
  179SLPC  H13C20321   3.303   2.182   2.112  2.4501  2.4796 -3.1988
  179SLPC   C1420322   3.087   2.180   1.949  0.5391 -0.4799  0.6680
  179SLPC  H14A20323   3.142   2.088   1.935 -0.7018 -1.1456 -0.0779
  179SLPC  H14B20324   2.986   2.145   1.931 -0.4143  1.9595  0.9008
  179SLPC  H14C20325   3.108   2.258   1.877 -1.7753  1.6500  2.1410
  179SLPC   C1520326   3.013   2.357   2.087  0.1260 -0.2994 -0.3587
  179SLPC  H15A20327   3.050   2.439   2.028 -2.5515  0.4215 -1.1645
  179SLPC  H15B20328   2.911   2.336   2.056 -0.4848  2.0991 -0.1144
  179SLPC  H15C20329   3.002   2.385   2.190 -1.4669  0.7855 -0.7960
  179SLPC   C1220330   3.044   2.142   2.193 -1.0651  0.0287  0.0884
  179SLPC  H12A20331   3.097   2.049   2.181 -0.1696  0.5463 -0.0755
  179SLPC  H12B20332   2.938   2.130   2.178 -1.1966 -2.1348  2.2079
  179SLPC   C1120333   3.053   2.191   2.343 -0.5966 -0.0740 -0.0369
  179SLPC  H11A20334   3.157   2.224   2.362  0.6910 -1.4695 -3.7533
  179SLPC  H11B20335   3.031   2.097   2.398  1.1527 -1.0135 -0.8925
  179SLPC     P20336   2.813   2.308   2.380 -0.4836  0.4853 -0.2579
  179SLPC   O1320337   2.751   2.377   2.268  0.2753  0.0089  0.6681
  179SLPC   O1420338   2.765   2.170   2.410  0.6449 -0.6133  0.0113
  179SLPC   O1220339   2.971   2.312   2.359  0.0481  0.2887 -0.3939
  179SLPC   O1120340   2.790   2.392   2.515  0.9006 -0.5931  0.5646
  179SLPC    C120341   2.881   2.482   2.567  0.0582 -0.3575  0.2386
  179SLPC    HA20342   2.973   2.424   2.592 -2.1854 -3.9836  0.6561
  179SLPC    HB20343   2.894   2.577   2.511 -0.4763  0.2806  1.1664
  179SLPC    C220344   2.813   2.537   2.698  0.2209 -0.3323 -0.4505
  179SLPC    HS20345   2.872   2.605   2.764 -1.3146 -0.7145  1.3969
  179SLPC   O2120346   2.771   2.421   2.781  0.0258 -0.3791 -0.1857
  179SLPC   C2120347   2.876   2.368   2.844 -0.2513  0.7069  0.7377
  179SLPC   O2220348   2.991   2.410   2.838  0.4611  0.1192 -0.2087
  179SLPC   C2220349   2.831   2.237   2.920 -0.2018 -0.2201  0.3012
  179SLPC   H2R20350   2.724   2.216   2.899 -0.2797 -1.0073  1.4221
  179SLPC   H2S20351   2.890   2.159   2.868 -0.4584  0.0594 -0.4319
  179SLPC    C320352   2.688   2.618   2.660  1.0456 -0.2730 -0.3080
  179SLPC    HX20353   2.624   2.539   2.614  3.2069 -1.1498 -1.9819
  179SLPC    HY20354   2.713   2.696   2.585  0.3862  0.6574  0.4192
  179SLPC   O3120355   2.619   2.691   2.771 -0.5846  0.5069 -0.3453
  179SLPC   C3120356   2.486   2.677   2.777  0.1845  0.0395  0.6844
  179SLPC   O3220357   2.420   2.617   2.698 -0.0077  0.0208 -0.4259
  179SLPC   C3220358   2.432   2.768   2.880  0.7199  0.0037  0.0286
  179SLPC   H2X20359   2.386   2.715   2.966 -1.6832  2.0254  0.0950
  179SLPC   H2Y20360   2.372   2.846   2.828  1.4408  0.9568  0.6013
  179SLPC   C2320361   2.882   2.237   3.066 -0.0737  0.7825 -0.5203
  179SLPC   H3R20362   2.865   2.131   3.094  1.7799 -0.1039 -2.4070
  179SLPC   H3S20363   2.822   2.288   3.144  1.2302  0.8050  0.4946
  179SLPC   C2420364   3.031   2.267   3.097  0.0162 -0.3212  0.1535
  179SLPC   H4R20365   3.048   2.376   3.113 -0.9231 -0.2209  0.5244
  179SLPC   H4S20366   3.102   2.238   3.017 -0.6374 -1.4859 -0.0201
  179SLPC   C2520367   3.082   2.203   3.227  0.2588  0.0198  0.3405
  179SLPC   H5R20368   3.187   2.233   3.247  0.1071 -0.4897  2.1115
  179SLPC   H5S20369   3.076   2.094   3.207 -2.8265  0.4558 -1.9073
  179SLPC   C2620370   3.004   2.241   3.349  0.4769  0.2050  0.1214
  179SLPC   H6R20371   2.902   2.199   3.337 -0.2104  1.9607 -0.5562
  179SLPC   H6S20372   3.025   2.349   3.361  2.8565 -0.2642  0.7715
  179SLPC   C2720373   3.065   2.179   3.477 -0.1946  0.5004  0.0478
  179SLPC   H7R20374   3.010   2.205   3.570 -0.8261 -3.7136  1.0939
  179SLPC   H7S20375   3.172   2.205   3.494 -0.1107 -0.2573  0.7695
  179SLPC   C2820376   3.054   2.027   3.488 -0.2574 -0.1278  0.7844
  179SLPC   H8R20377   3.115   2.002   3.578  1.3036  1.3858  0.2078
  179SLPC   H8S20378   3.117   1.981   3.409 -0.7541  0.1966  0.1920
  179SLPC   C2920379   2.913   1.978   3.498  0.0169 -0.0548  0.2372
  179SLPC   H9R20380   2.857   1.996   3.405  1.5301 -1.3231 -0.9861
  179SLPC  C21020381   2.858   1.921   3.607  0.1484  0.0968 -0.0854
  179SLPC  H10R20382   2.751   1.897   3.618  0.1947  0.6008  1.9958
  179SLPC  C21120383   2.924   1.895   3.745  0.1528  0.0733  0.0327
  179SLPC  H11R20384   3.021   1.843   3.728  0.5884  0.8772  0.0261
  179SLPC  H11S20385   2.849   1.831   3.796 -1.6453  0.9356 -1.4282
  179SLPC  C21220386   2.936   2.010   3.839  0.6297  0.1571  0.0843
  179SLPC  H12R20387   2.846   2.073   3.828  0.5993  0.0788 -0.1229
  179SLPC  C21320388   3.038   2.042   3.917 -0.2513 -0.7573 -0.5277
  179SLPC  H13R20389   3.030   2.138   3.969 -1.6764 -0.0076 -2.0389
  179SLPC  C21420390   3.158   1.958   3.929 -0.5902 -0.3539  0.3386
  179SLPC  H14R20391   3.197   1.931   3.829 -2.6303 -0.7980 -0.3852
  179SLPC  H14S20392   3.139   1.858   3.974  2.1355 -1.2668 -0.3398
  179SLPC  C21520393   3.266   2.022   4.011  0.8336 -0.2133  0.2752
  179SLPC  H15R20394   3.222   2.053   4.108  1.5649 -0.4717  0.7034
  179SLPC  H15S20395   3.307   2.117   3.970  0.5679 -1.1660 -2.3672
  179SLPC  C21620396   3.372   1.923   4.038 -0.1346  0.4296  0.0045
  179SLPC  H16R20397   3.400   1.862   3.949 -2.5018  0.4428 -0.8123
  179SLPC  H16S20398   3.324   1.852   4.109 -0.5069 -0.7161 -1.3524
  179SLPC  C21720399   3.498   1.984   4.099  0.4923 -1.0142  0.2933
  179SLPC  H17R20400   3.472   2.064   4.172 -0.5401 -1.2925  0.2425
  179SLPC  H17S20401   3.553   2.038   4.020 -1.2572  0.5371  0.0636
  179SLPC  C21820402   3.587   1.883   4.165  0.5922 -0.4343 -0.6223
  179SLPC  H18R20403   3.528   1.812   4.227  1.0842 -0.4641 -0.1760
  179SLPC  H18S20404   3.661   1.938   4.227 -0.4311 -0.3188  0.5230
  179SLPC  H18T20405   3.645   1.820   4.093  0.9671  0.7271 -1.3637
  179SLPC   C3320406   2.545   2.857   2.946  0.4789 -0.1071 -0.3128
  179SLPC   H3X20407   2.579   2.921   2.862  3.3903 -1.4832 -0.3209
  179SLPC   H3Y20408   2.623   2.787   2.983  0.3132 -0.3034 -0.3315
  179SLPC   C3420409   2.499   2.945   3.067  0.1010 -0.1922 -0.2540
  179SLPC   H4X20410   2.453   2.887   3.149 -2.3056 -0.3721 -1.6317
  179SLPC   H4Y20411   2.420   3.015   3.031 -0.0015 -0.0392  0.2713
  179SLPC   C3520412   2.625   3.027   3.108  0.3124 -0.9674 -0.0606
  179SLPC   H5X20413   2.701   2.956   3.148  0.5329 -0.5614  0.2422
  179SLPC   H5Y20414   2.685   3.079   3.031  1.3927 -1.3711  0.4842
  179SLPC   C3620415   2.607   3.139   3.216 -0.7218  0.1477  0.9637
  179SLPC   H6X20416   2.538   3.214   3.172 -1.7197 -0.7331  1.0033
  179SLPC   H6Y20417   2.706   3.186   3.235 -1.2882  1.8327 -0.0496
  179SLPC   C3720418   2.553   3.085   3.349  0.6662 -0.0024 -0.3886
  179SLPC   H7X20419   2.605   2.991   3.379 -1.0003 -0.9508 -0.3437
  179SLPC   H7Y20420   2.446   3.064   3.326  0.3048  1.5902 -0.2898
  179SLPC   C3820421   2.567   3.188   3.463 -0.0080  0.0737  0.1830
  179SLPC   H8X20422   2.672   3.218   3.487 -0.0516  0.1542  0.2724
  179SLPC   H8Y20423   2.532   3.138   3.556  0.1051 -1.4150 -0.5449
  179SLPC   C3920424   2.474   3.308   3.439  0.3653  0.1648 -0.3685
  179SLPC   H9X20425   2.375   3.275   3.400  1.1420 -3.1118  0.1808
  179SLPC   H9Y20426   2.516   3.363   3.352  0.4805  1.5724  0.5407
  179SLPC  C31020427   2.463   3.389   3.569 -0.2342 -0.2896  0.2726
  179SLPC  H10X20428   2.571   3.414   3.581 -0.0841  0.2316 -1.7167
  179SLPC  H10Y20429   2.425   3.329   3.654 -0.4219 -1.5542 -0.6746
  179SLPC  C31120430   2.357   3.498   3.566  0.6719 -0.2508  0.2767
  179SLPC  H11X20431   2.259   3.463   3.525  0.9771 -0.6802 -0.0923
  179SLPC  H11Y20432   2.389   3.582   3.500  0.6977 -0.4512  0.0326
  179SLPC  C31220433   2.339   3.547   3.709  0.2574  0.1588 -0.3771
  179SLPC  H12X20434   2.320   3.657   3.704  4.2416  1.0151 -0.5207
  179SLPC  H12Y20435   2.436   3.544   3.763  0.4696 -0.0477 -0.7667
  179SLPC  C31320436   2.224   3.472   3.781  0.7113 -1.1943 -0.8260
  179SLPC  H13X20437   2.258   3.369   3.805  0.0787 -1.6789 -1.9294
  179SLPC  H13Y20438   2.133   3.460   3.719 -0.8989  0.2972  1.1309
  179SLPC  C31420439   2.188   3.540   3.916 -0.0950 -0.4470  0.6008
  179SLPC  H14X20440   2.152   3.639   3.880  2.0478 -0.9203 -3.4450
  179SLPC  H14Y20441   2.282   3.544   3.975  0.0891 -0.3056  0.3006
  179SLPC  C31520442   2.080   3.460   3.984 -0.6418 -0.2761  0.1230
  179SLPC  H15X20443   2.116   3.355   3.981  1.0098  0.2492 -3.5744
  179SLPC  H15Y20444   1.990   3.464   3.919  0.3143 -0.1919 -1.2187
  179SLPC  C31620445   2.053   3.498   4.131 -0.2566 -0.3284 -0.5437
  179SLPC  H16X20446   2.047   3.609   4.135 -2.0969 -0.1241 -4.1726
  179SLPC  H16Y20447   2.136   3.454   4.190  1.1418 -0.9392 -2.8371
  179SLPC  C31720448   1.923   3.432   4.184  0.1770  0.0927  0.6990
  179SLPC  H17X20449   1.844   3.477   4.120  0.7526 -1.3370 -1.1044
  179SLPC  H17Y20450   1.905   3.463   4.290  0.9851  0.1757  0.8135
  179SLPC  C31820451   1.922   3.275   4.176  0.3112 -0.4262 -0.9248
  179SLPC  H18X20452   1.840   3.219   4.225  0.9176 -0.2376  0.3497
  179SLPC  H18Y20453   2.020   3.242   4.217 -0.5264 -1.6918  0.1404
  179SLPC  H18Z20454   1.925   3.248   4.068  0.0646  0.9119 -1.2803
  180SLPC     N20455   2.205   3.223   1.935 -0.6373 -0.5765 -0.2560
  180SLPC   C1320456   2.228   3.161   1.808 -0.1657  0.2907 -0.3982
  180SLPC  H13A20457   2.334   3.138   1.807  0.3294  2.1312  2.0378
  180SLPC  H13B20458   2.170   3.070   1.799  1.0881 -0.8028  1.8577
  180SLPC  H13C20459   2.201   3.231   1.730 -1.7404  0.3445  0.1720
  180SLPC   C1420460   2.318   3.327   1.954 -0.4569  0.3644  0.4065
  180SLPC  H14A20461   2.403   3.263   1.971 -1.1934 -1.0853 -1.0789
  180SLPC  H14B20462   2.327   3.385   1.863  4.1364 -1.0320 -0.2807
  180SLPC  H14C20463   2.296   3.390   2.039 -0.5403  2.6234 -1.1775
  180SLPC   C1520464   2.217   3.121   2.043  0.0993  0.4798  0.0191
  180SLPC  H15A20465   2.223   3.160   2.143  0.1717 -0.6879  0.4859
  180SLPC  H15B20466   2.137   3.048   2.039  1.5620 -1.1651 -1.8516
  180SLPC  H15C20467   2.311   3.069   2.031 -0.5070 -1.1984  2.1029
  180SLPC   C1220468   2.071   3.299   1.931 -0.1962  0.4438 -0.3697
  180SLPC  H12A20469   2.052   3.347   2.026 -0.4615  0.3985 -0.3995
  180SLPC  H12B20470   2.001   3.219   1.917  1.2728 -0.5335 -2.7275
  180SLPC   C1120471   2.047   3.402   1.814  0.0512 -0.3335  0.4084
  180SLPC  H11A20472   1.940   3.431   1.812 -0.0030 -0.2712  2.3047
  180SLPC  H11B20473   2.073   3.349   1.720  0.9163  1.5822 -0.4957
  180SLPC     P20474   2.097   3.651   1.769 -0.2953  0.0654 -0.1567
  180SLPC   O1320475   2.225   3.726   1.748  0.3927  0.3465 -0.1174
  180SLPC   O1420476   1.999   3.643   1.661  0.0328  0.2183 -0.7579
  180SLPC   O1220477   2.134   3.512   1.827  0.1810 -0.3752 -0.9050
  180SLPC   O1120478   2.032   3.712   1.898 -0.4403  0.2809  0.2384
  180SLPC    C120479   2.071   3.686   2.035  0.0516 -0.0486  0.1492
  180SLPC    HA20480   2.146   3.605   2.045 -0.6737 -1.2476 -2.9276
  180SLPC    HB20481   2.125   3.778   2.068  1.7690  0.1349 -2.8095
  180SLPC    C220482   1.943   3.661   2.125  0.1457 -0.0220 -0.1846
  180SLPC    HS20483   1.857   3.705   2.069  0.0616  1.2788  0.9135
  180SLPC   O2120484   1.976   3.710   2.257  0.2607  0.3997 -0.4121
  180SLPC   C2120485   1.879   3.788   2.299 -0.0900  0.2520 -0.1626
  180SLPC   O2220486   1.792   3.840   2.235  0.1238 -0.4344 -0.2786
  180SLPC   C2220487   1.898   3.817   2.446  0.5993 -0.0408 -0.2162
  180SLPC   H2R20488   1.893   3.721   2.502 -1.0866 -0.1595 -0.5137
  180SLPC   H2S20489   1.997   3.861   2.471 -0.3162  1.4773  0.9486
  180SLPC    C320490   1.899   3.508   2.140  0.2396 -0.2297  0.1570
  180SLPC    HX20491   1.877   3.472   2.037 -0.3668 -0.3194  0.3166
  180SLPC    HY20492   1.802   3.511   2.193  0.5092 -1.7957  0.7966
  180SLPC   O3120493   2.004   3.427   2.200 -0.1672  0.3232  0.5147
  180SLPC   C3120494   1.985   3.407   2.335 -0.2667  0.0521  0.3513
  180SLPC   O3220495   1.890   3.433   2.397  0.1168  0.0026 -0.0144
  180SLPC   C3220496   2.107   3.342   2.393  1.0101 -0.7743  0.9940
  180SLPC   H2X20497   2.180   3.337   2.309 -1.8062 -0.6012 -1.6205
  180SLPC   H2Y20498   2.079   3.236   2.413 -0.4294 -1.0159 -1.7838
  180SLPC   C2320499   1.791   3.904   2.511  0.2491  0.4792  0.7410
  180SLPC   H3R20500   1.812   3.897   2.620 -4.0177 -1.0539  1.6430
  180SLPC   H3S20501   1.691   3.858   2.512  1.3370 -2.0244  1.2724
  180SLPC   C2420502   1.781   4.055   2.480  0.2294  0.4234  0.3140
  180SLPC   H4R20503   1.742   4.071   2.378 -1.1698 -0.2071  0.7298
  180SLPC   H4S20504   1.883   4.098   2.474 -0.4283  2.6832  3.1573
  180SLPC   C2520505   1.696   4.151   2.567 -0.0782 -0.2656  0.0877
  180SLPC   H5R20506   1.591   4.116   2.563 -0.4837  0.8520  0.4416
  180SLPC   H5S20507   1.693   4.258   2.536  3.2419  0.4367  1.6955
  180SLPC   C2620508   1.742   4.147   2.712  0.3228  0.2035 -0.5641
  180SLPC   H6R20509   1.851   4.162   2.726 -0.1197  2.2079  1.1306
  180SLPC   H6S20510   1.719   4.042   2.741  1.3004 -0.5376 -2.3379
  180SLPC   C2720511   1.658   4.238   2.801 -0.8968 -0.0630 -0.3571
  180SLPC   H7R20512   1.554   4.198   2.796 -0.7438 -1.0902  2.6549
  180SLPC   H7S20513   1.648   4.343   2.766 -4.0763  0.4811  1.7339
  180SLPC   C2820514   1.710   4.236   2.942  0.4741 -0.1405 -0.3133
  180SLPC   H8R20515   1.719   4.128   2.965 -4.2806 -1.0342 -1.6732
  180SLPC   H8S20516   1.636   4.282   3.011  0.3080 -0.4969 -0.2504
  180SLPC   C2920517   1.839   4.303   2.963 -0.4215 -0.1910 -0.0680
  180SLPC   H9R20518   1.862   4.379   2.888 -0.2425 -1.1931 -1.0462
  180SLPC  C21020519   1.926   4.279   3.061 -0.0851  0.3250 -0.6441
  180SLPC  H10R20520   2.009   4.350   3.071  1.0160 -1.0255  0.1307
  180SLPC  C21120521   1.907   4.176   3.170  0.2675 -0.0307  0.2066
  180SLPC  H11R20522   1.806   4.140   3.198  1.6062 -2.8116  1.8745
  180SLPC  H11S20523   1.931   4.215   3.271  0.9114 -1.3449  0.5788
  180SLPC  C21220524   1.997   4.055   3.154 -0.1975  0.0251 -0.2876
  180SLPC  H12R20525   2.102   4.068   3.183  0.4104 -1.3822 -1.7063
  180SLPC  C21320526   1.959   3.932   3.120 -0.0037  0.9625 -0.3139
  180SLPC  H13R20527   2.031   3.849   3.112  1.4658  1.8834  2.1594
  180SLPC  C21420528   1.822   3.877   3.087  0.1451  0.5126  0.1246
  180SLPC  H14R20529   1.751   3.962   3.093 -0.1831  0.2427  0.0833
  180SLPC  H14S20530   1.780   3.801   3.156  0.0007 -0.7350 -1.2950
  180SLPC  C21520531   1.817   3.827   2.941  0.3414 -0.2437 -0.0391
  180SLPC  H15R20532   1.877   3.879   2.863 -0.1198  0.0952 -0.1672
  180SLPC  H15S20533   1.710   3.833   2.913  0.4962  2.0752 -0.3086
  180SLPC  C21620534   1.846   3.673   2.932  0.1857  0.3155 -0.0127
  180SLPC  H16R20535   1.802   3.617   3.017  0.1986  0.0786 -0.1605
  180SLPC  H16S20536   1.956   3.666   2.947  0.7218  1.8884 -2.6294
  180SLPC  C21720537   1.812   3.604   2.798 -0.3448 -0.7027 -0.2474
  180SLPC  H17R20538   1.880   3.641   2.718  0.4015 -0.0878  0.6431
  180SLPC  H17S20539   1.706   3.621   2.769 -0.9641 -1.8385  1.2550
  180SLPC  C21820540   1.843   3.452   2.811 -0.4381 -0.3980 -0.3173
  180SLPC  H18R20541   1.783   3.389   2.742 -2.0506  1.4592 -0.7183
  180SLPC  H18S20542   1.814   3.419   2.913  1.1735  1.2854  0.7515
  180SLPC  H18T20543   1.952   3.435   2.822 -0.6629 -0.6434  2.0658
  180SLPC   C3320544   2.154   3.413   2.521  0.4766 -0.5423 -0.1856
  180SLPC   H3X20545   2.228   3.349   2.574 -0.1293 -0.1210  1.1909
  180SLPC   H3Y20546   2.071   3.425   2.593 -0.3498  1.9748 -1.4664
  180SLPC   C3420547   2.232   3.541   2.502  0.6445 -0.7250 -0.0388
  180SLPC   H4X20548   2.169   3.631   2.484  1.2830 -0.5877 -1.7778
  180SLPC   H4Y20549   2.304   3.528   2.418 -0.2044  0.8568 -1.0685
  180SLPC   C3520550   2.326   3.584   2.627  0.3279  0.3050  0.7141
  180SLPC   H5X20551   2.392   3.667   2.594 -0.7776  0.1451 -2.1789
  180SLPC   H5Y20552   2.381   3.493   2.656 -1.7495 -1.0337  0.6915
  180SLPC   C3620553   2.243   3.631   2.744 -0.4624  0.1357 -0.3224
  180SLPC   H6X20554   2.143   3.584   2.759  1.0120 -2.8781  0.7168
  180SLPC   H6Y20555   2.226   3.741   2.736  0.6238  0.3188 -0.2825
  180SLPC   C3720556   2.334   3.610   2.868  0.5235  0.1346  0.1409
  180SLPC   H7X20557   2.428   3.668   2.856  1.5247 -1.3579  0.5593
  180SLPC   H7Y20558   2.363   3.503   2.871 -0.0755 -0.0093  1.7369
  180SLPC   C3820559   2.275   3.660   2.994  1.0560  0.2409 -0.0639
  180SLPC   H8X20560   2.204   3.584   3.031  1.0970 -0.9194 -2.2549
  180SLPC   H8Y20561   2.215   3.752   2.979 -1.3214 -1.2179  0.0938
  180SLPC   C3920562   2.371   3.683   3.114  0.0470 -0.3333  0.6625
  180SLPC   H9X20563   2.450   3.753   3.080 -0.2486  0.1015  0.8575
  180SLPC   H9Y20564   2.400   3.582   3.149 -0.9741 -1.0002 -0.3539
  180SLPC  C31020565   2.309   3.750   3.237 -1.1333 -0.4986 -0.2063
  180SLPC  H10X20566   2.274   3.853   3.217  1.5652  0.7111  0.7790
  180SLPC  H10Y20567   2.394   3.765   3.308  0.3648 -1.9579 -1.5984
  180SLPC  C31120568   2.194   3.677   3.295 -0.1746  0.6383 -0.6494
  180SLPC  H11X20569   2.237   3.580   3.329 -2.9036 -0.2039  0.6738
  180SLPC  H11Y20570   2.118   3.669   3.215 -2.7005  2.2332  1.4029
  180SLPC  C31220571   2.129   3.760   3.411 -0.5517 -0.2061  0.6727
  180SLPC  H12X20572   2.102   3.863   3.380  0.8497  0.1019  0.4260
  180SLPC  H12Y20573   2.211   3.770   3.485 -1.0262 -0.7972  1.3016
  180SLPC  C31320574   2.003   3.689   3.465 -0.4728  0.3456 -0.3114
  180SLPC  H13X20575   2.023   3.582   3.486 -1.5182  0.2486  0.2990
  180SLPC  H13Y20576   1.934   3.685   3.377 -0.0689 -0.1802 -0.6080
  180SLPC  C31420577   1.950   3.753   3.590 -0.0206  0.6021 -0.1655
  180SLPC  H14X20578   1.915   3.854   3.560 -0.7848  0.0654 -1.1418
  180SLPC  H14Y20579   2.025   3.754   3.672 -2.7126  1.5981  2.4639
  180SLPC  C31520580   1.823   3.672   3.640  0.0673 -0.1534  0.4878
  180SLPC  H15X20581   1.846   3.564   3.650  3.3226  0.2988 -0.6307
  180SLPC  H15Y20582   1.745   3.692   3.563  0.9887  1.1475 -0.1618
  180SLPC  C31620583   1.765   3.725   3.770  0.2351 -0.3047  0.2209
  180SLPC  H16X20584   1.775   3.835   3.784  1.4344 -0.3571 -0.1306
  180SLPC  H16Y20585   1.816   3.682   3.859 -0.3391  1.0008  1.2087
  180SLPC  C31720586   1.616   3.687   3.792  0.7463 -0.4027  0.5306
  180SLPC  H17X20587   1.612   3.591   3.736  0.7443 -0.2539  0.2721
  180SLPC  H17Y20588   1.551   3.753   3.730 -0.8261 -2.3135  0.0484
  180SLPC  C31820589   1.565   3.663   3.942  0.3334 -0.5044  0.6012
  180SLPC  H18X20590   1.566   3.762   3.993  0.0357  1.0184 -2.1688
  180SLPC  H18Y20591   1.624   3.590   4.000 -2.8154 -2.4751  1.5936
  180SLPC  H18Z20592   1.464   3.622   3.923  0.5440 -0.5705 -0.4155
  181SLPC     N20593   1.574   1.807   2.082  0.2722  0.9173 -0.0481
  181SLPC   C1320594   1.584   1.781   2.230  0.0908  0.0423 -0.3418
  181SLPC  H13A20595   1.549   1.681   2.250  1.0741 -0.3871 -0.7117
  181SLPC  H13B20596   1.687   1.789   2.260 -0.4638  0.6497  1.5251
  181SLPC  H13C20597   1.520   1.854   2.278  0.3524  1.8031 -2.4903
  181SLPC   C1420598   1.664   1.708   2.013 -0.3303 -0.1884  0.3380
  181SLPC  H14A20599   1.634   1.607   2.038 -1.2408  0.2755  1.1901
  181SLPC  H14B20600   1.651   1.708   1.906 -5.1231  2.9142  0.6168
  181SLPC  H14C20601   1.764   1.718   2.050  0.1035  2.4456 -1.2942
  181SLPC   C1520602   1.618   1.944   2.052 -0.2773 -0.0168  0.2131
  181SLPC  H15A20603   1.534   2.010   2.061 -1.0818 -0.8575 -0.9208
  181SLPC  H15B20604   1.718   1.972   2.082  0.3573 -2.4739  0.6236
  181SLPC  H15C20605   1.622   1.947   1.944 -1.5887 -0.0049  0.1503
  181SLPC   C1220606   1.429   1.789   2.031  0.2224 -0.8195  0.2392
  181SLPC  H12A20607   1.402   1.685   2.021 -0.6361 -0.3837 -4.2314
  181SLPC  H12B20608   1.426   1.836   1.934  0.9274  0.8527  0.9930
  181SLPC   C1120609   1.316   1.860   2.105  0.5709  0.1947  0.4421
  181SLPC  H11A20610   1.321   1.820   2.209 -2.0200 -0.9471  0.2086
  181SLPC  H11B20611   1.222   1.825   2.057  1.0996 -0.0950 -0.4036
  181SLPC     P20612   1.314   2.095   2.200 -0.2333 -0.1930 -0.0660
  181SLPC   O1320613   1.448   2.098   2.267  0.1600 -0.4492 -0.4881
  181SLPC   O1420614   1.251   2.229   2.168  0.3450 -0.1898  0.3487
  181SLPC   O1220615   1.317   2.003   2.082  0.0035  0.4845 -0.2320
  181SLPC   O1120616   1.215   2.007   2.288 -0.1567  0.2710  0.1147
  181SLPC    C120617   1.120   2.070   2.378 -0.0441 -0.3138 -0.2557
  181SLPC    HA20618   1.113   2.179   2.359  0.5507 -0.2614 -0.2008
  181SLPC    HB20619   1.022   2.023   2.356 -2.2669  3.3531  0.8295
  181SLPC    C220620   1.159   2.044   2.532  0.2007 -0.1241  0.1561
  181SLPC    HS20621   1.077   2.088   2.592 -0.6629  0.3630 -1.3256
  181SLPC   O2120622   1.285   2.113   2.560 -0.3273  0.3009 -0.1385
  181SLPC   C2120623   1.295   2.251   2.536  0.7763 -0.6064 -0.1011
  181SLPC   O2220624   1.204   2.326   2.503  0.4757 -0.1312  0.0635
  181SLPC   C2220625   1.443   2.300   2.549  0.1739  0.6230 -0.2347
  181SLPC   H2R20626   1.489   2.217   2.606  3.6267  0.8367 -2.4091
  181SLPC   H2S20627   1.489   2.301   2.447  2.9104  2.2488  0.9013
  181SLPC    C320628   1.167   1.886   2.554  0.1717 -0.1043  0.2519
  181SLPC    HX20629   1.224   1.829   2.477 -0.3213 -0.9178  0.4774
  181SLPC    HY20630   1.066   1.841   2.544  0.7632 -1.0591 -2.1707
  181SLPC   O3120631   1.195   1.863   2.698  0.4545 -0.0939  0.0682
  181SLPC   C3120632   1.312   1.818   2.721 -0.2965 -0.2742 -0.1804
  181SLPC   O3220633   1.401   1.804   2.637  0.5009 -0.3952  0.1991
  181SLPC   C3220634   1.333   1.774   2.868  1.1824  0.1690  0.6753
  181SLPC   H2X20635   1.328   1.664   2.882 -2.2951  0.3850  2.1934
  181SLPC   H2Y20636   1.246   1.816   2.922  0.4612 -1.5253  0.9061
  181SLPC   C2320637   1.461   2.429   2.634 -0.0801 -0.3536  0.6402
  181SLPC   H3R20638   1.384   2.508   2.628  1.6219  1.2657 -1.8307
  181SLPC   H3S20639   1.550   2.487   2.602 -2.1951  2.0532 -1.2486
  181SLPC   C2420640   1.492   2.388   2.773  0.1766  0.1254 -0.2335
  181SLPC   H4R20641   1.578   2.318   2.769 -1.8876 -2.6683  0.7042
  181SLPC   H4S20642   1.410   2.321   2.809 -0.6159 -0.6553 -3.1868
  181SLPC   C2520643   1.513   2.497   2.877  0.0500 -0.2989  0.1507
  181SLPC   H5R20644   1.431   2.572   2.881  0.4303  0.1229  0.1509
  181SLPC   H5S20645   1.598   2.567   2.864 -1.8167  2.1129  0.1682
  181SLPC   C2620646   1.537   2.435   3.017 -0.6090 -0.1776 -0.1437
  181SLPC   H6R20647   1.620   2.360   3.021  1.2067  1.7353 -0.2172
  181SLPC   H6S20648   1.445   2.374   3.028 -1.5384  0.4383 -3.3065
  181SLPC   C2720649   1.559   2.557   3.117 -0.2558  0.0111  0.5122
  181SLPC   H7R20650   1.463   2.612   3.130  0.0443  0.7255 -0.1678
  181SLPC   H7S20651   1.634   2.609   3.053  0.1780 -1.0458  0.1400
  181SLPC   C2820652   1.639   2.518   3.238  0.1202  0.1254 -0.7951
  181SLPC   H8R20653   1.673   2.614   3.284 -0.1401  0.3476 -1.0554
  181SLPC   H8S20654   1.720   2.448   3.211 -1.9294 -2.5855 -0.2969
  181SLPC   C2920655   1.535   2.451   3.326  0.3186 -0.0439 -0.2128
  181SLPC   H9R20656   1.436   2.499   3.316  0.5642  0.7149  0.9088
  181SLPC  C21020657   1.547   2.363   3.419 -0.4813 -0.4169 -0.2687
  181SLPC  H10R20658   1.448   2.335   3.457 -0.5402  0.4328  0.2064
  181SLPC  C21120659   1.667   2.293   3.466 -0.4652 -0.2794  0.3890
  181SLPC  H11R20660   1.678   2.304   3.576 -1.3058 -0.8158  0.5376
  181SLPC  H11S20661   1.763   2.340   3.438  0.3561 -0.5988  2.4445
  181SLPC  C21220662   1.673   2.139   3.428 -0.2472 -1.1117 -0.0977
  181SLPC  H12R20663   1.645   2.118   3.324  0.1391  0.8704 -0.6465
  181SLPC  C21320664   1.701   2.038   3.508  0.5538 -0.0077  0.6560
  181SLPC  H13R20665   1.713   1.934   3.472 -0.0217 -1.0272  3.1824
  181SLPC  C21420666   1.729   2.059   3.654 -0.5888  0.2958  0.2478
  181SLPC  H14R20667   1.712   1.968   3.716  0.9978  0.7212  1.3680
  181SLPC  H14S20668   1.655   2.128   3.699 -1.5522 -1.6052  1.7293
  181SLPC  C21520669   1.865   2.116   3.701 -0.6505 -0.2557 -0.3507
  181SLPC  H15R20670   1.899   2.204   3.642 -0.8421  0.2286  0.2518
  181SLPC  H15S20671   1.948   2.047   3.674 -1.4141 -1.0149 -0.8033
  181SLPC  C21620672   1.875   2.155   3.861  0.3554 -0.2620 -0.1744
  181SLPC  H16R20673   1.804   2.238   3.886 -1.8886 -2.2011  0.2742
  181SLPC  H16S20674   1.979   2.179   3.890  0.8592 -1.1797 -1.1495
  181SLPC  C21720675   1.828   2.047   3.958 -0.7351 -0.4722 -0.0370
  181SLPC  H17R20676   1.899   1.966   3.935  0.5881  0.3782  0.8983
  181SLPC  H17S20677   1.724   2.025   3.925 -0.7144  1.2129 -1.3568
  181SLPC  C21820678   1.862   2.064   4.109  0.6270 -0.3033  0.5829
  181SLPC  H18R20679   1.810   1.989   4.173  2.4872 -0.3707  2.0997
  181SLPC  H18S20680   1.822   2.161   4.147  1.4114  0.2469  0.0175
  181SLPC  H18T20681   1.972   2.058   4.124  0.5163  0.9245  2.1403
  181SLPC   C3320682   1.471   1.810   2.929 -0.3852  0.5844  0.0949
  181SLPC   H3X20683   1.556   1.802   2.858 -0.3802 -1.0608  0.2628
  181SLPC   H3Y20684   1.509   1.751   3.015  1.6730  2.3931  0.5194
  181SLPC   C3420685   1.476   1.957   2.973  0.7243  0.1624 -0.6480
  181SLPC   H4X20686   1.408   1.977   3.058  0.7752  3.4821 -1.2591
  181SLPC   H4Y20687   1.450   2.039   2.903  0.5299 -0.4312 -1.2802
  181SLPC   C3520688   1.615   1.990   3.025 -0.0121  0.1629 -0.5732
  181SLPC   H5X20689   1.652   1.898   3.076 -1.7281 -0.1291  0.2486
  181SLPC   H5Y20690   1.615   2.070   3.102  0.4898  0.8517 -1.2775
  181SLPC   C3620691   1.714   2.041   2.920  0.0348 -0.1873  0.7093
  181SLPC   H6X20692   1.683   2.141   2.884 -1.3771 -0.9951 -0.4482
  181SLPC   H6Y20693   1.694   1.973   2.834 -1.6992  1.3784 -0.1790
  181SLPC   C3720694   1.862   2.051   2.967  0.3966  0.6393  0.3428
  181SLPC   H7X20695   1.920   2.082   2.878 -1.5628  0.3613 -1.1065
  181SLPC   H7Y20696   1.884   1.945   2.994  0.0213  0.6037  0.5199
  181SLPC   C3820697   1.882   2.148   3.089 -0.5696 -0.1614  0.7266
  181SLPC   H8X20698   1.819   2.124   3.178 -1.0474 -0.2888  0.3627
  181SLPC   H8Y20699   1.844   2.251   3.071 -1.7654 -0.4572  1.4198
  181SLPC   C3920700   2.025   2.151   3.128  0.0711  0.1863 -0.0211
  181SLPC   H9X20701   2.079   2.215   3.055  0.2599  2.1878  1.7815
  181SLPC   H9Y20702   2.065   2.048   3.118 -0.4654 -0.1359  1.0033
  181SLPC  C31020703   2.039   2.213   3.263  0.2369  0.0733  0.1790
  181SLPC  H10X20704   1.974   2.171   3.343  0.5074  1.1150  0.9718
  181SLPC  H10Y20705   1.996   2.315   3.255 -0.7545 -0.2414  1.1563
  181SLPC  C31120706   2.180   2.229   3.315 -0.2438  0.7934 -0.5106
  181SLPC  H11X20707   2.187   2.308   3.393  1.2830 -1.6768  2.0779
  181SLPC  H11Y20708   2.245   2.258   3.229  2.7966  0.5582  1.5243
  181SLPC  C31220709   2.247   2.101   3.372  0.8998  0.2126 -0.5401
  181SLPC  H12X20710   2.351   2.130   3.401  0.3991  0.5221  1.0267
  181SLPC  H12Y20711   2.245   2.034   3.284 -0.6055  1.1864 -1.2784
  181SLPC  C31320712   2.169   2.036   3.496  0.1133 -0.1931 -0.3684
  181SLPC  H13X20713   2.072   2.005   3.451 -0.0938  1.3803 -1.0580
  181SLPC  H13Y20714   2.132   2.111   3.569 -0.8893 -1.6592  0.7165
  181SLPC  C31420715   2.239   1.918   3.574  0.1993 -0.0658  0.5980
  181SLPC  H14X20716   2.296   1.854   3.504 -2.2280 -1.8511  0.1226
  181SLPC  H14Y20717   2.160   1.849   3.610  0.4389  0.2297  1.7129
  181SLPC  C31520718   2.335   1.969   3.688  0.3257 -0.0388 -0.3543
  181SLPC  H15X20719   2.275   2.029   3.760  0.1078 -0.8713  0.1674
  181SLPC  H15Y20720   2.404   2.033   3.629  1.4588 -0.3980  0.5596
  181SLPC  C31620721   2.411   1.864   3.765  0.2551 -0.4606  0.5645
  181SLPC  H16X20722   2.467   1.797   3.697 -0.2447  0.8659 -1.2129
  181SLPC  H16Y20723   2.347   1.800   3.829  0.3613 -0.5955  0.5357
  181SLPC  C31720724   2.504   1.923   3.873 -0.3196 -0.4942  0.0607
  181SLPC  H17X20725   2.455   1.987   3.950 -0.8189  2.7837 -2.7488
  181SLPC  H17Y20726   2.559   2.000   3.814 -0.4970 -1.4965 -1.4500
  181SLPC  C31820727   2.591   1.816   3.939 -0.5661 -0.2597  0.2319
  181SLPC  H18X20728   2.539   1.749   4.010 -1.4689  1.2352  1.0091
  181SLPC  H18Y20729   2.673   1.861   4.000  0.7226 -1.4635 -0.5436
  181SLPC  H18Z20730   2.646   1.755   3.863 -0.5828 -1.1736  0.9424
  182SLPC     N20731   2.579   0.189   1.718 -0.6058  0.4328 -0.4285
  182SLPC   C1320732   2.593   0.338   1.744 -0.2219  0.2465  0.4349
  182SLPC  H13A20733   2.583   0.395   1.653  2.2059  0.4911  0.2668
  182SLPC  H13B20734   2.521   0.362   1.821  0.9451  1.2729  1.2337
  182SLPC  H13C20735   2.690   0.356   1.787 -0.5030 -1.6506  2.0285
  182SLPC   C1420736   2.678   0.154   1.614 -0.6090 -0.3181 -0.8606
  182SLPC  H14A20737   2.653   0.050   1.599  0.6654 -0.6677 -0.7110
  182SLPC  H14B20738   2.673   0.220   1.529 -1.8582 -0.1198 -0.6483
  182SLPC  H14C20739   2.774   0.155   1.663 -1.1566 -2.0643  0.3711
  182SLPC   C1520740   2.442   0.170   1.665 -0.7045  0.6444 -0.1647
  182SLPC  H15A20741   2.419   0.235   1.582 -1.5265  0.8089  0.1738
  182SLPC  H15B20742   2.431   0.069   1.628 -0.5586  0.7164 -0.3979
  182SLPC  H15C20743   2.380   0.200   1.749 -1.6569  2.0751 -1.3293
  182SLPC   C1220744   2.607   0.102   1.839  0.7162  0.0370 -0.1513
  182SLPC  H12A20745   2.532   0.124   1.914 -0.2267  1.4912 -1.4522
  182SLPC  H12B20746   2.706   0.130   1.871  0.5042 -0.2789  0.7902
  182SLPC   C1120747   2.608  -0.049   1.813 -0.5482  0.3071  0.9582
  182SLPC  H11A20748   2.516  -0.075   1.757  0.6426  0.3582 -1.1501
  182SLPC  H11B20749   2.601  -0.104   1.909 -1.2197 -3.1036 -0.8831
  182SLPC     P20750   2.854  -0.109   1.786 -0.0210 -0.2842  0.0334
  182SLPC   O1320751   2.949  -0.133   1.675  0.0506  0.2307 -0.4392
  182SLPC   O1420752   2.880   0.008   1.876 -0.1024  0.1090 -0.1955
  182SLPC   O1220753   2.717  -0.087   1.724  0.9471  0.0276  0.1656
  182SLPC   O1120754   2.844  -0.243   1.866 -0.2372 -0.1919 -0.5380
  182SLPC    C120755   2.966  -0.318   1.905 -0.4495 -0.6510  0.8103
  182SLPC    HA20756   2.982  -0.394   1.826 -0.9556 -0.6053  0.6620
  182SLPC    HB20757   3.058  -0.256   1.904 -0.7947 -0.1367  0.5693
  182SLPC    C220758   2.960  -0.380   2.044  0.4207 -0.0451 -0.1339
  182SLPC    HS20759   3.043  -0.454   2.057  2.1449  2.1075  1.8552
  182SLPC   O2120760   2.835  -0.455   2.055 -0.0921  0.2023  0.0887
  182SLPC   C2120761   2.825  -0.578   2.018 -1.0919 -0.2587  0.3957
  182SLPC   O2220762   2.916  -0.648   1.969  0.3569  0.3322 -0.7610
  182SLPC   C2220763   2.679  -0.621   2.029 -0.0958  0.3508 -0.0788
  182SLPC   H2R20764   2.619  -0.559   2.099  0.1661  0.6301 -0.1019
  182SLPC   H2S20765   2.645  -0.633   1.923  1.9750  0.8617 -0.8442
  182SLPC    C320766   2.981  -0.269   2.147 -0.4200 -0.4357  0.7143
  182SLPC    HX20767   2.914  -0.184   2.122 -0.3879 -0.6697 -0.2033
  182SLPC    HY20768   3.088  -0.239   2.139  0.2650 -3.0300 -1.4076
  182SLPC   O3120769   2.967  -0.306   2.285  0.1565  0.0093 -0.0626
  182SLPC   C3120770   2.849  -0.299   2.336  0.9076  0.0726 -0.3293
  182SLPC   O3220771   2.748  -0.250   2.284  0.1929  0.6195 -0.2930
  182SLPC   C3220772   2.849  -0.351   2.479 -0.3627  0.0247  0.5206
  182SLPC   H2X20773   2.916  -0.284   2.537  0.3391 -0.1988 -0.0259
  182SLPC   H2Y20774   2.903  -0.448   2.475  0.8276  0.6755  0.3791
  182SLPC   C2320775   2.678  -0.765   2.099  0.5673  1.0211  0.4164
  182SLPC   H3R20776   2.739  -0.831   2.034 -0.7883 -0.7733  0.8834
  182SLPC   H3S20777   2.577  -0.810   2.110  0.1152  1.1642 -2.4299
  182SLPC   C2420778   2.751  -0.769   2.230 -0.2167 -0.3275  0.2482
  182SLPC   H4R20779   2.713  -0.684   2.290 -2.4048 -1.3326  0.4151
  182SLPC   H4S20780   2.859  -0.760   2.208 -0.9158  1.2883 -3.1654
  182SLPC   C2520781   2.741  -0.902   2.300 -0.3533  0.1837  0.6666
  182SLPC   H5R20782   2.766  -0.995   2.244 -1.9460 -0.8228  1.5241
  182SLPC   H5S20783   2.634  -0.914   2.330 -1.4364  4.1052 -1.1024
  182SLPC   C2620784   2.825  -0.906   2.426 -0.6225  0.1840  0.0469
  182SLPC   H6R20785   2.930  -0.876   2.407 -0.5888 -0.6616 -1.1995
  182SLPC   H6S20786   2.820  -1.004   2.478 -1.7503 -0.4367 -1.1767
  182SLPC   C2720787   2.773  -0.805   2.527 -0.3421 -0.0679 -0.0479
  182SLPC   H7R20788   2.669  -0.831   2.553 -1.0959  1.2077 -1.6510
  182SLPC   H7S20789   2.757  -0.706   2.480 -0.0794  0.0556  0.1175
  182SLPC   C2820790   2.858  -0.793   2.649 -0.4639  0.3388 -1.0730
  182SLPC   H8R20791   2.797  -0.729   2.716  1.5636  1.0415  0.2086
  182SLPC   H8S20792   2.956  -0.743   2.631 -0.4487  1.0407  0.7716
  182SLPC   C2920793   2.878  -0.923   2.727  0.1366 -0.0113  0.2776
  182SLPC   H9R20794   2.927  -1.007   2.675 -0.9501 -1.5918  1.6629
  182SLPC  C21020795   2.843  -0.940   2.858 -0.3018 -0.9002  0.0589
  182SLPC  H10R20796   2.867  -1.039   2.897 -1.0648 -1.7785 -1.5928
  182SLPC  C21120797   2.774  -0.838   2.951 -0.5363 -0.2570  1.2580
  182SLPC  H11R20798   2.681  -0.792   2.910  0.5069  0.0224 -0.9158
  182SLPC  H11S20799   2.835  -0.747   2.970 -4.4788  3.2659 -1.1347
  182SLPC  C21220800   2.734  -0.908   3.080  0.4365  0.1010  0.2549
  182SLPC  H12R20801   2.644  -0.970   3.065 -0.1011  1.0229 -0.4467
  182SLPC  C21320802   2.794  -0.902   3.200 -0.4302  0.2941 -0.4908
  182SLPC  H13R20803   2.740  -0.939   3.289  0.7167  0.3624  0.2483
  182SLPC  C21420804   2.913  -0.809   3.231  0.1417  0.1293 -0.8673
  182SLPC  H14R20805   2.940  -0.760   3.135  0.3376  1.5121 -0.1289
  182SLPC  H14S20806   3.003  -0.868   3.256  0.3800 -0.1688 -2.3328
  182SLPC  C21520807   2.867  -0.694   3.329 -0.2886  0.8808  0.4533
  182SLPC  H15R20808   2.780  -0.653   3.274  0.1120  0.0303 -0.8467
  182SLPC  H15S20809   2.939  -0.612   3.347 -0.1830  1.0079 -0.5234
  182SLPC  C21620810   2.835  -0.737   3.473 -0.2950  0.7840 -0.8255
  182SLPC  H16R20811   2.746  -0.803   3.468  0.9011 -0.9262 -0.4854
  182SLPC  H16S20812   2.797  -0.647   3.526  2.4544  1.9903 -0.7639
  182SLPC  C21720813   2.945  -0.795   3.563 -0.7457  0.1825  0.3154
  182SLPC  H17R20814   3.011  -0.708   3.583  0.0609 -0.9548  2.9468
  182SLPC  H17S20815   2.995  -0.866   3.494 -1.2418 -1.2755  1.4080
  182SLPC  C21820816   2.904  -0.844   3.703 -0.3106  0.3015  0.4341
  182SLPC  H18R20817   2.849  -0.940   3.690  0.7009 -0.6339  2.5163
  182SLPC  H18S20818   2.839  -0.775   3.760  0.1830  0.9701  0.2019
  182SLPC  H18T20819   3.000  -0.863   3.755  0.3357  0.2938 -0.7358
  182SLPC   C3320820   2.706  -0.361   2.534  0.0029 -0.2007  0.0011
  182SLPC   H3X20821   2.631  -0.409   2.468 -1.3935  1.8025  0.0382
  182SLPC   H3Y20822   2.666  -0.257   2.523  1.0655 -0.0524 -3.9349
  182SLPC   C3420823   2.694  -0.392   2.683  0.1320 -0.3105 -0.1677
  182SLPC   H4X20824   2.754  -0.321   2.744 -1.8589 -1.0510  2.8841
  182SLPC   H4Y20825   2.738  -0.494   2.693  3.0901  1.0573  2.6220
  182SLPC   C3520826   2.550  -0.390   2.740  0.2505 -0.0492 -0.0688
  182SLPC   H5X20827   2.500  -0.471   2.682 -2.0202 -0.9627  2.8920
  182SLPC   H5Y20828   2.501  -0.295   2.709 -1.3606 -0.0633  2.1706
  182SLPC   C3620829   2.535  -0.423   2.894  0.3547  0.3434 -0.6889
  182SLPC   H6X20830   2.582  -0.340   2.951  0.0101 -0.5969  1.0560
  182SLPC   H6Y20831   2.595  -0.515   2.915 -0.6324  0.1532  1.6867
  182SLPC   C3720832   2.396  -0.452   2.937  0.1381  0.1976 -0.0350
  182SLPC   H7X20833   2.358  -0.534   2.873  2.4474 -1.1484  0.2048
  182SLPC   H7Y20834   2.335  -0.364   2.908  0.9645  0.5389 -0.7589
  182SLPC   C3820835   2.378  -0.493   3.088 -0.2597 -0.8288 -0.2603
  182SLPC   H8X20836   2.267  -0.505   3.095 -0.4705  0.5301 -0.9927
  182SLPC   H8Y20837   2.416  -0.411   3.152  2.4961 -1.1296 -1.3870
  182SLPC   C3920838   2.445  -0.633   3.117 -0.3084  0.1131  0.3106
  182SLPC   H9X20839   2.556  -0.638   3.121  0.2082  3.2203 -3.8690
  182SLPC   H9Y20840   2.416  -0.706   3.039 -0.2227 -0.6628  0.9811
  182SLPC  C31020841   2.380  -0.701   3.245 -0.3298  0.4836  0.2742
  182SLPC  H10X20842   2.414  -0.807   3.251 -5.2345 -1.4774 -1.1571
  182SLPC  H10Y20843   2.272  -0.709   3.220 -0.0548  0.4191 -0.9363
  182SLPC  C31120844   2.397  -0.627   3.378 -0.0355 -0.3493  0.3412
  182SLPC  H11X20845   2.336  -0.536   3.360 -1.7493 -1.2175  1.4733
  182SLPC  H11Y20846   2.502  -0.595   3.388  0.2992 -0.8288 -1.2332
  182SLPC  C31220847   2.348  -0.706   3.499  0.1231  0.3438 -0.3209
  182SLPC  H12X20848   2.248  -0.743   3.469 -0.7055  1.1200  1.3848
  182SLPC  H12Y20849   2.341  -0.640   3.588  1.6603 -2.2891  1.9454
  182SLPC  C31320850   2.450  -0.816   3.534  0.2870  0.0234  0.8295
  182SLPC  H13X20851   2.545  -0.764   3.560 -0.3396  1.7612 -0.1654
  182SLPC  H13Y20852   2.470  -0.881   3.447 -1.8506  0.4890 -0.0818
  182SLPC  C31420853   2.402  -0.906   3.649  0.4259  0.5918  0.2764
  182SLPC  H14X20854   2.321  -0.975   3.616  1.3700 -0.6023  0.3894
  182SLPC  H14Y20855   2.364  -0.833   3.724 -0.5382  1.3846 -0.9372
  182SLPC  C31520856   2.501  -1.002   3.714 -0.0454 -0.6923 -0.0861
  182SLPC  H15X20857   2.454  -1.039   3.807  0.8322  0.9278  1.0535
  182SLPC  H15Y20858   2.594  -0.946   3.737 -1.3525  2.0706 -1.0152
  182SLPC  C31620859   2.543  -1.118   3.624  0.4843  0.1982 -0.5927
  182SLPC  H16X20860   2.601  -1.085   3.536  1.2852 -0.6402 -0.4019
  182SLPC  H16Y20861   2.460  -1.179   3.582  1.3198 -1.6880  0.3416
  182SLPC  C31720862   2.626  -1.223   3.693  0.6555  0.9399  0.3206
  182SLPC  H17X20863   2.712  -1.163   3.732  1.5259 -0.8611  1.2820
  182SLPC  H17Y20864   2.661  -1.299   3.621  1.9796 -0.3148  2.1898
  182SLPC  C31820865   2.555  -1.304   3.803  0.6423 -0.2020 -0.2358
  182SLPC  H18X20866   2.634  -1.362   3.856  1.6035 -0.1542 -1.5579
  182SLPC  H18Y20867   2.482  -1.378   3.764  0.2055 -0.2790  0.6861
  182SLPC  H18Z20868   2.509  -1.227   3.870  0.4259 -1.1899  0.7819
  183SLPC     N20869   0.413   3.758   2.141 -0.4129 -0.0629 -0.3264
  183SLPC   C1320870   0.451   3.879   2.067 -0.9771 -1.2402  0.4123
  183SLPC  H13A20871   0.438   3.971   2.123  0.1582 -0.2033 -0.9693
  183SLPC  H13B20872   0.556   3.875   2.042 -0.0282 -1.4055  3.8968
  183SLPC  H13C20873   0.397   3.880   1.974 -1.9175 -1.9976  0.9304
  183SLPC   C1420874   0.507   3.747   2.256  0.2226  0.1390  0.1991
  183SLPC  H14A20875   0.487   3.835   2.315 -1.7043 -0.5366  0.6189
  183SLPC  H14B20876   0.482   3.660   2.314 -0.4360  0.5962  0.6232
  183SLPC  H14C20877   0.610   3.753   2.225 -0.3258  1.1943 -1.6223
  183SLPC   C1520878   0.434   3.638   2.053  0.2115 -0.6897 -0.0085
  183SLPC  H15A20879   0.526   3.641   1.997  1.0028 -1.8681  1.1754
  183SLPC  H15B20880   0.426   3.548   2.111  1.6179 -0.8877 -0.0859
  183SLPC  H15C20881   0.351   3.629   1.984  0.2915 -0.8555 -0.0833
  183SLPC   C1220882   0.265   3.752   2.179  0.3886 -0.5265  0.0439
  183SLPC  H12A20883   0.251   3.843   2.236  0.6650 -2.1446  2.9155
  183SLPC  H12B20884   0.242   3.670   2.246 -2.6281 -1.4060 -1.8660
  183SLPC   C1120885   0.160   3.754   2.064  0.5709  0.0822  0.1925
  183SLPC  H11A20886   0.059   3.762   2.110  0.5929  2.7230 -0.1073
  183SLPC  H11B20887   0.163   3.654   2.015 -1.0298  0.1101 -0.0303
  183SLPC     P20888   0.078   3.898   1.856 -0.4579 -0.0952 -0.2006
  183SLPC   O1320889   0.123   4.030   1.800  0.0989  0.4086  0.1941
  183SLPC   O1420890   0.048   3.794   1.762  0.3167 -0.1041 -0.3450
  183SLPC   O1220891   0.181   3.858   1.968 -0.7734 -0.2757 -0.4083
  183SLPC   O1120892  -0.051   3.911   1.942  0.2215  0.0465  0.0214
  183SLPC    C120893  -0.071   4.015   2.035 -0.6220  0.6137 -0.1609
  183SLPC    HA20894   0.020   4.022   2.098 -0.6100 -3.6034  0.5772
  183SLPC    HB20895  -0.088   4.111   1.982  2.0338  1.3158  0.1079
  183SLPC    C220896  -0.195   3.977   2.115 -0.2216 -0.3286  0.3273
  183SLPC    HS20897  -0.222   4.067   2.175  3.0119  0.6055  0.5589
  183SLPC   O2120898  -0.176   3.862   2.195 -0.0146 -0.2905  0.1559
  183SLPC   C2120899  -0.100   3.892   2.304  0.7201  0.1844 -0.7133
  183SLPC   O2220900  -0.093   3.996   2.361  0.1643 -0.2331  0.8273
  183SLPC   C2220901  -0.051   3.760   2.365  0.4203  0.6098 -0.1382
  183SLPC   H2R20902  -0.132   3.685   2.352 -0.6739  1.3012  2.0762
  183SLPC   H2S20903   0.039   3.723   2.312  0.1036 -2.2302  1.1144
  183SLPC    C320904  -0.319   3.962   2.025 -0.4091  0.4169  0.9499
  183SLPC    HX20905  -0.283   3.909   1.934  0.7970  0.9210  1.1174
  183SLPC    HY20906  -0.344   4.064   1.987 -1.0562  0.1034  0.5244
  183SLPC   O3120907  -0.419   3.889   2.086 -0.4312  0.6666  0.3368
  183SLPC   C3120908  -0.516   3.956   2.145 -0.1860 -0.0046 -0.7621
  183SLPC   O3220909  -0.530   4.077   2.133  0.5154  0.6942  0.4418
  183SLPC   C3220910  -0.591   3.874   2.252  0.5809  0.3321 -0.4906
  183SLPC   H2X20911  -0.634   3.786   2.199  2.2625 -1.8816  1.6038
  183SLPC   H2Y20912  -0.680   3.931   2.285 -1.5571 -2.2770 -1.3797
  183SLPC   C2320913  -0.009   3.782   2.511 -0.1636  0.0930 -0.4835
  183SLPC   H3R20914  -0.064   3.858   2.570  1.0816 -0.0021  0.8544
  183SLPC   H3S20915   0.099   3.808   2.522  0.0919 -1.4027  0.9144
  183SLPC   C2420916  -0.038   3.655   2.585  0.2736 -0.5097 -0.3771
  183SLPC   H4R20917   0.011   3.569   2.535  3.4017  1.0216 -0.1853
  183SLPC   H4S20918  -0.147   3.645   2.565  0.6178 -2.2923 -1.5195
  183SLPC   C2520919  -0.005   3.666   2.732 -0.4441 -0.2067 -1.3349
  183SLPC   H5R20920   0.106   3.673   2.739 -0.4429  1.3554 -2.3709
  183SLPC   H5S20921  -0.019   3.573   2.791  0.7644  0.7632  0.5873
  183SLPC   C2620922  -0.060   3.789   2.808  0.4284  0.5254  0.1037
  183SLPC   H6R20923  -0.170   3.784   2.804  0.4141 -2.0452  1.7140
  183SLPC   H6S20924  -0.031   3.886   2.762 -0.0247 -0.2074 -1.8190
  183SLPC   C2720925  -0.020   3.791   2.956  0.0658  0.6762  0.1551
  183SLPC   H7R20926   0.084   3.827   2.969  0.3474 -0.9569  3.4044
  183SLPC   H7S20927  -0.024   3.688   2.998 -2.9349  0.0539 -1.3598
  183SLPC   C2820928  -0.097   3.891   3.052 -0.4136 -0.5156 -0.1960
  183SLPC   H8R20929  -0.203   3.861   3.059 -0.8683  0.5921 -1.7701
  183SLPC   H8S20930  -0.092   3.989   3.000  4.0759 -0.2283  0.3425
  183SLPC   C2920931  -0.036   3.893   3.194 -0.3636 -0.2345  0.3356
  183SLPC   H9R20932  -0.026   3.791   3.235 -0.8648 -0.9647 -1.2479
  183SLPC  C21020933   0.023   4.000   3.250  0.2439  0.2493  0.2855
  183SLPC  H10R20934   0.075   3.984   3.346  1.6370 -2.0074 -0.7736
  183SLPC  C21120935   0.018   4.145   3.199 -0.2006  0.3077  0.1027
  183SLPC  H11R20936  -0.033   4.157   3.101  1.5027  1.3240 -0.7104
  183SLPC  H11S20937   0.122   4.181   3.185  0.3601 -1.3187 -0.1063
  183SLPC  C21220938  -0.039   4.244   3.298  0.4193  0.8390  0.5242
  183SLPC  H12R20939  -0.099   4.197   3.378  0.3524 -0.1918 -0.1115
  183SLPC  C21320940  -0.051   4.374   3.282  0.0852 -0.5499  0.3204
  183SLPC  H13R20941  -0.113   4.421   3.359 -0.1108  3.0158 -1.8014
  183SLPC  C21420942   0.004   4.472   3.179  0.2893  0.6086 -0.0700
  183SLPC  H14R20943   0.100   4.443   3.132  0.1542  0.4313 -0.2437
  183SLPC  H14S20944   0.016   4.564   3.239  0.5125 -0.2173  1.1874
  183SLPC  C21520945  -0.097   4.503   3.071 -0.7965  0.9849 -0.1764
  183SLPC  H15R20946  -0.190   4.544   3.116 -0.6205  2.8645 -1.3947
  183SLPC  H15S20947  -0.131   4.411   3.019 -2.0795  0.4476  1.5184
  183SLPC  C21620948  -0.051   4.619   2.979  0.2922 -0.0271 -0.0367
  183SLPC  H16R20949  -0.035   4.706   3.046 -2.9853 -1.0201  2.2482
  183SLPC  H16S20950  -0.135   4.641   2.909 -0.0928  0.6957  0.6393
  183SLPC  C21720951   0.073   4.587   2.895  0.2884  0.2229 -0.4262
  183SLPC  H17R20952   0.041   4.502   2.831 -1.0239  0.5105 -0.1782
  183SLPC  H17S20953   0.161   4.549   2.952 -0.2246 -4.7143 -2.4219
  183SLPC  C21820954   0.109   4.710   2.810  0.7153 -0.2033 -0.4493
  183SLPC  H18R20955   0.028   4.747   2.743 -0.0145 -0.2931  0.3477
  183SLPC  H18S20956   0.201   4.672   2.761  0.8995 -0.4703  0.0931
  183SLPC  H18T20957   0.133   4.789   2.885 -2.0215 -0.2870  0.6451
  183SLPC   C3320958  -0.505   3.819   2.360 -0.1076 -0.8070  0.5949
  183SLPC   H3X20959  -0.443   3.900   2.406 -1.3245 -0.7766  2.2935
  183SLPC   H3Y20960  -0.434   3.752   2.307 -2.2259 -1.3599 -1.7668
  183SLPC   C3420961  -0.569   3.737   2.469  0.5692  0.0631  0.2577
  183SLPC   H4X20962  -0.630   3.658   2.419  1.8206  0.6963 -2.5081
  183SLPC   H4Y20963  -0.638   3.805   2.521 -0.1725 -0.2492 -0.2945
  183SLPC   C3520964  -0.473   3.678   2.572 -0.5774  0.5101  0.3307
  183SLPC   H5X20965  -0.403   3.757   2.607  2.5706 -1.4998 -0.9730
  183SLPC   H5Y20966  -0.424   3.594   2.518 -0.6361  1.1198 -0.6918
  183SLPC   C3620967  -0.543   3.629   2.699  0.3090  0.2295 -0.0988
  183SLPC   H6X20968  -0.631   3.565   2.675  0.9032 -0.2005 -1.1614
  183SLPC   H6Y20969  -0.593   3.716   2.748 -0.9427 -0.3440 -0.3010
  183SLPC   C3720970  -0.456   3.560   2.796 -0.6957  0.1129 -0.1347
  183SLPC   H7X20971  -0.365   3.624   2.794 -0.8487  0.3596  0.5705
  183SLPC   H7Y20972  -0.433   3.461   2.752  0.5109  2.3417 -5.3931
  183SLPC   C3820973  -0.524   3.554   2.934  0.3400 -0.7900 -0.2509
  183SLPC   H8X20974  -0.629   3.517   2.927 -0.1374  0.6508 -1.5950
  183SLPC   H8Y20975  -0.542   3.658   2.969 -2.1083 -0.6207 -1.7237
  183SLPC   C3920976  -0.454   3.470   3.031 -0.2284  0.7470 -0.9264
  183SLPC   H9X20977  -0.384   3.393   2.992 -1.0892 -0.6222  0.1438
  183SLPC   H9Y20978  -0.531   3.411   3.086 -1.1430  1.0638 -1.8222
  183SLPC  C31020979  -0.361   3.542   3.128 -0.0345  0.7245 -0.1828
  183SLPC  H10X20980  -0.411   3.628   3.178  0.6604  0.8939  0.2539
  183SLPC  H10Y20981  -0.268   3.562   3.071  1.2658 -3.3071  0.2197
  183SLPC  C31120982  -0.312   3.452   3.251  0.0251  0.1939 -1.0906
  183SLPC  H11X20983  -0.233   3.511   3.303  0.4939 -1.5185  0.2252
  183SLPC  H11Y20984  -0.257   3.362   3.215  2.0819 -0.4880  3.1212
  183SLPC  C31220985  -0.425   3.419   3.346  0.3430 -0.1469  0.5694
  183SLPC  H12X20986  -0.499   3.346   3.306 -0.0874 -0.5977  2.1079
  183SLPC  H12Y20987  -0.477   3.513   3.375 -1.1780 -0.7402 -0.1142
  183SLPC  C31320988  -0.373   3.356   3.479 -0.1534  0.1559  0.1941
  183SLPC  H13X20989  -0.457   3.342   3.550 -0.0601 -0.1207  0.2489
  183SLPC  H13Y20990  -0.302   3.423   3.532 -0.6057  0.6101  0.2448
  183SLPC  C31420991  -0.303   3.222   3.453 -0.1600  0.1501 -0.4414
  183SLPC  H14X20992  -0.251   3.177   3.540 -1.6838 -2.7986 -0.9160
  183SLPC  H14Y20993  -0.216   3.243   3.388  1.4105 -1.8535  0.9140
  183SLPC  C31520994  -0.391   3.113   3.395  0.4760  0.4901 -0.4674
  183SLPC  H15X20995  -0.457   3.147   3.312  0.6339 -0.3053 -0.9246
  183SLPC  H15Y20996  -0.464   3.088   3.475  2.2745 -0.4859  0.9238
  183SLPC  C31620997  -0.316   2.987   3.361 -0.1163 -0.8025  0.6043
  183SLPC  H16X20998  -0.284   2.946   3.459 -0.9122 -1.7061  0.5041
  183SLPC  H16Y20999  -0.228   3.003   3.295  0.8070 -1.8381  1.5403
  183SLPC  C31721000  -0.401   2.887   3.282 -0.5915  0.6611  0.0672
  183SLPC  H17X21001  -0.492   2.845   3.331 -1.9563  0.6118 -2.3567
  183SLPC  H17Y21002  -0.335   2.798   3.274 -1.4269 -0.0158  0.5672
  183SLPC  C31821003  -0.447   2.938   3.141 -0.0113  0.1971 -0.4606
  183SLPC  H18X21004  -0.482   3.043   3.149 -1.6471 -0.2478 -1.1553
  183SLPC  H18Y21005  -0.527   2.871   3.102 -0.7637  0.6270  0.3038
  183SLPC  H18Z21006  -0.358   2.939   3.075  1.0515 -0.5897  0.9163
  184SLPC     N21007   0.117   5.877   1.974 -0.5104  0.0017 -0.1047
  184SLPC   C1321008   0.218   5.951   1.889 -0.0826  0.0739 -0.0517
  184SLPC  H13A21009   0.191   6.050   1.854 -0.6548  0.2768  0.9189
  184SLPC  H13B21010   0.314   5.955   1.938  1.3577  0.3343 -2.6996
  184SLPC  H13C21011   0.234   5.889   1.802 -2.3468  0.1627 -0.6014
  184SLPC   C1421012   0.014   5.826   1.878 -0.2843 -0.1783  0.7773
  184SLPC  H14A21013  -0.021   5.911   1.821  0.8777 -1.5537 -2.1425
  184SLPC  H14B21014   0.052   5.764   1.799  1.2240  1.2942  0.2815
  184SLPC  H14C21015  -0.064   5.770   1.927 -1.5071 -1.8192 -2.7502
  184SLPC   C1521016   0.049   5.988   2.047 -0.3556  0.3376 -0.1883
  184SLPC  H15A21017  -0.014   6.050   1.985  1.8038  0.1477 -2.7404
  184SLPC  H15B21018  -0.009   5.955   2.132  2.3917 -1.5064  1.0903
  184SLPC  H15C21019   0.120   6.063   2.077 -0.0722  1.4525 -3.2723
  184SLPC   C1221020   0.179   5.768   2.054 -0.2015  0.4248  0.2641
  184SLPC  H12A21021   0.261   5.813   2.108 -1.7314  0.2716  2.9188
  184SLPC  H12B21022   0.218   5.694   1.986  1.3137  0.8529  0.6243
  184SLPC   C1121023   0.093   5.700   2.160  0.5238  0.5113  0.2884
  184SLPC  H11A21024   0.054   5.782   2.224  0.7438  0.5131  0.4231
  184SLPC  H11B21025   0.159   5.631   2.217  0.6214  0.1532 -0.2586
  184SLPC     P21026   0.017   5.497   2.013  0.1382 -0.5061  0.0439
  184SLPC   O1321027  -0.085   5.485   1.905 -0.2285  0.1889 -0.1517
  184SLPC   O1421028   0.162   5.491   1.965 -0.1701 -0.0604 -0.0397
  184SLPC   O1221029  -0.009   5.630   2.093  0.2233  0.0074 -0.1089
  184SLPC   O1121030  -0.007   5.386   2.127 -0.8715  0.2378  0.0952
  184SLPC    C121031  -0.128   5.307   2.138  0.4394 -0.2464  0.3215
  184SLPC    HA21032  -0.157   5.270   2.038 -0.3764  0.2343  0.3657
  184SLPC    HB21033  -0.106   5.218   2.202  1.6738 -0.4230 -0.3227
  184SLPC    C221034  -0.239   5.393   2.194  0.0073 -0.9861  0.1125
  184SLPC    HS21035  -0.269   5.462   2.112  2.4376 -0.6281 -0.5535
  184SLPC   O2121036  -0.192   5.471   2.307 -0.1012  0.5895 -0.2892
  184SLPC   C2121037  -0.267   5.579   2.328  0.3344  0.5359  0.2560
  184SLPC   O2221038  -0.367   5.610   2.264  0.6006 -1.0773 -0.0813
  184SLPC   C2221039  -0.210   5.668   2.444  0.0707 -0.2129  0.0238
  184SLPC   H2R21040  -0.182   5.769   2.408  1.1918  0.4532  2.5837
  184SLPC   H2S21041  -0.292   5.684   2.518  1.2332 -1.0106  1.5342
  184SLPC    C321042  -0.363   5.301   2.230 -0.0529 -0.0440  0.5952
  184SLPC    HX21043  -0.391   5.250   2.135  0.9603  1.8510 -0.8001
  184SLPC    HY21044  -0.460   5.351   2.250 -0.4961 -0.1332 -1.1558
  184SLPC   O3121045  -0.326   5.205   2.333 -0.4991  0.7897 -0.0995
  184SLPC   C3121046  -0.353   5.250   2.454  0.1569  0.7230 -0.0268
  184SLPC   O3221047  -0.424   5.344   2.479  0.6880  0.4343 -0.5320
  184SLPC   C3221048  -0.288   5.158   2.552  0.4925  0.0783  0.0641
  184SLPC   H2X21049  -0.232   5.072   2.508 -0.4995  0.2233 -1.5648
  184SLPC   H2Y21050  -0.373   5.110   2.605  0.0766 -1.2399 -1.6781
  184SLPC   C2321051  -0.088   5.622   2.521  0.2315 -0.1007 -0.0030
  184SLPC   H3R21052  -0.002   5.620   2.450  0.5830 -2.9033  0.3909
  184SLPC   H3S21053  -0.094   5.514   2.547 -0.2718  0.3403  1.8256
  184SLPC   C2421054  -0.065   5.698   2.656  0.8407 -0.2260  0.6570
  184SLPC   H4R21055  -0.085   5.807   2.648  0.8377 -0.2763 -0.1613
  184SLPC   H4S21056   0.042   5.688   2.684  1.2509  1.0316 -0.3337
  184SLPC   C2521057  -0.132   5.630   2.773 -0.1611  0.9873  0.0476
  184SLPC   H5R21058  -0.080   5.546   2.824 -3.8490 -0.9908  0.8589
  184SLPC   H5S21059  -0.218   5.574   2.732  1.9727 -1.4821 -1.3777
  184SLPC   C2621060  -0.183   5.728   2.878 -0.6557 -0.5515 -0.6909
  184SLPC   H6R21061  -0.250   5.806   2.835  1.0105  1.5625  0.3308
  184SLPC   H6S21062  -0.090   5.784   2.903 -0.8146  0.0393 -1.3853
  184SLPC   C2721063  -0.246   5.660   2.994  0.4978 -0.0815 -0.2128
  184SLPC   H7R21064  -0.172   5.593   3.041  0.1624 -0.0707  0.3358
  184SLPC   H7S21065  -0.335   5.597   2.975  1.6033 -1.4241 -1.1809
  184SLPC   C2821066  -0.276   5.754   3.111  0.1747  0.5268 -0.8644
  184SLPC   H8R21067  -0.341   5.841   3.085  1.6975  1.9875  0.0601
  184SLPC   H8S21068  -0.177   5.793   3.143  0.2444  0.0171 -0.4446
  184SLPC   C2921069  -0.355   5.677   3.219 -0.3867 -0.1630  0.2558
  184SLPC   H9R21070  -0.439   5.613   3.191 -1.0302  0.7100  0.1590
  184SLPC  C21021071  -0.333   5.667   3.353  0.5584  0.0780  0.2378
  184SLPC  H10R21072  -0.410   5.619   3.416  0.6543  0.9575  1.0559
  184SLPC  C21121073  -0.227   5.735   3.437  0.0165 -0.1649 -0.0243
  184SLPC  H11R21074  -0.173   5.806   3.371 -0.3031  2.2934  2.2020
  184SLPC  H11S21075  -0.162   5.655   3.479  0.9610  0.2026 -0.7367
  184SLPC  C21221076  -0.299   5.813   3.542 -0.1382  0.1405 -0.3808
  184SLPC  H12R21077  -0.378   5.879   3.503 -1.1759 -1.2898 -0.7631
  184SLPC  C21321078  -0.274   5.815   3.672  0.1968  0.6535  0.4526
  184SLPC  H13R21079  -0.350   5.861   3.737 -1.2708  2.5111 -2.3518
  184SLPC  C21421080  -0.175   5.722   3.741  0.1900  0.6196 -0.4577
  184SLPC  H14R21081  -0.147   5.633   3.681 -0.2550  0.2810 -0.1748
  184SLPC  H14S21082  -0.227   5.690   3.834  1.0802 -1.1166 -0.5111
  184SLPC  C21521083  -0.039   5.787   3.788  0.1662 -0.6652 -0.2856
  184SLPC  H15R21084   0.014   5.709   3.846 -0.6623 -0.9712  0.0813
  184SLPC  H15S21085  -0.056   5.880   3.847 -0.6918 -0.3641 -0.9781
  184SLPC  C21621086   0.044   5.830   3.663  0.2494 -0.5611  0.0525
  184SLPC  H16R21087  -0.015   5.908   3.610  1.0020 -1.0200 -1.5385
  184SLPC  H16S21088   0.052   5.737   3.603  0.2323 -1.4754  1.4278
  184SLPC  C21721089   0.180   5.880   3.702 -0.1116  0.0227 -0.8125
  184SLPC  H17R21090   0.245   5.795   3.732 -0.0436 -0.8591 -3.2653
  184SLPC  H17S21091   0.174   5.950   3.789  1.5253  1.0945 -1.5191
  184SLPC  C21821092   0.249   5.962   3.591 -0.3673 -0.1363 -0.1171
  184SLPC  H18R21093   0.273   5.906   3.498 -1.2248  2.1958 -1.8487
  184SLPC  H18S21094   0.347   5.993   3.633  1.6628 -3.8529 -1.6512
  184SLPC  H18T21095   0.187   6.050   3.564 -1.3079 -0.4705  0.9032
  184SLPC   C3321096  -0.191   5.241   2.648  0.1046 -0.0289  0.2227
  184SLPC   H3X21097  -0.242   5.332   2.687 -0.2641 -0.5575  0.9850
  184SLPC   H3Y21098  -0.111   5.272   2.577  1.3762  0.8684  1.9828
  184SLPC   C3421099  -0.134   5.151   2.764  0.1162  0.0143  0.2713
  184SLPC   H4X21100  -0.073   5.069   2.720 -1.6638 -0.8213 -0.7283
  184SLPC   H4Y21101  -0.207   5.085   2.814  0.1430 -1.2419 -1.2698
  184SLPC   C3521102  -0.046   5.224   2.868  0.3354 -0.1451 -0.2312
  184SLPC   H5X21103  -0.111   5.281   2.939  0.2816 -0.6618  0.1354
  184SLPC   H5Y21104   0.017   5.296   2.812  0.3106 -0.5634 -0.7939
  184SLPC   C3621105   0.035   5.120   2.944  0.0025  0.4302  0.5541
  184SLPC   H6X21106   0.118   5.082   2.881  0.4106 -0.7808  1.7820
  184SLPC   H6Y21107  -0.033   5.034   2.958  2.9579 -2.0076  0.8450
  184SLPC   C3721108   0.109   5.179   3.059 -0.7009  0.3902  0.3095
  184SLPC   H7X21109   0.189   5.239   3.012 -0.4078 -0.7181 -0.6499
  184SLPC   H7Y21110   0.152   5.088   3.106 -1.4900 -0.7552 -1.0726
  184SLPC   C3821111   0.021   5.238   3.164  0.1314 -0.5293  0.1365
  184SLPC   H8X21112  -0.056   5.162   3.188 -0.8108  1.0828  2.4981
  184SLPC   H8Y21113  -0.018   5.338   3.134  1.0413 -1.0813 -3.2871
  184SLPC   C3921114   0.086   5.259   3.302  0.2319 -0.5642 -0.2191
  184SLPC   H9X21115   0.101   5.167   3.362  1.1441 -0.5208 -0.3678
  184SLPC   H9Y21116   0.010   5.317   3.359  0.2906 -1.1230  0.4421
  184SLPC  C31021117   0.214   5.344   3.291  0.2143  0.0842 -0.6883
  184SLPC  H10X21118   0.207   5.415   3.207  1.9204  1.4023  0.2307
  184SLPC  H10Y21119   0.299   5.284   3.253  0.0545 -0.1499 -0.6818
  184SLPC  C31121120   0.251   5.397   3.422 -0.6890 -0.4024 -0.2871
  184SLPC  H11X21121   0.283   5.319   3.495  1.5882 -1.7039 -2.5268
  184SLPC  H11Y21122   0.159   5.447   3.459 -0.2825  1.2456 -1.4190
  184SLPC  C31221123   0.368   5.496   3.423 -0.2968 -1.3618  1.0192
  184SLPC  H12X21124   0.342   5.567   3.342  4.1177 -2.1904 -1.4232
  184SLPC  H12Y21125   0.453   5.446   3.372 -0.2856 -0.0384 -0.3324
  184SLPC  C31321126   0.392   5.556   3.563 -0.3019  0.3275 -0.2566
  184SLPC  H13X21127   0.412   5.480   3.641  1.3215  0.5649 -0.4043
  184SLPC  H13Y21128   0.298   5.606   3.594 -1.9667 -3.9306  2.4366
  184SLPC  C31421129   0.513   5.648   3.559 -0.3723 -0.2242 -0.7383
  184SLPC  H14X21130   0.499   5.698   3.460 -1.6216 -1.0025 -0.9845
  184SLPC  H14Y21131   0.604   5.586   3.546  0.4715  0.9298 -0.4732
  184SLPC  C31521132   0.535   5.755   3.670 -0.3507 -0.1087 -0.5652
  184SLPC  H15X21133   0.572   5.706   3.763  2.8024  0.9849 -1.1109
  184SLPC  H15Y21134   0.442   5.807   3.703  0.8213  0.7285  1.6402
  184SLPC  C31621135   0.622   5.880   3.632  0.2344 -0.3947  0.0368
  184SLPC  H16X21136   0.569   5.919   3.543  2.1787  1.3152 -0.4637
  184SLPC  H16Y21137   0.717   5.832   3.599  0.7150  0.1245  0.6460
  184SLPC  C31721138   0.634   5.986   3.743 -1.0017  0.0982 -0.4886
  184SLPC  H17X21139   0.690   5.958   3.835 -1.4283  1.0726  0.0840
  184SLPC  H17Y21140   0.527   6.009   3.760 -1.2180  1.2428 -2.8803
  184SLPC  C31821141   0.702   6.112   3.688 -0.5108 -0.2719  0.0449
  184SLPC  H18X21142   0.698   6.211   3.738 -1.1388  0.8043 -1.9935
  184SLPC  H18Y21143   0.662   6.126   3.585  0.7310 -0.2535 -0.4535
  184SLPC  H18Z21144   0.808   6.083   3.675  0.2096  2.5086 -1.0122
  185POPC     N21145   4.874   5.979   6.252 -0.6585 -0.1331 -0.4041
  185POPC   C1221146   4.912   5.919   6.116  0.3421 -0.0119 -0.1258
  185POPC  H12A21147   4.984   5.986   6.071  0.3574  0.6509  0.8573
  185POPC  H12B21148   4.828   5.901   6.051 -0.5808  0.1592  0.9956
  185POPC   C1321149   4.996   5.991   6.332 -0.7541 -0.1791  0.1251
  185POPC  H13A21150   5.065   6.060   6.287 -1.5344 -0.1524 -1.0640
  185POPC  H13B21151   4.978   6.032   6.431 -0.5306 -1.5378  0.7513
  185POPC  H13C21152   5.049   5.897   6.341  1.5997  1.0969  0.2362
  185POPC   C1421153   4.818   6.112   6.225  0.3868 -0.5404  0.6190
  185POPC  H14A21154   4.798   6.167   6.315  0.5710 -0.0835  0.3839
  185POPC  H14B21155   4.892   6.157   6.161  0.9230 -1.1637  0.7901
  185POPC  H14C21156   4.731   6.117   6.161 -0.1773  0.4540  1.4417
  185POPC   C1521157   4.773   5.898   6.326 -0.1178  0.5107  0.1135
  185POPC  H15A21158   4.676   5.904   6.280 -1.0637  1.3519  2.0955
  185POPC  H15B21159   4.758   5.921   6.431  1.6138 -0.1437  0.5379
  185POPC  H15C21160   4.801   5.794   6.320 -1.5779 -0.1162  2.5607
  185POPC   C1121161   4.967   5.778   6.130  0.2609 -0.1545  0.6498
  185POPC  H11A21162   4.895   5.712   6.181 -0.5122  0.7407  0.7574
  185POPC  H11B21163   5.063   5.780   6.185 -0.0031  2.0280  1.1259
  185POPC     P21164   4.858   5.706   5.900  0.2552  0.1438  0.2308
  185POPC   O1321165   4.795   5.835   5.865 -0.4545 -0.4344 -0.1141
  185POPC   O1421166   4.772   5.614   5.973  0.7812 -0.5381  0.0332
  185POPC   O1221167   4.983   5.736   5.991  0.1355  0.4959 -0.3222
  185POPC   O1121168   4.924   5.635   5.777 -0.2066  0.3662 -0.0787
  185POPC    C121169   4.999   5.512   5.788  0.4751 -0.1912 -0.5279
  185POPC    HA21170   4.979   5.453   5.879  2.6126 -0.7007 -0.3325
  185POPC    HB21171   5.108   5.534   5.791  0.6852 -1.0156 -1.5299
  185POPC    C221172   4.971   5.407   5.676 -0.2842  0.2898 -0.5958
  185POPC    HS21173   5.033   5.319   5.703  1.3431  1.3152 -0.9060
  185POPC   O2121174   5.011   5.460   5.546  0.1606  0.1479 -0.1395
  185POPC   C2121175   4.979   5.391   5.439 -0.3763 -0.1235 -0.1206
  185POPC   O2221176   4.945   5.275   5.435  0.0611  0.0740 -0.0613
  185POPC   C2221177   4.996   5.468   5.311  0.3521 -0.5902  0.9253
  185POPC   H2R21178   5.098   5.511   5.323  0.6471 -1.5950  2.3474
  185POPC   H2S21179   4.928   5.556   5.323 -0.3670 -1.3726  2.9787
  185POPC    C321180   4.822   5.370   5.674  0.0320  0.1070 -0.6831
  185POPC    HX21181   4.806   5.379   5.784  0.4948 -2.3162 -0.3606
  185POPC    HY21182   4.806   5.268   5.631  0.4188  0.3379 -1.3875
  185POPC   O3121183   4.737   5.469   5.604  0.0717 -0.7054  0.7192
  185POPC   C3121184   4.608   5.486   5.654 -0.2001 -0.1369 -0.1571
  185POPC   O3221185   4.566   5.424   5.748  0.2115  0.0136 -0.7240
  185POPC   C3221186   4.531   5.584   5.567  0.2210  0.6496  0.2167
  185POPC   H2X21187   4.540   5.683   5.618 -1.6493  0.8773  0.1583
  185POPC   H2Y21188   4.428   5.544   5.563  0.3744  0.3471 -0.6886
  185POPC   C2321189   4.982   5.395   5.174 -0.0855 -0.8057 -0.0080
  185POPC   H3R21190   4.882   5.351   5.154 -0.0645 -0.1575 -1.6546
  185POPC   H3S21191   5.051   5.308   5.179 -0.4091 -1.0681 -0.1195
  185POPC   C2421192   5.010   5.480   5.055 -0.4011 -0.2930  0.1061
  185POPC   H4R21193   5.065   5.572   5.086  1.1739 -1.2550  0.2186
  185POPC   H4S21194   4.910   5.508   5.014 -0.8077 -0.7260  0.7669
  185POPC   C2521195   5.087   5.414   4.945 -0.7391 -0.5049 -0.4645
  185POPC   H5R21196   5.011   5.362   4.883 -1.1028  2.2159 -2.4757
  185POPC   H5S21197   5.157   5.338   4.989 -2.7459 -1.9496  0.3803
  185POPC   C2621198   5.177   5.514   4.872 -0.1770 -0.4706  0.1832
  185POPC   H6R21199   5.233   5.463   4.791 -0.0020 -0.6257  0.4015
  185POPC   H6S21200   5.240   5.561   4.951  1.0488  0.6400 -1.3866
  185POPC   C2721201   5.083   5.613   4.797 -0.7385  0.3154 -0.3342
  185POPC   H7R21202   5.150   5.694   4.761 -1.2015  0.7140 -0.3010
  185POPC   H7S21203   5.016   5.647   4.879  0.6074 -0.1025  0.9902
  185POPC   C2821204   5.007   5.547   4.676 -0.1684  0.5847 -0.1328
  185POPC   H8R21205   4.935   5.465   4.695  1.1563 -0.6534 -0.2678
  185POPC   H8S21206   5.087   5.499   4.616 -0.6181 -1.7501  1.0160
  185POPC   C2921207   4.934   5.654   4.608  0.9688 -0.0696  1.0220
  185POPC   H9121208   4.832   5.675   4.643 -0.6631 -1.6921 -2.3458
  185POPC  C21021209   4.955   5.715   4.493 -0.4134  0.0132  0.3754
  185POPC  H10121210   4.901   5.808   4.471  0.8027  0.7793  0.4984
  185POPC  C21121211   5.079   5.698   4.405  0.0042  0.0195 -0.1605
  185POPC  H11R21212   5.138   5.615   4.448 -1.0537 -0.3041  0.7232
  185POPC  H11S21213   5.136   5.793   4.411 -2.2166  1.3492  1.3373
  185POPC  C21221214   5.039   5.673   4.259 -0.4486  0.1388  0.3533
  185POPC  H12R21215   4.968   5.752   4.226 -2.3471 -0.2959  3.0534
  185POPC  H12S21216   4.986   5.576   4.251  3.3777 -2.0811 -0.5106
  185POPC  C21321217   5.158   5.655   4.161 -0.0940  0.5109  0.0996
  185POPC  H13R21218   5.218   5.573   4.204 -1.6142 -2.3367 -2.7224
  185POPC  H13S21219   5.221   5.745   4.144  0.0900  0.4420  0.4161
  185POPC  C21421220   5.108   5.599   4.026  0.4767 -0.0112 -0.3248
  185POPC  H14R21221   5.030   5.670   3.990  1.0365  0.4675 -0.6087
  185POPC  H14S21222   5.061   5.501   4.050 -1.6071  1.3022  1.2494
  185POPC  C21521223   5.218   5.576   3.922  0.0455 -0.3204  0.6506
  185POPC  H15R21224   5.278   5.668   3.906  0.0710 -0.5833 -0.9519
  185POPC  H15S21225   5.172   5.560   3.822  3.2035  0.6754 -1.0939
  185POPC  C21621226   5.301   5.449   3.936 -0.6797  0.3198 -0.0671
  185POPC  H16R21227   5.252   5.360   3.892  2.2826 -1.0714 -0.8124
  185POPC  H16S21228   5.302   5.429   4.045 -1.2352 -1.0546 -0.2934
  185POPC  C21721229   5.439   5.458   3.868 -0.1982  0.2920 -0.1726
  185POPC  H17R21230   5.476   5.354   3.861  0.5620  0.6159 -1.2192
  185POPC  H17S21231   5.490   5.512   3.950 -3.0161  1.6028  0.8571
  185POPC  C21821232   5.453   5.538   3.736 -0.3117 -0.4759  0.8486
  185POPC  H18R21233   5.557   5.545   3.698 -0.3002 -0.6372  0.8488
  185POPC  H18S21234   5.413   5.642   3.739 -1.0269 -0.7390  0.7039
  185POPC  H18T21235   5.403   5.479   3.656 -0.3168 -2.7400  2.4197
  185POPC   C3321236   4.581   5.602   5.419  0.2157 -0.3706 -0.4587
  185POPC   H3X21237   4.584   5.502   5.369 -2.8942  0.3922 -2.4731
  185POPC   H3Y21238   4.681   5.651   5.411 -0.4299  1.8906  3.1973
  185POPC   C3421239   4.477   5.686   5.338 -0.5564 -0.1488 -0.2954
  185POPC   H4X21240   4.475   5.794   5.367  2.5140 -0.4428  1.4476
  185POPC   H4Y21241   4.383   5.634   5.365  1.0712 -2.1087  1.9640
  185POPC   C3521242   4.501   5.680   5.181 -0.6195 -0.5134 -0.0086
  185POPC   H5X21243   4.407   5.711   5.132 -1.5121 -1.2311  1.1689
  185POPC   H5Y21244   4.515   5.573   5.157 -3.6487 -1.7007  2.6697
  185POPC   C3621245   4.626   5.759   5.127  0.4691  0.9370 -0.2744
  185POPC   H6X21246   4.635   5.743   5.018 -0.2522  0.9026 -0.3346
  185POPC   H6Y21247   4.713   5.716   5.181 -0.4053  0.2743  0.6522
  185POPC   C3721248   4.624   5.910   5.153 -0.9288  0.7182 -0.2624
  185POPC   H7X21249   4.711   5.966   5.112 -0.8496  1.1467  0.4836
  185POPC   H7Y21250   4.629   5.928   5.262  0.6357  0.7783 -0.3105
  185POPC   C3821251   4.495   5.979   5.099 -0.1490 -0.0396  0.5587
  185POPC   H8X21252   4.503   6.087   5.128  1.0699 -0.3478  1.4814
  185POPC   H8Y21253   4.404   5.940   5.149 -1.4286  0.3597 -1.3618
  185POPC   C3921254   4.465   5.963   4.952 -0.0314 -0.1441  0.3367
  185POPC   H9X21255   4.369   6.011   4.925  0.1211  0.3974  0.7291
  185POPC   H9Y21256   4.465   5.857   4.917  1.3714  0.3740 -1.3826
  185POPC  C31021257   4.576   6.035   4.866 -0.5617  0.8117  0.3750
  185POPC  H10X21258   4.681   6.015   4.896 -0.2230  2.8720  0.6937
  185POPC  H10Y21259   4.568   6.142   4.895 -2.2253  0.7103  0.3964
  185POPC  C31121260   4.558   6.015   4.716  0.2958  0.3646  0.6147
  185POPC  H11X21261   4.462   6.066   4.694 -0.2286 -0.7741  0.1649
  185POPC  H11Y21262   4.559   5.910   4.679  2.2915 -0.2380  2.1529
  185POPC  C31221263   4.670   6.081   4.640  0.0034  0.0801  0.2281
  185POPC  H12X21264   4.764   6.034   4.674 -0.2549  0.3839  1.4050
  185POPC  H12Y21265   4.674   6.186   4.675  0.8836 -0.3097  1.3524
  185POPC  C31321266   4.649   6.068   4.490 -0.1802  0.2614  0.6436
  185POPC  H13X21267   4.551   6.116   4.467  0.1247 -0.6315 -3.2191
  185POPC  H13Y21268   4.641   5.962   4.459 -0.1544  0.9222 -1.8590
  185POPC  C31421269   4.762   6.130   4.414 -0.0171  0.2262 -0.1340
  185POPC  H14X21270   4.856   6.072   4.419  0.3890  0.9263  0.5569
  185POPC  H14Y21271   4.786   6.228   4.462  3.5200 -0.6976  0.2119
  185POPC  C31521272   4.736   6.155   4.269 -0.3469 -0.3035 -0.1950
  185POPC  H15X21273   4.835   6.169   4.221 -0.8761 -2.8203 -2.2318
  185POPC  H15Y21274   4.676   6.247   4.248 -2.1112 -1.3199  0.1828
  185POPC  C31621275   4.669   6.043   4.193 -0.0288 -0.7674 -0.0535
  185POPC  H16X21276   4.562   6.062   4.169  0.2031 -1.1084 -1.4605
  185POPC  H16Y21277   4.678   5.946   4.248 -0.1910 -0.2764  0.8621
  185POPC  H16Z21278   4.707   6.041   4.089 -0.5721 -0.2470 -0.2661
  186POPC     N21279   1.677   0.912   6.438 -0.3047 -1.0420  0.2274
  186POPC   C1221280   1.669   1.033   6.348 -0.7235 -0.1751 -0.2052
  186POPC  H12A21281   1.757   1.052   6.288 -1.3321 -1.2487 -1.5057
  186POPC  H12B21282   1.658   1.111   6.421  0.2619 -0.8417  0.6796
  186POPC   C1321283   1.552   0.883   6.513  0.7792 -0.1513 -0.4672
  186POPC  H13A21284   1.472   0.839   6.455  0.5668 -0.5928  0.1494
  186POPC  H13B21285   1.570   0.816   6.595  1.7872  1.1965  0.4603
  186POPC  H13C21286   1.512   0.972   6.560 -0.1230  0.2300 -1.8623
  186POPC   C1421287   1.705   0.787   6.351 -0.5334 -0.6539 -0.2353
  186POPC  H14A21288   1.711   0.695   6.407  0.9679 -0.0876  0.5786
  186POPC  H14B21289   1.628   0.788   6.274  0.6005  2.8045 -1.5187
  186POPC  H14C21290   1.798   0.798   6.298  0.5298 -0.7822  1.5240
  186POPC   C1521291   1.798   0.922   6.531  0.3473 -0.0024 -0.0749
  186POPC  H15A21292   1.784   0.989   6.615 -2.3179 -0.8659  0.2708
  186POPC  H15B21293   1.896   0.937   6.488  1.1583  0.6894  1.9196
  186POPC  H15C21294   1.808   0.825   6.577 -0.0210 -0.6572 -1.3280
  186POPC   C1121295   1.549   1.055   6.264 -0.1310 -0.6426  0.2153
  186POPC  H11A21296   1.553   1.151   6.209 -2.5263 -0.1965  0.6991
  186POPC  H11B21297   1.460   1.058   6.331 -0.8381 -0.6675 -0.7061
  186POPC     P21298   1.404   0.965   6.066  0.1579  0.6127  0.2295
  186POPC   O1321299   1.362   1.109   6.059 -0.0174  0.4299 -0.0221
  186POPC   O1421300   1.302   0.875   6.117 -0.1561 -0.1198 -0.2541
  186POPC   O1221301   1.538   0.962   6.156 -0.4710  0.0707  0.3200
  186POPC   O1121302   1.439   0.918   5.919 -0.1898 -0.3312 -0.5678
  186POPC    C121303   1.528   0.806   5.890 -0.1706  0.3063  0.1052
  186POPC    HA21304   1.594   0.773   5.973  1.7063 -1.6066 -2.0156
  186POPC    HB21305   1.610   0.843   5.825  1.5085  0.6705  2.3109
  186POPC    C221306   1.447   0.680   5.836  0.2884 -0.5858 -0.3839
  186POPC    HS21307   1.395   0.636   5.924  0.2965 -1.7365 -0.9424
  186POPC   O2121308   1.532   0.582   5.769  0.1538 -0.4272  0.1946
  186POPC   C2121309   1.483   0.462   5.753 -1.0510  0.2455 -0.5412
  186POPC   O2221310   1.371   0.426   5.780 -0.4812  0.0724  0.6381
  186POPC   C2221311   1.601   0.373   5.701  0.0200 -0.4188  0.2400
  186POPC   H2R21312   1.645   0.332   5.795 -1.8243  1.0926  1.8678
  186POPC   H2S21313   1.683   0.437   5.664  0.0720 -0.2628  0.6144
  186POPC    C321314   1.328   0.723   5.742 -0.4609 -0.4486 -0.0034
  186POPC    HX21315   1.266   0.788   5.807  1.2622  2.3966 -1.0121
  186POPC    HY21316   1.278   0.633   5.700  0.3501  0.0819 -2.2358
  186POPC   O3121317   1.370   0.802   5.626  0.1996  0.2484  0.5027
  186POPC   C3121318   1.275   0.886   5.587 -0.3020 -0.2097 -0.0981
  186POPC   O3221319   1.160   0.891   5.633 -0.1704  0.4785  0.1181
  186POPC   C3221320   1.328   0.970   5.473 -0.3906  0.0034  0.5371
  186POPC   H2X21321   1.424   1.014   5.506 -0.0557  0.4541 -0.9678
  186POPC   H2Y21322   1.256   1.054   5.463 -0.8760  0.0066  3.3481
  186POPC   C2321323   1.558   0.252   5.614 -0.2394 -0.0586 -0.8296
  186POPC   H3R21324   1.465   0.202   5.647  0.0352  0.0706  0.1796
  186POPC   H3S21325   1.642   0.180   5.624  2.4798  2.9667  0.0641
  186POPC   C2421326   1.569   0.296   5.466 -0.0007 -0.3204 -0.9534
  186POPC   H4R21327   1.531   0.212   5.404 -0.4959 -0.7074 -0.1321
  186POPC   H4S21328   1.671   0.329   5.438 -0.2968  1.0048 -0.5245
  186POPC   C2521329   1.470   0.415   5.442 -0.8203  0.2369 -0.4826
  186POPC   H5R21330   1.520   0.511   5.463  1.4216 -0.7720 -0.9404
  186POPC   H5S21331   1.385   0.403   5.513  0.4122 -1.1014  0.8215
  186POPC   C2621332   1.405   0.424   5.299 -0.0673 -0.1832 -0.4741
  186POPC   H6R21333   1.325   0.501   5.292  1.1908  1.0904 -1.6388
  186POPC   H6S21334   1.358   0.327   5.272 -1.0650 -0.0903  0.8441
  186POPC   C2721335   1.496   0.443   5.175 -0.0931 -0.4777 -0.5980
  186POPC   H7R21336   1.585   0.378   5.178  2.1016  2.3461  0.3899
  186POPC   H7S21337   1.532   0.548   5.178  1.9633 -1.1498  2.1060
  186POPC   C2821338   1.406   0.410   5.045  0.1266  0.3034 -1.0143
  186POPC   H8R21339   1.318   0.474   5.065 -1.4206 -2.0910  0.4775
  186POPC   H8S21340   1.382   0.301   5.045  1.0350  0.0903 -0.7758
  186POPC   C2921341   1.479   0.436   4.918 -0.3805 -0.3695  0.0097
  186POPC   H9121342   1.571   0.375   4.913  1.5787  2.3605  0.2611
  186POPC  C21021343   1.446   0.513   4.818  0.6064  0.1481  0.8299
  186POPC  H10121344   1.508   0.507   4.727 -2.0263 -0.0074 -1.0655
  186POPC  C21121345   1.308   0.590   4.811  0.1315  0.1036 -0.4256
  186POPC  H11R21346   1.309   0.668   4.889 -0.1379  0.8916 -1.1909
  186POPC  H11S21347   1.227   0.518   4.834  2.7203 -4.2083 -3.3221
  186POPC  C21221348   1.294   0.663   4.677 -0.1836 -0.0347 -0.3319
  186POPC  H12R21349   1.381   0.730   4.660  0.0412 -0.2480 -0.0344
  186POPC  H12S21350   1.213   0.739   4.678  0.7691  1.0348  0.9174
  186POPC  C21321351   1.298   0.591   4.541  0.3037 -0.0778  0.3012
  186POPC  H13R21352   1.194   0.553   4.527  0.2874 -0.8903  2.3480
  186POPC  H13S21353   1.370   0.506   4.536 -0.0946 -0.3890 -0.5233
  186POPC  C21421354   1.328   0.696   4.427  0.1083  0.1194  0.4384
  186POPC  H14R21355   1.418   0.759   4.440  2.5268 -2.4384 -2.4765
  186POPC  H14S21356   1.249   0.774   4.433  0.1905  0.2681 -0.3699
  186POPC  C21521357   1.309   0.641   4.280 -0.3801  0.8568  0.7974
  186POPC  H15R21358   1.220   0.577   4.300 -0.0931  0.6959  1.5949
  186POPC  H15S21359   1.391   0.576   4.243 -0.2913  0.6278  1.3863
  186POPC  C21621360   1.292   0.745   4.173 -0.1948  0.1160 -0.0728
  186POPC  H16R21361   1.381   0.806   4.146  0.3055 -0.6001 -0.0823
  186POPC  H16S21362   1.215   0.822   4.194  0.0237  0.0824  0.8855
  186POPC  C21721363   1.256   0.679   4.039 -0.2201 -0.0116 -0.4841
  186POPC  H17R21364   1.162   0.628   4.071  0.4543 -0.8473  0.1859
  186POPC  H17S21365   1.333   0.602   4.016 -1.1550 -0.6958 -1.4624
  186POPC  C21821366   1.231   0.784   3.926 -0.0972  0.6983 -0.0817
  186POPC  H18R21367   1.161   0.746   3.849  1.3069 -1.4733 -0.3790
  186POPC  H18S21368   1.331   0.812   3.885  1.6329  0.0745  3.3692
  186POPC  H18T21369   1.179   0.878   3.956 -1.9744 -0.7426  1.4118
  186POPC   C3321370   1.344   0.890   5.340  0.0896  0.0369 -0.4277
  186POPC   H3X21371   1.256   0.823   5.330  0.1002 -0.3245  1.6039
  186POPC   H3Y21372   1.437   0.829   5.350 -0.4825 -0.5018  2.3130
  186POPC   C3421373   1.338   0.977   5.213 -0.1700 -0.6844 -0.0164
  186POPC   H4X21374   1.239   1.026   5.220 -1.0709 -2.4249  0.2109
  186POPC   H4Y21375   1.331   0.913   5.122  0.5574 -0.8469  0.0333
  186POPC   C3521376   1.462   1.072   5.219 -0.5674  0.4395  0.1378
  186POPC   H5X21377   1.554   1.011   5.226 -1.3143 -0.6919  0.5374
  186POPC   H5Y21378   1.454   1.135   5.311 -1.0524 -0.2245  0.5653
  186POPC   C3621379   1.467   1.160   5.095 -0.3571  0.5421 -0.7523
  186POPC   H6X21380   1.556   1.227   5.097  0.8991 -0.9395  3.2103
  186POPC   H6Y21381   1.378   1.226   5.089  0.7664  2.2945  0.6453
  186POPC   C3721382   1.439   1.099   4.951 -0.3773  0.3512 -0.4252
  186POPC   H7X21383   1.337   1.055   4.944 -1.1103  2.1465 -2.0257
  186POPC   H7Y21384   1.511   1.016   4.936 -0.0719  0.0272  2.3388
  186POPC   C3821385   1.467   1.206   4.841 -0.5789  0.4382 -0.1956
  186POPC   H8X21386   1.575   1.234   4.846 -0.8478  1.4577  0.0770
  186POPC   H8Y21387   1.408   1.296   4.870 -0.3237  0.1601  1.2571
  186POPC   C3921388   1.434   1.167   4.694  0.0347 -0.0970  0.2891
  186POPC   H9X21389   1.335   1.117   4.693 -0.3725  0.6543 -1.4603
  186POPC   H9Y21390   1.505   1.092   4.652 -1.5323 -0.2354 -2.3318
  186POPC  C31021391   1.417   1.278   4.588  0.6667  0.1063  0.3856
  186POPC  H10X21392   1.356   1.358   4.637  4.0481  2.4369  1.1377
  186POPC  H10Y21393   1.358   1.228   4.508  0.5168 -0.4773  0.8527
  186POPC  C31121394   1.551   1.336   4.564  0.0562 -0.3429  0.0471
  186POPC  H11X21395   1.613   1.256   4.519  2.6345  1.9991 -0.8517
  186POPC  H11Y21396   1.583   1.373   4.664 -3.0279  0.1999  0.9447
  186POPC  C31221397   1.541   1.463   4.474  0.2777  0.4262 -0.1359
  186POPC  H12X21398   1.640   1.511   4.488  1.8540 -2.4994 -0.6187
  186POPC  H12Y21399   1.460   1.528   4.514 -0.8282 -1.9128  1.6593
  186POPC  C31321400   1.511   1.441   4.321 -0.2062  0.3333 -0.2243
  186POPC  H13X21401   1.403   1.415   4.317 -0.1035 -0.5365  1.7341
  186POPC  H13Y21402   1.562   1.351   4.280  0.8913 -0.2861  2.3096
  186POPC  C31421403   1.560   1.567   4.243  0.5529  0.1400 -0.2657
  186POPC  H14X21404   1.662   1.601   4.269  0.8670  0.8015 -2.1920
  186POPC  H14Y21405   1.493   1.649   4.276 -1.2986 -1.5179  0.3156
  186POPC  C31521406   1.553   1.558   4.093 -0.0670  0.5749  0.5210
  186POPC  H15X21407   1.634   1.495   4.050 -0.8544  1.1768 -2.0421
  186POPC  H15Y21408   1.581   1.657   4.052  0.3358  0.0617 -0.4884
  186POPC  C31621409   1.426   1.518   4.032  0.4208  0.5106  0.0370
  186POPC  H16X21410   1.341   1.588   4.039 -0.8468 -0.8504 -1.0398
  186POPC  H16Y21411   1.401   1.417   4.072 -0.8039 -1.1859 -4.3676
  186POPC  H16Z21412   1.443   1.503   3.923  1.7625  0.7534  0.1890
  187POPC     N21413   5.363   6.614   1.980  0.4941  0.1021 -0.6279
  187POPC   C1221414   5.502   6.562   1.950 -0.9656 -0.3335 -0.5993
  187POPC  H12A21415   5.570   6.573   2.034  0.4765 -0.4688 -1.7043
  187POPC  H12B21416   5.541   6.631   1.877 -1.3719  2.1855  1.4147
  187POPC   C1321417   5.284   6.618   1.855 -0.4955  0.3510 -0.1781
  187POPC  H13A21418   5.307   6.692   1.780  2.1198 -0.9201 -0.7230
  187POPC  H13B21419   5.297   6.526   1.801  0.1167  0.2455  0.1445
  187POPC  H13C21420   5.178   6.628   1.877 -1.0385 -2.6984 -0.9838
  187POPC   C1421421   5.292   6.521   2.081  0.0937  0.5100  0.1143
  187POPC  H14A21422   5.185   6.538   2.074  0.1985  1.2916  0.3063
  187POPC  H14B21423   5.309   6.416   2.061 -3.7950 -0.1014 -0.9189
  187POPC  H14C21424   5.315   6.542   2.184 -2.5650 -0.7807  1.0847
  187POPC   C1521425   5.368   6.749   2.041 -0.7774 -0.2767 -0.6588
  187POPC  H15A21426   5.420   6.738   2.135  0.7584 -1.2759 -1.5722
  187POPC  H15B21427   5.269   6.790   2.051 -1.2882 -1.8859  1.4354
  187POPC  H15C21428   5.433   6.815   1.985  0.0057  0.5776  1.1549
  187POPC   C1121429   5.528   6.414   1.901 -0.2864 -0.3302 -0.2840
  187POPC  H11A21430   5.623   6.399   1.847 -0.9618 -0.4244 -1.4766
  187POPC  H11B21431   5.455   6.381   1.824 -0.4620 -2.0878  0.5919
  187POPC     P21432   5.644   6.314   2.104 -0.0806 -0.2761  0.4156
  187POPC   O1321433   5.658   6.443   2.166  0.5376  0.4005  0.5420
  187POPC   O1421434   5.757   6.257   2.024  0.5857  0.4621  0.0898
  187POPC   O1221435   5.513   6.323   2.011  0.3320  0.1280  0.1263
  187POPC   O1121436   5.613   6.205   2.209 -0.6717  0.7816  0.3677
  187POPC    C121437   5.520   6.094   2.191 -0.5917  0.1735  0.2816
  187POPC    HA21438   5.569   6.005   2.238  1.6348  0.3237 -1.5971
  187POPC    HB21439   5.486   6.075   2.087 -1.2657 -0.4842  0.6167
  187POPC    C221440   5.394   6.132   2.270  0.3651 -0.0516  0.1417
  187POPC    HS21441   5.352   6.229   2.234 -0.4949  0.3123  2.0339
  187POPC   O2121442   5.431   6.145   2.411 -0.6973 -0.6061 -0.0339
  187POPC   C2121443   5.353   6.225   2.480  0.6948 -0.6659  0.4099
  187POPC   O2221444   5.269   6.304   2.432 -0.1248  0.2409  0.5175
  187POPC   C2221445   5.364   6.182   2.623  0.0814 -1.0115 -0.4491
  187POPC   H2R21446   5.420   6.086   2.629  0.1550 -0.9641 -0.3790
  187POPC   H2S21447   5.259   6.166   2.656  0.5558  1.3654  2.6053
  187POPC    C321448   5.284   6.018   2.263  0.0443  0.2703  0.4761
  187POPC    HX21449   5.268   5.983   2.159  0.0195 -0.1001  0.6049
  187POPC    HY21450   5.182   6.052   2.290  0.1572  0.6224  0.4629
  187POPC   O3121451   5.339   5.902   2.330 -0.2587 -0.4677 -0.5962
  187POPC   C3121452   5.276   5.841   2.424  0.3114 -0.1364  0.4059
  187POPC   O3221453   5.173   5.876   2.476  0.3595  0.3953 -0.4911
  187POPC   C3221454   5.362   5.725   2.482 -0.3423  0.6701  0.2741
  187POPC   H2X21455   5.431   5.706   2.398 -0.7047  0.3590  0.0455
  187POPC   H2Y21456   5.296   5.641   2.514 -1.4514  0.5225 -2.2176
  187POPC   C2321457   5.415   6.288   2.718 -0.0527 -0.9084 -0.3529
  187POPC   H3R21458   5.355   6.381   2.704 -1.4888 -1.5205  1.2737
  187POPC   H3S21459   5.516   6.322   2.688 -0.0593 -0.8247 -0.2808
  187POPC   C2421460   5.421   6.244   2.867 -0.3952  1.1064  0.3213
  187POPC   H4R21461   5.502   6.168   2.876 -0.7141  0.4881 -1.6142
  187POPC   H4S21462   5.331   6.181   2.876  0.4424 -0.1352  0.3099
  187POPC   C2521463   5.429   6.358   2.967  0.5475 -0.0303  0.7342
  187POPC   H5R21464   5.345   6.431   2.957  1.3403  0.9004  0.6575
  187POPC   H5S21465   5.518   6.414   2.931 -0.0335  0.2035 -0.4104
  187POPC   C2621466   5.458   6.321   3.113  1.7786  0.2235 -0.2543
  187POPC   H6R21467   5.484   6.409   3.176  2.0385 -1.3517  1.9646
  187POPC   H6S21468   5.549   6.258   3.121  1.0009 -0.9255 -0.3049
  187POPC   C2721469   5.331   6.248   3.166 -0.4828 -0.0384 -0.3766
  187POPC   H7R21470   5.350   6.148   3.121 -0.1387 -1.1363  2.0241
  187POPC   H7S21471   5.234   6.283   3.126 -0.6155  3.0001  2.2629
  187POPC   C2821472   5.330   6.239   3.320  0.4203  0.5079  0.0085
  187POPC   H8R21473   5.413   6.184   3.370 -1.7667 -0.1267  3.3085
  187POPC   H8S21474   5.246   6.167   3.329  0.2984  0.2027 -2.7312
  187POPC   C2921475   5.295   6.376   3.390  0.5486  0.0971  0.0212
  187POPC   H9121476   5.241   6.453   3.333  1.1699  0.7553  0.2936
  187POPC  C21021477   5.330   6.410   3.519  0.5257 -0.1597 -0.7031
  187POPC  H10121478   5.295   6.502   3.568  0.2369 -0.2237 -0.7842
  187POPC  C21121479   5.398   6.321   3.624  0.2033 -0.0787  0.4660
  187POPC  H11R21480   5.454   6.234   3.584  0.1853 -0.0562  0.3916
  187POPC  H11S21481   5.323   6.280   3.695 -1.6429  0.7824 -0.9193
  187POPC  C21221482   5.503   6.390   3.702 -0.2791  0.1380  0.0812
  187POPC  H12R21483   5.594   6.426   3.649  1.2738 -2.6513  0.6614
  187POPC  H12S21484   5.547   6.314   3.771 -0.4559 -1.8355 -1.8683
  187POPC  C21321485   5.459   6.496   3.799 -0.3601 -0.3296  0.5141
  187POPC  H13R21486   5.349   6.510   3.798 -0.2341  0.7959 -0.8553
  187POPC  H13S21487   5.506   6.596   3.781  1.1435 -0.7222  1.9453
  187POPC  C21421488   5.487   6.462   3.949 -0.2433 -0.0714  0.3478
  187POPC  H14R21489   5.594   6.433   3.954  0.0797  0.9758 -0.2682
  187POPC  H14S21490   5.425   6.376   3.981 -1.8334  0.7099 -0.5184
  187POPC  C21521491   5.433   6.569   4.044 -0.4143 -0.2976 -0.1646
  187POPC  H15R21492   5.324   6.559   4.025 -0.4379  0.7794 -0.7012
  187POPC  H15S21493   5.464   6.672   4.016 -1.2187 -0.2750 -1.0274
  187POPC  C21621494   5.470   6.534   4.191  0.3637  0.3853 -0.3533
  187POPC  H16R21495   5.580   6.545   4.200  0.4677 -0.2438 -0.8309
  187POPC  H16S21496   5.435   6.431   4.214 -0.0389  0.1202 -2.0191
  187POPC  C21721497   5.399   6.627   4.299 -0.1632  0.2235  0.1233
  187POPC  H17R21498   5.428   6.605   4.404 -0.2037  1.9156  0.5060
  187POPC  H17S21499   5.292   6.598   4.299  0.1860 -1.3018  2.2031
  187POPC  C21821500   5.402   6.775   4.268  0.8764  0.7128 -0.6803
  187POPC  H18R21501   5.486   6.797   4.198  1.2176 -0.7704 -0.7734
  187POPC  H18S21502   5.406   6.831   4.364  2.1205 -2.1318  1.0552
  187POPC  H18T21503   5.306   6.798   4.217 -0.5562  1.7484  2.2771
  187POPC   C3321504   5.455   5.766   2.600  0.3010  0.1339 -0.4115
  187POPC   H3X21505   5.501   5.867   2.603  1.5537 -0.4232  1.9706
  187POPC   H3Y21506   5.551   5.710   2.593  1.9523  2.8031 -0.7249
  187POPC   C3421507   5.390   5.732   2.731 -0.2984 -0.2351 -0.9374
  187POPC   H4X21508   5.371   5.623   2.734  0.7461 -0.4035  0.7267
  187POPC   H4Y21509   5.299   5.795   2.742 -0.0313  0.0962 -0.5713
  187POPC   C3521510   5.469   5.770   2.857 -0.2871  0.8110  0.0138
  187POPC   H5X21511   5.506   5.875   2.863 -0.2234  0.7830  0.1209
  187POPC   H5Y21512   5.563   5.711   2.855 -0.1928  0.9692 -0.2151
  187POPC   C3621513   5.401   5.725   2.990 -0.1272  0.7756  0.3625
  187POPC   H6X21514   5.373   5.617   2.988  0.9568  0.4969 -0.4709
  187POPC   H6Y21515   5.319   5.795   3.016 -0.6565  0.5623 -0.6682
  187POPC   C3721516   5.491   5.743   3.112  0.1723  0.8597 -0.2503
  187POPC   H7X21517   5.511   5.851   3.126  0.8702  1.0185 -2.1813
  187POPC   H7Y21518   5.584   5.685   3.095 -0.5429 -0.5662  0.5569
  187POPC   C3821519   5.410   5.687   3.234 -0.0573 -0.4033  0.2249
  187POPC   H8X21520   5.363   5.591   3.203 -1.3773  0.4733 -0.6070
  187POPC   H8Y21521   5.333   5.767   3.248  0.8129  0.2308  1.5327
  187POPC   C3921522   5.501   5.684   3.361  0.7819 -0.4811 -0.2997
  187POPC   H9X21523   5.582   5.610   3.342  1.1037  0.0132 -0.9066
  187POPC   H9Y21524   5.446   5.642   3.447 -1.4465  0.9488 -0.9482
  187POPC  C31021525   5.564   5.817   3.405 -0.0897  0.0525  0.2242
  187POPC  H10X21526   5.493   5.900   3.426  1.4310  1.8570 -1.3849
  187POPC  H10Y21527   5.624   5.835   3.314 -1.4809 -3.0470 -1.4322
  187POPC  C31121528   5.651   5.789   3.526 -0.3726 -0.5196  0.0272
  187POPC  H11X21529   5.705   5.693   3.510 -0.5277 -0.7057  0.6017
  187POPC  H11Y21530   5.574   5.770   3.604 -0.1373 -1.9140 -0.0488
  187POPC  C31221531   5.746   5.899   3.575  0.1646 -0.2389 -0.0584
  187POPC  H12X21532   5.681   5.979   3.616  0.3064 -0.4169  0.5190
  187POPC  H12Y21533   5.805   5.942   3.491  1.6516  0.4721  1.2845
  187POPC  C31321534   5.838   5.855   3.691  0.6125 -0.0302  0.6705
  187POPC  H13X21535   5.775   5.790   3.756 -0.9498  1.7947  1.0880
  187POPC  H13Y21536   5.870   5.950   3.738  0.5284  0.4807 -0.3019
  187POPC  C31421537   5.968   5.792   3.634 -0.1200  0.7481 -0.7151
  187POPC  H14X21538   6.000   5.854   3.547  0.3067 -1.3634 -2.1230
  187POPC  H14Y21539   5.942   5.697   3.583  3.4992 -1.0698  0.4686
  187POPC  C31521540   6.083   5.791   3.736  0.5898 -0.1175  1.0129
  187POPC  H15X21541   6.079   5.884   3.796  1.6590  0.7019 -0.1266
  187POPC  H15Y21542   6.176   5.808   3.677 -0.1670 -0.5198 -0.3201
  187POPC  C31621543   6.094   5.674   3.834  0.0493  0.0536 -0.4403
  187POPC  H16X21544   6.185   5.692   3.897  1.2497  0.3570 -2.1913
  187POPC  H16Y21545   6.099   5.568   3.801 -0.7649 -1.0290  2.5758
  187POPC  H16Z21546   6.010   5.677   3.907  0.2663 -0.4125 -0.1702
  188POPC     N21547   6.460   5.666   1.985  0.2753  0.3529  0.4413
  188POPC   C1221548   6.405   5.760   2.089 -0.0807 -0.1833 -0.7575
  188POPC  H12A21549   6.427   5.865   2.074  0.6414 -0.1816  0.1981
  188POPC  H12B21550   6.447   5.740   2.187  0.0746 -2.9358 -1.2919
  188POPC   C1321551   6.418   5.703   1.846  0.2628 -0.1360 -0.5731
  188POPC  H13A21552   6.455   5.641   1.766 -2.3649 -1.5743 -0.7781
  188POPC  H13B21553   6.312   5.705   1.827  0.6051 -1.8188 -3.1706
  188POPC  H13C21554   6.452   5.805   1.830  2.5872 -0.6275  0.7972
  188POPC   C1421555   6.601   5.692   1.975 -0.4718 -0.1126 -0.4377
  188POPC  H14A21556   6.629   5.774   1.911 -1.2346  0.2143 -0.3663
  188POPC  H14B21557   6.651   5.712   2.069  0.6435  0.3946 -1.1251
  188POPC  H14C21558   6.647   5.607   1.926  1.7465 -0.8787  2.6504
  188POPC   C1521559   6.424   5.523   2.014 -0.5619 -0.2698 -0.1790
  188POPC  H15A21560   6.467   5.462   1.936  1.0476  1.6848 -0.9261
  188POPC  H15B21561   6.317   5.519   2.006 -0.7101  1.1683  0.6921
  188POPC  H15C21562   6.468   5.490   2.107  2.3124  1.2193 -0.8739
  188POPC   C1121563   6.252   5.758   2.110  0.8680 -0.2661  0.8898
  188POPC  H11A21564   6.207   5.793   2.206 -4.2640 -0.4643 -1.1189
  188POPC  H11B21565   6.220   5.651   2.114 -0.0549 -0.3256 -3.4621
  188POPC     P21566   6.173   5.983   2.008  0.0519 -0.1095  0.0796
  188POPC   O1321567   6.072   6.018   1.909 -0.1377  0.0486  0.1938
  188POPC   O1421568   6.306   6.044   2.004  0.4869  0.5753 -0.1388
  188POPC   O1221569   6.183   5.820   1.997 -0.0308 -0.4224 -0.9053
  188POPC   O1121570   6.116   6.001   2.151  0.1073  0.0030  0.3433
  188POPC    C121571   5.984   5.956   2.191 -0.1329  0.2465 -0.2513
  188POPC    HA21572   5.971   5.849   2.167 -0.5409  0.1792  0.2458
  188POPC    HB21573   5.909   6.020   2.140 -2.3691  1.5147  4.0785
  188POPC    C221574   5.965   5.971   2.343 -0.5583 -0.7228  0.1346
  188POPC    HS21575   5.957   6.079   2.367  1.4015 -0.2073 -1.2476
  188POPC   O2121576   6.056   5.900   2.428 -0.2301 -0.4500  0.4635
  188POPC   C2121577   6.172   5.961   2.441  0.4943 -0.7182 -0.2320
  188POPC   O2221578   6.190   6.079   2.412  0.1264  0.0102 -0.4432
  188POPC   C2221579   6.284   5.867   2.489  0.0527 -0.6946  0.6028
  188POPC   H2R21580   6.374   5.900   2.433 -0.9027  0.7243 -0.1337
  188POPC   H2S21581   6.260   5.766   2.449  0.1162 -0.7976  0.8234
  188POPC    C321582   5.814   5.922   2.388 -0.6457 -0.5625  0.1265
  188POPC    HX21583   5.796   5.822   2.342  0.3183 -0.3091 -0.8536
  188POPC    HY21584   5.743   5.989   2.335  2.0031  1.4913 -1.0636
  188POPC   O3121585   5.782   5.929   2.524 -0.4175 -0.4064 -0.0618
  188POPC   C3121586   5.831   5.824   2.589  0.4756 -0.3784  1.0115
  188POPC   O3221587   5.862   5.716   2.538 -0.4945 -0.1910 -0.5610
  188POPC   C3221588   5.826   5.851   2.737  0.4152 -0.1707  0.4710
  188POPC   H2X21589   5.721   5.878   2.758  0.5512  1.5113 -0.7923
  188POPC   H2Y21590   5.883   5.945   2.754  1.0840 -0.0165 -2.2230
  188POPC   C2321591   6.312   5.863   2.633  0.5138 -0.4893 -1.0864
  188POPC   H3R21592   6.224   5.830   2.692  0.9223  1.6842  0.9031
  188POPC   H3S21593   6.338   5.961   2.679  0.5987 -0.9802 -0.0495
  188POPC   C2421594   6.416   5.759   2.673  0.4924  0.7594  0.0092
  188POPC   H4R21595   6.507   5.762   2.609 -0.6597  1.7492 -1.6482
  188POPC   H4S21596   6.368   5.660   2.679 -0.0246  0.9824 -0.4335
  188POPC   C2521597   6.463   5.786   2.814  0.1099  0.8972 -0.0486
  188POPC   H5R21598   6.497   5.892   2.817  0.2281  0.8386  1.5450
  188POPC   H5S21599   6.547   5.719   2.841 -0.5016  0.7372  1.5721
  188POPC   C2621600   6.360   5.749   2.922  0.0799 -0.9913 -0.9257
  188POPC   H6R21601   6.310   5.656   2.889  0.3059 -0.8266 -1.7682
  188POPC   H6S21602   6.285   5.831   2.913  0.2580 -0.9347 -2.0506
  188POPC   C2721603   6.409   5.751   3.068  0.7609  0.5823 -0.0906
  188POPC   H7R21604   6.448   5.855   3.081  1.0083  0.4223  0.4777
  188POPC   H7S21605   6.498   5.685   3.078  0.4282 -0.0318 -1.0901
  188POPC   C2821606   6.308   5.715   3.176 -0.5230 -0.5594  0.4616
  188POPC   H8R21607   6.300   5.605   3.189 -1.0242 -0.6325 -0.4210
  188POPC   H8S21608   6.205   5.748   3.154  0.0568  2.1809  1.4779
  188POPC   C2921609   6.343   5.778   3.310  0.0093 -0.2808 -0.5976
  188POPC   H9121610   6.335   5.888   3.313  0.1632 -0.1607 -3.0146
  188POPC  C21021611   6.386   5.721   3.427 -0.5113 -0.1278  0.2720
  188POPC  H10121612   6.428   5.781   3.509 -2.3444  0.4043  0.8657
  188POPC  C21121613   6.418   5.576   3.454  0.8858  0.6627  0.3426
  188POPC  H11R21614   6.513   5.565   3.511  0.7949  0.4560  0.4557
  188POPC  H11S21615   6.433   5.516   3.362 -0.4577 -1.4614  1.4050
  188POPC  C21221616   6.307   5.498   3.533 -0.0576  0.2286 -0.1491
  188POPC  H12R21617   6.207   5.512   3.488  0.1443  0.3284 -0.5657
  188POPC  H12S21618   6.290   5.543   3.633 -2.5340  0.1473 -0.4614
  188POPC  C21321619   6.338   5.347   3.557  0.2575 -0.3635  0.4032
  188POPC  H13R21620   6.442   5.330   3.593  0.3829  1.1729  0.8412
  188POPC  H13S21621   6.338   5.293   3.460 -1.7468  1.6694 -0.8115
  188POPC  C21421622   6.244   5.292   3.661  0.1646  0.5687  0.0600
  188POPC  H14R21623   6.146   5.326   3.621  0.4670  1.1113 -0.2355
  188POPC  H14S21624   6.258   5.352   3.753 -0.5844 -2.3144  2.2050
  188POPC  C21521625   6.262   5.140   3.693  0.5541 -0.6506  0.6246
  188POPC  H15R21626   6.208   5.081   3.616 -2.4004  2.3499  0.1384
  188POPC  H15S21627   6.202   5.129   3.786  0.6466  1.0675  0.9278
  188POPC  C21621628   6.398   5.084   3.711 -0.0142 -0.2598  0.0790
  188POPC  H16R21629   6.423   5.124   3.812 -2.0553 -0.3463  0.6695
  188POPC  H16S21630   6.475   5.100   3.633  0.4737  0.3554  0.6711
  188POPC  C21721631   6.386   4.932   3.736  0.0025  0.5256 -0.0763
  188POPC  H17R21632   6.353   4.866   3.653 -0.9129  0.6175  0.2024
  188POPC  H17S21633   6.306   4.913   3.811 -2.2435  0.0909 -2.4249
  188POPC  C21821634   6.526   4.875   3.782  0.2991 -0.6941 -0.4682
  188POPC  H18R21635   6.548   4.932   3.874  0.5650  3.1365 -2.6721
  188POPC  H18S21636   6.604   4.902   3.708 -0.0902  1.3824 -0.1834
  188POPC  H18T21637   6.532   4.765   3.795  3.4027 -0.7404 -1.4592
  188POPC   C3321638   5.893   5.744   2.829  0.3579 -0.6107  0.3261
  188POPC   H3X21639   5.997   5.720   2.798  1.4118  0.8176  2.4547
  188POPC   H3Y21640   5.831   5.652   2.823 -0.0401 -0.6900  3.6147
  188POPC   C3421641   5.881   5.796   2.973 -0.7442  0.3135 -1.0343
  188POPC   H4X21642   5.786   5.839   3.011  0.7042  0.1583  3.2782
  188POPC   H4Y21643   5.964   5.868   2.988  0.5989 -1.4178  0.3106
  188POPC   C3521644   5.910   5.677   3.067 -0.3558  0.7732  0.0977
  188POPC   H5X21645   5.993   5.616   3.025 -1.3739 -0.8707  0.4088
  188POPC   H5Y21646   5.834   5.597   3.054 -0.3053  0.9514 -1.5297
  188POPC   C3621647   5.929   5.717   3.211 -0.3196  0.0253  0.6519
  188POPC   H6X21648   5.833   5.754   3.254  0.1104  1.0775  0.7325
  188POPC   H6Y21649   6.007   5.796   3.215 -0.0397 -0.1031 -1.3400
  188POPC   C3721650   5.961   5.603   3.304 -0.1980  0.2319  0.9941
  188POPC   H7X21651   5.992   5.633   3.406 -0.1326 -1.0816  1.3860
  188POPC   H7Y21652   6.053   5.557   3.262  0.5737  0.0053  2.8428
  188POPC   C3821653   5.848   5.499   3.315 -0.5910  0.5278  0.6596
  188POPC   H8X21654   5.817   5.461   3.215 -1.0112  2.5052 -0.0015
  188POPC   H8Y21655   5.775   5.571   3.358 -0.2687  1.8985 -1.0117
  188POPC   C3921656   5.874   5.387   3.422 -0.1372 -0.0035  0.2749
  188POPC   H9X21657   5.891   5.442   3.517 -2.8191  1.4519 -0.0014
  188POPC   H9Y21658   5.971   5.337   3.401  0.5816  1.4995 -0.1189
  188POPC  C31021659   5.754   5.280   3.424 -0.0366  0.5762  0.0509
  188POPC  H10X21660   5.752   5.222   3.329 -0.9481 -1.1385  1.0640
  188POPC  H10Y21661   5.649   5.316   3.433 -0.6730 -0.7406 -1.5652
  188POPC  C31121662   5.760   5.190   3.551  0.9463  0.5989 -0.3710
  188POPC  H11X21663   5.862   5.148   3.552  0.8172  0.2293 -1.2691
  188POPC  H11Y21664   5.684   5.109   3.553  0.6861  0.8619  0.9377
  188POPC  C31221665   5.731   5.260   3.687  0.5510 -0.1212 -0.2600
  188POPC  H12X21666   5.621   5.272   3.695  0.2373 -2.6724  0.1241
  188POPC  H12Y21667   5.770   5.364   3.688 -0.6434  0.3464  0.4346
  188POPC  C31321668   5.781   5.182   3.804 -0.1844 -0.2545 -0.3903
  188POPC  H13X21669   5.869   5.120   3.778 -1.5520 -1.7450 -1.6344
  188POPC  H13Y21670   5.700   5.110   3.828 -0.4335  0.5385  1.3233
  188POPC  C31421671   5.794   5.265   3.931 -0.2523 -0.1308 -0.4245
  188POPC  H14X21672   5.782   5.193   4.015  1.1437  0.4584  0.2988
  188POPC  H14Y21673   5.723   5.351   3.931  0.0845  0.1680  1.3321
  188POPC  C31521674   5.935   5.322   3.938  0.6164  0.4044 -0.0448
  188POPC  H15X21675   5.952   5.388   3.849 -0.4328  1.2610  0.3646
  188POPC  H15Y21676   6.008   5.239   3.935  1.0130  0.7653 -1.6383
  188POPC  C31621677   5.965   5.402   4.073  0.1134  0.5525 -0.2557
  188POPC  H16X21678   5.953   5.330   4.157  0.3682  2.7399  1.7554
  188POPC  H16Y21679   5.884   5.477   4.080  0.0812  0.5189 -0.2652
  188POPC  H16Z21680   6.059   5.460   4.085  0.8912 -0.3666 -1.5209
  189SAPI   C1221681   5.567   6.309   6.560 -0.0613 -0.1722  0.1965
  189SAPI    H221682   5.678   6.303   6.556  0.1292  2.5076 -0.6617
  189SAPI    O221683   5.506   6.265   6.678  0.0293 -0.0835 -0.3357
  189SAPI   HO221684   5.520   6.170   6.678 -1.2169 -0.3284 -2.2574
  189SAPI   C1321685   5.522   6.449   6.511  0.1904  0.3053 -1.1755
  189SAPI    H321686   5.557   6.467   6.407  1.8421  0.6197 -0.6111
  189SAPI    O321687   5.574   6.548   6.599  0.4243 -0.1179  0.4697
  189SAPI   HO321688   5.512   6.619   6.579  0.0327 -0.9780 -1.6697
  189SAPI   C1421689   5.376   6.460   6.522  0.0606  0.1444 -0.0170
  189SAPI    H421690   5.355   6.452   6.630  4.0464  2.1803  1.1092
  189SAPI    O421691   5.329   6.587   6.472  0.8208 -0.2927  0.1575
  189SAPI   HO421692   5.333   6.589   6.376  1.9680 -0.0232  0.1937
  189SAPI   C1521693   5.309   6.345   6.435  0.0994  0.2080  0.6185
  189SAPI    H521694   5.334   6.375   6.331  0.1369 -1.1198  0.2332
  189SAPI    O521695   5.167   6.344   6.443 -0.6537  0.3814 -0.0136
  189SAPI   HO521696   5.144   6.388   6.361  1.4966  2.6900  0.4728
  189SAPI   C1621697   5.367   6.204   6.455 -0.0673 -0.4142 -0.5523
  189SAPI    H621698   5.345   6.156   6.552  0.1051 -1.2628 -0.9274
  189SAPI    O621699   5.312   6.114   6.362  0.1841  0.5702  0.3179
  189SAPI   HO621700   5.316   6.169   6.284  1.7832 -0.1540 -0.1658
  189SAPI   C1121701   5.523   6.208   6.451 -0.4888 -0.1086  0.1341
  189SAPI    H121702   5.541   6.248   6.349  1.1972 -0.8899  0.0796
  189SAPI     P21703   5.689   6.015   6.366  0.0452 -0.3442 -0.1137
  189SAPI   O1321704   5.749   5.903   6.442 -0.6561  0.4347 -0.2382
  189SAPI   O1421705   5.781   6.125   6.334  0.0645 -0.4309  0.0693
  189SAPI   O1221706   5.575   6.074   6.467  0.2745  0.1202  0.1650
  189SAPI   O1121707   5.609   5.962   6.231 -0.2582 -0.2302 -0.3261
  189SAPI    C121708   5.617   6.047   6.114  0.4799  0.0342  0.2792
  189SAPI    HA21709   5.618   6.154   6.141  2.0141 -0.0308  0.5715
  189SAPI    HB21710   5.707   6.036   6.050 -2.5576  0.7019 -4.5595
  189SAPI    C221711   5.489   6.032   6.019 -0.1722 -0.6416 -0.6484
  189SAPI    HS21712   5.401   6.044   6.086  0.5869  1.7695  0.0157
  189SAPI   O2121713   5.494   5.894   5.963  0.0435  0.5725  0.1874
  189SAPI   C2121714   5.380   5.849   5.911 -0.3672 -0.0671 -0.0201
  189SAPI   O2221715   5.272   5.895   5.926  0.5279 -0.0058 -0.0349
  189SAPI   C2221716   5.420   5.727   5.830 -0.1308  0.0143 -0.0427
  189SAPI   H2R21717   5.520   5.746   5.786  0.1428 -2.9220 -0.9439
  189SAPI   H2S21718   5.423   5.638   5.896 -0.3624  0.1768  0.1884
  189SAPI    C321719   5.483   6.141   5.910  0.4067  0.1593  0.4097
  189SAPI    HX21720   5.496   6.240   5.958 -0.9139  1.6287 -2.1180
  189SAPI    HY21721   5.377   6.132   5.880  1.5200 -1.9354 -3.5375
  189SAPI   O3121722   5.567   6.121   5.787  0.1710 -0.1290 -0.0110
  189SAPI   C3121723   5.686   6.164   5.792  0.4064  0.1955 -0.6833
  189SAPI   O3221724   5.725   6.253   5.868 -0.0510 -0.1271 -0.0991
  189SAPI   C3221725   5.759   6.115   5.672  0.8091  0.1828  0.3853
  189SAPI   H2X21726   5.778   6.006   5.679 -1.5427 -0.2930  0.2333
  189SAPI   H2Y21727   5.848   6.181   5.670  2.8342 -2.4121 -0.9754
  189SAPI   C2321728   5.321   5.696   5.713  1.0332 -0.1148  0.8592
  189SAPI   H3R21729   5.223   5.746   5.732  0.3560  0.1413 -2.6100
  189SAPI   H3S21730   5.300   5.588   5.699  0.1026  0.1877 -0.3208
  189SAPI   C2421731   5.363   5.766   5.590 -0.0211  0.0442  0.5585
  189SAPI   H4R21732   5.469   5.754   5.559 -0.1816 -0.9117  0.3554
  189SAPI   H4S21733   5.355   5.874   5.614  0.1496  0.6507 -1.8356
  189SAPI   C2521734   5.281   5.724   5.470  0.3387  0.3034  0.1094
  189SAPI   H5R21735   5.288   5.615   5.458 -1.3783  0.2413 -0.4836
  189SAPI   C2621736   5.216   5.796   5.381 -0.2164 -0.4187 -0.7879
  189SAPI   H6R21737   5.176   5.753   5.288 -0.7232  2.3087 -1.9367
  189SAPI   C2721738   5.210   5.946   5.362  0.3191  0.4029 -0.4823
  189SAPI   H7R21739   5.261   5.971   5.267 -0.8906 -3.1260 -2.2170
  189SAPI   H7S21740   5.244   5.989   5.459 -0.3015  2.6315 -1.1890
  189SAPI   C2821741   5.064   5.996   5.357  0.2698  0.1752  0.7614
  189SAPI   H8R21742   5.024   6.044   5.448  1.7855  2.6726  0.2131
  189SAPI   C2921743   4.984   5.998   5.247  0.3659  0.3620 -0.2575
  189SAPI   H9R21744   4.882   6.036   5.263 -0.5205 -2.5449  1.7540
  189SAPI  C21021745   5.019   5.969   5.105 -0.1982 -0.3719  0.3350
  189SAPI  H10R21746   4.973   5.873   5.074  0.4836 -0.2734 -1.0262
  189SAPI  H10S21747   5.129   5.960   5.092 -0.3542 -2.4247  0.0459
  189SAPI  C21121748   4.950   6.071   5.019  0.3667  0.5330  0.7524
  189SAPI  H11R21749   4.858   6.116   5.060 -1.0914 -1.7809  0.1833
  189SAPI  C21221750   5.001   6.124   4.904  0.3924  0.2028 -0.5477
  189SAPI  H12R21751   4.934   6.190   4.848 -1.7133 -1.0346  0.4009
  189SAPI  C21321752   5.131   6.099   4.830  0.0384 -0.1284 -0.0706
  189SAPI  H13R21753   5.206   6.038   4.884 -0.0714  1.2364  1.7109
  189SAPI  H13S21754   5.179   6.196   4.807  0.6787 -0.8263 -1.8948
  189SAPI  C21421755   5.083   6.037   4.704  0.1566  0.7215  0.7357
  189SAPI  H14R21756   5.034   5.938   4.707  0.9118  0.3412  0.8996
  189SAPI  C21521757   5.093   6.081   4.572 -0.3012  0.1896 -0.5746
  189SAPI  H15R21758   5.062   6.012   4.492  2.7218 -1.7062 -0.2726
  189SAPI  C21621759   5.155   6.211   4.524  0.2942  0.6675 -0.0419
  189SAPI  H16R21760   5.215   6.261   4.603 -2.1277 -0.4701  2.7143
  189SAPI  H16S21761   5.080   6.289   4.501 -0.3326 -0.0218 -0.3969
  189SAPI  C21721762   5.247   6.175   4.412 -0.1718  0.1519 -0.5555
  189SAPI  H17R21763   5.326   6.110   4.456 -0.0264 -0.8310 -2.1990
  189SAPI  H17S21764   5.294   6.272   4.385 -0.9937  0.1301 -2.1750
  189SAPI  C21821765   5.190   6.121   4.283 -0.3571 -0.1014  0.0725
  189SAPI  H18R21766   5.090   6.168   4.279  0.2620  1.2946  0.5003
  189SAPI  H18S21767   5.173   6.011   4.287  2.2025 -0.7354 -2.7560
  189SAPI  C21921768   5.271   6.152   4.146  0.7463 -0.2528 -0.1558
  189SAPI  H19R21769   5.376   6.117   4.155  1.4971  1.7128 -0.7078
  189SAPI  H19S21770   5.263   6.258   4.115 -1.7187 -0.4183 -0.3267
  189SAPI  C22021771   5.202   6.078   4.030 -0.0761 -0.3571 -0.4498
  189SAPI  H20R21772   5.091   6.087   4.035 -0.2283 -0.2293 -2.7389
  189SAPI  H20S21773   5.231   5.971   4.027  1.7632  0.1279 -1.2226
  189SAPI  H20T21774   5.237   6.123   3.934 -1.0005 -0.7425 -0.9810
  189SAPI   C3321775   5.680   6.131   5.537  0.1785 -0.0719 -0.3415
  189SAPI   H3X21776   5.621   6.225   5.541 -0.0701 -0.2648  1.7609
  189SAPI   H3Y21777   5.601   6.053   5.529 -0.5365  0.6427 -0.2745
  189SAPI   C3421778   5.764   6.131   5.407 -0.0916 -0.7533 -0.4136
  189SAPI   H4X21779   5.863   6.176   5.430 -0.1239 -1.1797  0.5941
  189SAPI   H4Y21780   5.720   6.187   5.322  1.7006 -2.6628 -2.7372
  189SAPI   C3521781   5.793   5.989   5.363 -0.4206 -0.2118 -0.4710
  189SAPI   H5X21782   5.828   5.930   5.450  2.3502 -0.3162 -1.5495
  189SAPI   H5Y21783   5.875   5.985   5.288  0.9973 -1.1220  1.0379
  189SAPI   C3621784   5.668   5.916   5.308 -0.2527  0.5378 -0.4150
  189SAPI   H6X21785   5.609   5.981   5.240 -3.2558 -0.1759  1.3301
  189SAPI   H6Y21786   5.598   5.898   5.392 -0.5472  1.1043 -0.5369
  189SAPI   C3721787   5.707   5.778   5.247  0.7223 -0.1306  0.8437
  189SAPI   H7X21788   5.776   5.726   5.317  1.4775 -1.8906 -1.0893
  189SAPI   H7Y21789   5.765   5.803   5.155 -0.3393  2.9178  0.8749
  189SAPI   C3821790   5.597   5.672   5.226  0.2977 -0.4154  0.1171
  189SAPI   H8X21791   5.555   5.625   5.317 -2.1912 -3.2094 -2.2468
  189SAPI   H8Y21792   5.656   5.587   5.185  1.0051 -0.5174  1.2960
  189SAPI   C3921793   5.487   5.719   5.128  0.7867 -0.7305 -0.2103
  189SAPI   H9X21794   5.433   5.809   5.166  0.7888 -1.4524  1.6110
  189SAPI   H9Y21795   5.420   5.632   5.114 -0.1721 -0.2618  1.1529
  189SAPI  C31021796   5.549   5.749   4.992 -1.7048  0.0233  1.0749
  189SAPI  H10X21797   5.609   5.662   4.959  1.2877  0.6223  4.2917
  189SAPI  H10Y21798   5.615   5.838   4.993  0.3925 -1.1588 -3.7208
  189SAPI  C31121799   5.451   5.787   4.879 -0.8986 -0.0925  0.2294
  189SAPI  H11X21800   5.401   5.882   4.908 -0.2835  0.2311  0.2443
  189SAPI  H11Y21801   5.369   5.714   4.861  0.0542 -0.9065 -0.9905
  189SAPI  C31221802   5.526   5.799   4.746 -0.6729  0.1329  0.6313
  189SAPI  H12X21803   5.563   5.695   4.734 -1.3560 -0.1894  1.2138
  189SAPI  H12Y21804   5.609   5.873   4.750 -0.8254  0.3111  0.5505
  189SAPI  C31321805   5.429   5.834   4.628 -0.8758 -0.1633 -0.4933
  189SAPI  H13X21806   5.355   5.915   4.644 -0.3805  0.1737  0.1696
  189SAPI  H13Y21807   5.377   5.742   4.594  1.2961 -0.8547 -2.2090
  189SAPI  C31421808   5.515   5.878   4.502 -0.1318 -0.1975 -0.0799
  189SAPI  H14X21809   5.592   5.949   4.540 -0.2537  0.7693 -1.5561
  189SAPI  H14Y21810   5.434   5.927   4.445 -1.0934 -0.4804  0.9951
  189SAPI  C31521811   5.581   5.773   4.409 -0.0550  0.7921  0.2126
  189SAPI  H15X21812   5.503   5.694   4.405 -0.5355  1.2054  1.0236
  189SAPI  H15Y21813   5.674   5.727   4.447 -0.3247 -2.8776 -2.9632
  189SAPI  C31621814   5.601   5.808   4.265  0.1777  0.5685  0.0878
  189SAPI  H16X21815   5.679   5.887   4.266  2.2040 -1.2887 -0.1583
  189SAPI  H16Y21816   5.504   5.851   4.235 -1.3912 -1.4484  1.9456
  189SAPI  C31721817   5.649   5.693   4.172 -0.3491 -0.3847  0.6388
  189SAPI  H17X21818   5.560   5.628   4.156 -1.2973  1.1482 -0.5389
  189SAPI  H17Y21819   5.733   5.634   4.214  1.6839  0.5616 -1.8284
  189SAPI  C31821820   5.703   5.742   4.034  0.4899  0.3775 -0.2859
  189SAPI  H18X21821   5.808   5.777   4.044  0.4860 -0.0135  1.4661
  189SAPI  H18Y21822   5.633   5.816   3.990  1.2142  0.0782 -2.0294
  189SAPI  H18Z21823   5.698   5.646   3.978  0.6285 -0.4276  1.0273
  190SAPI   C1221824   0.492   1.361   6.179 -0.5912  0.8871  0.2079
  190SAPI    H221825   0.467   1.466   6.154  1.7850  0.8138 -3.0644
  190SAPI    O221826   0.567   1.303   6.069 -0.3843  0.3491  0.2037
  190SAPI   HO221827   0.511   1.236   6.029  0.5992 -0.9812  0.9557
  190SAPI   C1321828   0.575   1.377   6.298  0.6161 -0.1106 -0.8041
  190SAPI    H321829   0.514   1.420   6.380 -0.8888  1.3635 -2.6196
  190SAPI    O321830   0.676   1.473   6.273 -0.6799  0.1986 -0.2785
  190SAPI   HO321831   0.737   1.433   6.210 -0.8393  0.6771 -0.7418
  190SAPI   C1421832   0.622   1.246   6.361  0.5687  0.4546  0.1545
  190SAPI    H421833   0.680   1.183   6.290  0.4388 -1.2409  1.4992
  190SAPI    O421834   0.704   1.279   6.469 -0.9922  0.0920 -0.3507
  190SAPI   HO421835   0.792   1.292   6.433 -0.7618  0.6315  0.3795
  190SAPI   C1521836   0.500   1.159   6.395  0.5943  0.3554  0.2411
  190SAPI    H521837   0.451   1.204   6.484  1.3726  1.3577  0.1775
  190SAPI    O521838   0.541   1.025   6.436  0.1038 -0.4454 -0.5318
  190SAPI   HO521839   0.468   0.994   6.491  1.3710 -0.8097  1.0255
  190SAPI   C1621840   0.403   1.158   6.278 -0.4412  0.7531 -0.0477
  190SAPI    H621841   0.453   1.101   6.197 -0.0098  1.3055 -0.1719
  190SAPI    O621842   0.285   1.087   6.315  0.5830 -0.4606 -0.1982
  190SAPI   HO621843   0.248   1.044   6.237 -0.0433 -1.7428  0.7664
  190SAPI   C1121844   0.372   1.286   6.214  0.1456 -0.1134 -0.8886
  190SAPI    H121845   0.303   1.344   6.279 -1.1717  0.5468 -2.7694
  190SAPI     P21846   0.177   1.347   6.041  0.2915 -0.0707  0.1812
  190SAPI   O1321847   0.080   1.369   6.150 -0.1915  0.4345  0.0169
  190SAPI   O1421848   0.124   1.275   5.924  0.8156  0.2925 -0.5137
  190SAPI   O1221849   0.304   1.256   6.094  0.1944 -0.2240 -0.0911
  190SAPI   O1121850   0.249   1.478   5.993 -0.2002  0.3512  0.4792
  190SAPI    C121851   0.326   1.467   5.869 -0.4570  0.1777  0.3307
  190SAPI    HA21852   0.402   1.386   5.871  1.2135  1.6168 -1.1100
  190SAPI    HB21853   0.260   1.455   5.781 -1.9528  2.3272  1.0709
  190SAPI    C221854   0.418   1.593   5.844 -0.0072  0.1363  0.6971
  190SAPI    HS21855   0.480   1.600   5.936  1.2290 -2.3955  0.1374
  190SAPI   O2121856   0.326   1.699   5.821  0.0290 -0.7292 -0.0257
  190SAPI   C2121857   0.377   1.823   5.813 -0.1014 -0.3461  0.0049
  190SAPI   O2221858   0.489   1.860   5.839 -0.0069 -0.2934  0.4252
  190SAPI   C2221859   0.260   1.917   5.778 -0.5207  0.5983  0.0638
  190SAPI   H2R21860   0.173   1.848   5.781  1.9605 -2.7728  0.8162
  190SAPI   H2S21861   0.251   1.993   5.858 -1.7597 -0.4042  0.9183
  190SAPI    C321862   0.519   1.572   5.724 -0.0824 -1.0763  0.0514
  190SAPI    HX21863   0.603   1.503   5.747  1.7050  1.0728  0.2752
  190SAPI    HY21864   0.575   1.667   5.711 -0.8083 -0.5930  0.3913
  190SAPI   O3121865   0.445   1.541   5.600 -0.7037 -0.2571 -0.0337
  190SAPI   C3121866   0.469   1.420   5.561  0.1346  0.6671 -0.5671
  190SAPI   O3221867   0.561   1.346   5.592 -0.4738 -0.1889  0.7994
  190SAPI   C3221868   0.349   1.382   5.475 -0.9420  0.3806  0.5615
  190SAPI   H2X21869   0.318   1.475   5.424 -1.9183 -0.3424 -0.2272
  190SAPI   H2Y21870   0.270   1.340   5.541 -1.6070 -0.4541 -0.7268
  190SAPI   C2321871   0.283   1.989   5.645 -0.1563  0.2769 -0.6946
  190SAPI   H3R21872   0.389   1.972   5.618  0.6107  0.5517  1.8530
  190SAPI   H3S21873   0.277   2.100   5.657  0.5534  0.3718 -1.1653
  190SAPI   C2421874   0.187   1.948   5.540  0.6596 -0.0448 -0.4485
  190SAPI   H4R21875   0.187   2.016   5.453  1.6069 -0.4750 -0.8035
  190SAPI   H4S21876   0.095   1.971   5.598 -0.5981 -0.1778 -2.3143
  190SAPI   C2521877   0.196   1.804   5.502 -0.3124  0.1130  0.5608
  190SAPI   H5R21878   0.139   1.732   5.562 -0.9274  1.1658  1.2786
  190SAPI   C2621879   0.239   1.760   5.387  0.7039  0.1281  0.7483
  190SAPI   H6R21880   0.219   1.655   5.363 -0.7507  0.2765  1.2082
  190SAPI   C2721881   0.291   1.845   5.277 -0.5926 -0.3142 -0.2253
  190SAPI   H7R21882   0.402   1.849   5.287 -0.6169  0.4350 -0.2070
  190SAPI   H7S21883   0.260   1.950   5.295  0.6175 -0.2046  1.4593
  190SAPI   C2821884   0.233   1.799   5.140 -0.4628 -0.6003  0.4442
  190SAPI   H8R21885   0.139   1.850   5.114 -0.9383 -0.6612  1.9672
  190SAPI   C2921886   0.294   1.716   5.055  0.3486  0.5108  0.0099
  190SAPI   H9R21887   0.247   1.690   4.959  0.3246  2.3065 -0.5003
  190SAPI  C21021888   0.428   1.647   5.076  0.2790 -0.7869  0.2999
  190SAPI  H10R21889   0.428   1.540   5.044  1.2611 -0.6793 -0.1035
  190SAPI  H10S21890   0.447   1.633   5.185  0.7407  0.0775  0.3358
  190SAPI  C21121891   0.540   1.727   5.014 -0.8073  0.4569  0.2691
  190SAPI  H11R21892   0.603   1.762   5.097  1.9546 -2.7780 -0.2433
  190SAPI  C21221893   0.582   1.728   4.882  0.1954  0.0834 -0.9460
  190SAPI  H12R21894   0.652   1.807   4.850  0.7088 -0.7030 -1.8155
  190SAPI  C21321895   0.514   1.664   4.762 -0.8274 -0.3651 -0.0130
  190SAPI  H13R21896   0.460   1.572   4.792  0.5383 -1.3090 -0.3353
  190SAPI  H13S21897   0.588   1.618   4.693  0.2712  2.2956 -0.7239
  190SAPI  C21421898   0.410   1.759   4.694  0.0913  0.1227  0.3886
  190SAPI  H14R21899   0.306   1.728   4.710  0.7939 -1.5229  2.0567
  190SAPI  C21521900   0.442   1.879   4.640  0.8963 -0.4101  0.3155
  190SAPI  H15R21901   0.352   1.931   4.604  1.4094  0.2202 -0.0754
  190SAPI  C21621902   0.579   1.946   4.619 -0.0884  0.2349  0.0073
  190SAPI  H16R21903   0.670   1.908   4.669  0.1721  1.1409  0.2335
  190SAPI  H16S21904   0.561   2.050   4.654  0.3913  0.9484 -1.7475
  190SAPI  C21721905   0.603   1.948   4.469  0.1279  0.9183 -0.2037
  190SAPI  H17R21906   0.682   2.025   4.453  0.7214  0.6280  1.2125
  190SAPI  H17S21907   0.510   1.976   4.415 -0.5709 -1.9377 -0.6374
  190SAPI  C21821908   0.647   1.814   4.421  0.3499  0.4961  0.1405
  190SAPI  H18R21909   0.598   1.726   4.469  2.0152 -1.3400 -1.3525
  190SAPI  H18S21910   0.753   1.814   4.454 -0.2593  0.1023  2.2413
  190SAPI  C21921911   0.627   1.808   4.265 -0.1224  0.7712  0.0174
  190SAPI  H19R21912   0.686   1.722   4.226 -0.5275  1.1592 -1.5004
  190SAPI  H19S21913   0.675   1.894   4.213 -0.6349  0.5715 -0.7998
  190SAPI  C22021914   0.478   1.783   4.226 -0.4984 -0.5528  0.3873
  190SAPI  H20R21915   0.411   1.772   4.314  0.6287 -1.2220  1.1811
  190SAPI  H20S21916   0.473   1.690   4.165  0.3866  0.9160 -2.0832
  190SAPI  H20T21917   0.439   1.870   4.169  2.0293  1.1993  1.1478
  190SAPI   C3321918   0.383   1.280   5.369 -0.0731  0.3323 -0.2202
  190SAPI   H3X21919   0.294   1.263   5.305 -0.8161  0.3612  0.7744
  190SAPI   H3Y21920   0.396   1.177   5.409  0.2241  0.5806  0.3434
  190SAPI   C3421921   0.509   1.310   5.282  0.2177  0.0160 -0.0955
  190SAPI   H4X21922   0.596   1.307   5.351 -1.4171 -1.7608  2.0565
  190SAPI   H4Y21923   0.510   1.404   5.223  1.9216 -0.3277 -0.6880
  190SAPI   C3521924   0.536   1.210   5.160  0.2695  0.3681  0.6916
  190SAPI   H5X21925   0.570   1.108   5.190  0.9338 -0.2139 -1.7905
  190SAPI   H5Y21926   0.616   1.252   5.095 -0.8869 -1.1092 -1.8581
  190SAPI   C3621927   0.423   1.188   5.054  0.4992 -0.0219  0.8186
  190SAPI   H6X21928   0.378   1.287   5.029 -2.3335 -1.2306  0.7363
  190SAPI   H6Y21929   0.348   1.118   5.095  0.3243  0.0917  0.6949
  190SAPI   C3721930   0.468   1.134   4.922  0.0707 -0.0676 -0.5592
  190SAPI   H7X21931   0.373   1.112   4.869 -0.6992 -0.7252  1.0387
  190SAPI   H7Y21932   0.531   1.043   4.938  0.0429 -0.2420 -1.3970
  190SAPI   C3821933   0.556   1.224   4.836 -0.1272  0.4478  0.4759
  190SAPI   H8X21934   0.658   1.196   4.869 -0.3515 -2.9720 -1.2780
  190SAPI   H8Y21935   0.522   1.330   4.842 -0.8772  0.4532 -2.3897
  190SAPI   C3921936   0.549   1.169   4.693 -0.4384 -0.7017  0.0225
  190SAPI   H9X21937   0.442   1.155   4.664 -0.6712  1.1561 -0.1354
  190SAPI   H9Y21938   0.592   1.069   4.668 -0.0544 -0.3275 -0.8526
  190SAPI  C31021939   0.606   1.268   4.584  0.3774 -0.1417 -0.0902
  190SAPI  H10X21940   0.707   1.296   4.619  0.6770 -1.1045 -0.1736
  190SAPI  H10Y21941   0.539   1.354   4.609 -0.1617 -1.0411  1.7445
  190SAPI  C31121942   0.589   1.232   4.441  0.6323 -0.3682 -0.2624
  190SAPI  H11X21943   0.481   1.227   4.418  0.5936 -0.2776 -0.1029
  190SAPI  H11Y21944   0.633   1.134   4.412  1.3834 -0.0420 -0.2451
  190SAPI  C31221945   0.652   1.339   4.345  0.0914  0.3387  0.3576
  190SAPI  H12X21946   0.758   1.360   4.371 -0.0175  1.4689 -0.0510
  190SAPI  H12Y21947   0.602   1.438   4.352  0.8592  0.6394  2.2021
  190SAPI  C31321948   0.641   1.294   4.198 -0.7127  0.0316  0.9246
  190SAPI  H13X21949   0.531   1.279   4.183 -1.1032  1.9103  1.7304
  190SAPI  H13Y21950   0.702   1.205   4.172  0.0142  1.1346 -1.3922
  190SAPI  C31421951   0.661   1.413   4.097 -0.5396 -0.4880  0.0285
  190SAPI  H14X21952   0.626   1.509   4.139 -0.6459 -0.8586  0.8140
  190SAPI  H14Y21953   0.609   1.386   4.002 -0.9016 -0.2090  0.1455
  190SAPI  C31521954   0.810   1.424   4.062  0.4877  0.6968 -0.2743
  190SAPI  H15X21955   0.844   1.355   3.983 -0.7141  0.6921 -0.8138
  190SAPI  H15Y21956   0.863   1.389   4.153 -2.9931 -0.6793  1.4230
  190SAPI  C31621957   0.864   1.560   4.025  0.4900 -0.3791  0.2095
  190SAPI  H16X21958   0.868   1.616   4.121 -0.3176 -2.0453  1.2624
  190SAPI  H16Y21959   0.798   1.615   3.955  0.1064  0.4764  1.2228
  190SAPI  C31721960   0.998   1.543   3.951 -0.2498 -0.3914 -0.2765
  190SAPI  H17X21961   0.974   1.480   3.863 -0.1372  0.9924 -1.3115
  190SAPI  H17Y21962   1.080   1.494   4.009  0.8442 -0.6738 -1.9933
  190SAPI  C31821963   1.063   1.662   3.884 -0.0921  0.0584 -0.1079
  190SAPI  H18X21964   1.157   1.636   3.830  0.5129  1.7962  0.0282
  190SAPI  H18Y21965   1.097   1.733   3.962  0.0365  0.8274 -0.8405
  190SAPI  H18Z21966   0.996   1.721   3.817  1.4653  0.7593 -1.1118
  191SAPI   C1221967   4.202   3.585   1.741 -0.2436 -0.7970  0.2313
  191SAPI    H221968   4.312   3.586   1.755 -0.0689 -1.3260 -0.9952
  191SAPI    O221969   4.156   3.697   1.820 -0.1524  0.1940 -0.1776
  191SAPI   HO221970   4.178   3.680   1.912  2.0172  1.6143 -0.3539
  191SAPI   C1321971   4.174   3.608   1.593 -0.1466 -0.0735 -0.8140
  191SAPI    H321972   4.201   3.523   1.528 -2.0166 -0.9953 -0.4620
  191SAPI    O321973   4.242   3.726   1.544 -0.0442  0.3975  0.2556
  191SAPI   HO321974   4.262   3.784   1.618 -0.9832 -2.2024  2.7280
  191SAPI   C1421975   4.016   3.620   1.578  0.0202  0.8881 -0.4066
  191SAPI    H421976   3.993   3.715   1.631 -0.6935 -0.6095  2.1343
  191SAPI    O421977   3.981   3.639   1.440 -0.7974  0.6095 -0.8466
  191SAPI   HO421978   3.947   3.554   1.413  0.8379 -0.3080 -0.1266
  191SAPI   C1521979   3.944   3.508   1.640 -0.9010  0.0225 -0.1655
  191SAPI    H521980   3.947   3.424   1.567  2.1960  0.0777 -0.2171
  191SAPI    O521981   3.805   3.537   1.661  0.3694 -0.6307 -0.2498
  191SAPI   HO521982   3.760   3.462   1.701 -0.5165  0.8399  1.6465
  191SAPI   C1621983   3.994   3.463   1.777  0.6201 -0.0235 -0.7219
  191SAPI    H621984   3.966   3.540   1.853  1.1835  1.9340 -2.3975
  191SAPI    O621985   3.938   3.337   1.813  0.3848  0.3293 -0.0420
  191SAPI   HO621986   3.939   3.332   1.909 -0.8558  1.3055  0.0558
  191SAPI   C1121987   4.149   3.459   1.785  0.0154  0.0231 -0.7065
  191SAPI    H121988   4.183   3.383   1.711 -0.1231  0.1586 -0.9104
  191SAPI     P21989   4.290   3.300   1.947 -0.4835 -0.3800  0.2685
  191SAPI   O1321990   4.341   3.255   1.813  0.1744 -0.1256 -0.6591
  191SAPI   O1421991   4.232   3.199   2.038 -0.2204 -0.5297 -0.5011
  191SAPI   O1221992   4.196   3.427   1.917 -0.2502 -0.2471 -0.9294
  191SAPI   O1121993   4.417   3.365   2.018 -0.0061 -0.3542 -0.0804
  191SAPI    C121994   4.446   3.502   2.044 -0.0427  0.0918  0.8681
  191SAPI    HA21995   4.553   3.503   2.014 -0.4296  1.6393 -0.6128
  191SAPI    HB21996   4.373   3.568   1.994 -1.7085 -1.6816  0.8763
  191SAPI    C221997   4.441   3.542   2.195 -0.1432  0.1797  0.0438
  191SAPI    HS21998   4.462   3.649   2.214 -1.2243  0.2304  1.0141
  191SAPI   O2121999   4.539   3.457   2.268 -0.3606 -0.3959 -0.1322
  191SAPI   C2122000   4.657   3.515   2.266 -0.1437 -0.0521 -0.0998
  191SAPI   O2222001   4.688   3.610   2.194 -0.6246 -0.3643 -0.5621
  191SAPI   C2222002   4.746   3.443   2.358  0.6807  0.4441 -0.1436
  191SAPI   H2R22003   4.695   3.454   2.456  1.3443  0.4219  0.2045
  191SAPI   H2S22004   4.745   3.336   2.329 -1.1389  0.1120  0.9748
  191SAPI    C322005   4.311   3.521   2.275  0.4802  0.0342  0.0054
  191SAPI    HX22006   4.287   3.416   2.300  0.8776  0.2462  1.3366
  191SAPI    HY22007   4.225   3.557   2.215  0.3713  0.7962  0.5999
  191SAPI   O3122008   4.309   3.587   2.401 -0.2577  0.1698 -0.3669
  191SAPI   C3122009   4.280   3.714   2.404 -0.4368  0.0611 -0.6674
  191SAPI   O3222010   4.251   3.786   2.308 -0.0754  0.4696 -0.1785
  191SAPI   C3222011   4.300   3.759   2.552  0.0959  0.4028 -0.3635
  191SAPI   H2X22012   4.255   3.689   2.625  0.6093  2.0705  1.6601
  191SAPI   H2Y22013   4.246   3.854   2.573 -1.1195 -0.3442 -0.0333
  191SAPI   C2322014   4.879   3.515   2.373  0.3292  0.4258 -0.0511
  191SAPI   H3R22015   4.855   3.602   2.437 -2.7376 -1.6885  1.9647
  191SAPI   H3S22016   4.914   3.557   2.277  0.4696 -1.9267 -1.1045
  191SAPI   C2422017   4.989   3.434   2.438  0.2588  0.1538 -0.1935
  191SAPI   H4R22018   5.030   3.357   2.369  0.1489 -1.9334  1.9157
  191SAPI   H4S22019   4.937   3.366   2.510  1.8327 -0.6558  0.2290
  191SAPI   C2522020   5.090   3.516   2.507  0.1313 -0.1587  0.2258
  191SAPI   H5R22021   5.164   3.568   2.444  0.9852  0.5094  1.7192
  191SAPI   C2622022   5.081   3.554   2.637  0.2372  0.2359  0.4728
  191SAPI   H6R22023   5.154   3.628   2.675 -0.4118 -0.1088  2.5236
  191SAPI   C2722024   4.975   3.519   2.730  0.6507 -0.1106  0.0296
  191SAPI   H7R22025   4.895   3.452   2.692 -0.9125  1.6387  0.1003
  191SAPI   H7S22026   4.930   3.618   2.753 -1.1308 -1.3271  2.1000
  191SAPI   C2822027   5.013   3.455   2.856 -0.0844  0.6245  0.3252
  191SAPI   H8R22028   5.079   3.367   2.856 -1.0941 -0.2063  2.4846
  191SAPI   C2922029   4.976   3.486   2.983  0.4576 -0.0383 -0.3524
  191SAPI   H9R22030   4.997   3.413   3.063 -0.7206 -1.0576 -0.9492
  191SAPI  C21022031   4.886   3.598   3.028  0.1113  0.6805 -0.3285
  191SAPI  H10R22032   4.780   3.566   3.040 -0.0463  1.4912  0.5951
  191SAPI  H10S22033   4.880   3.675   2.948  0.3325  0.6737 -0.3535
  191SAPI  C21122034   4.937   3.661   3.153  0.6029  0.2643 -0.5185
  191SAPI  H11R22035   5.018   3.735   3.142  0.6410  0.4372  0.7628
  191SAPI  C21222036   4.892   3.641   3.278  0.2423  0.5227 -0.2726
  191SAPI  H12R22037   4.932   3.709   3.355  0.1223 -0.8794  1.0730
  191SAPI  C21322038   4.797   3.539   3.331 -0.2131 -0.1090  0.0588
  191SAPI  H13R22039   4.851   3.475   3.403  0.8907 -0.0392 -0.6750
  191SAPI  H13S22040   4.762   3.478   3.245 -0.3248  2.9797 -2.2773
  191SAPI  C21422041   4.672   3.597   3.393 -0.4439 -0.5705  0.2224
  191SAPI  H14R22042   4.587   3.616   3.326 -0.9771  1.5971  1.4110
  191SAPI  C21522043   4.656   3.637   3.522 -0.2071 -0.2234 -0.8274
  191SAPI  H15R22044   4.558   3.669   3.558  0.1713 -0.0855  0.1040
  191SAPI  C21622045   4.756   3.625   3.636  0.2307 -0.8171 -0.4570
  191SAPI  H16R22046   4.764   3.717   3.697  1.0215 -0.8436 -0.5179
  191SAPI  H16S22047   4.862   3.600   3.613  0.6391 -0.3401  0.8246
  191SAPI  C21722048   4.708   3.515   3.738 -0.2564  0.4127  0.1469
  191SAPI  H17R22049   4.745   3.423   3.689 -1.1674  1.2739 -2.3002
  191SAPI  H17S22050   4.598   3.514   3.746 -0.3433  2.4766 -0.1760
  191SAPI  C21822051   4.775   3.531   3.873  0.4675 -0.2424  1.4649
  191SAPI  H18R22052   4.779   3.637   3.907  0.4013  0.7429 -1.2774
  191SAPI  H18S22053   4.883   3.503   3.867  1.0326  2.0252 -0.6004
  191SAPI  C21922054   4.707   3.449   3.984 -0.6627 -0.1160 -0.7746
  191SAPI  H19R22055   4.702   3.339   3.966 -0.5535 -0.0160 -1.4484
  191SAPI  H19S22056   4.606   3.484   4.013  0.1363  1.9007 -0.2578
  191SAPI  C22022057   4.792   3.466   4.117  0.5402  0.6091  0.6828
  191SAPI  H20R22058   4.885   3.412   4.089  0.1245  1.6159 -3.3131
  191SAPI  H20S22059   4.741   3.416   4.202 -1.8462  2.1414  0.2457
  191SAPI  H20T22060   4.791   3.572   4.150  2.2482  0.0666  2.6671
  191SAPI   C3322061   4.450   3.780   2.581 -0.2949 -0.1487  0.2877
  191SAPI   H3X22062   4.463   3.836   2.676  1.4687  1.4452 -0.8137
  191SAPI   H3Y22063   4.489   3.847   2.501 -2.2863 -0.8647 -1.3925
  191SAPI   C3422064   4.528   3.652   2.603  0.3980  0.0558 -0.1396
  191SAPI   H4X22065   4.634   3.681   2.619  0.0672  0.7606  0.9065
  191SAPI   H4Y22066   4.526   3.596   2.508 -2.8612  0.8698 -0.6764
  191SAPI   C3522067   4.475   3.555   2.715 -0.3429 -0.2944  0.4799
  191SAPI   H5X22068   4.539   3.464   2.709  0.8555  0.6069 -1.7444
  191SAPI   H5Y22069   4.368   3.528   2.701 -0.1579 -0.6287 -0.3583
  191SAPI   C3622070   4.484   3.606   2.858 -0.0533 -0.0643 -0.2099
  191SAPI   H6X22071   4.415   3.693   2.855  0.2264  0.2964  1.9820
  191SAPI   H6Y22072   4.586   3.629   2.893  0.1702 -1.0853 -0.1465
  191SAPI   C3722073   4.424   3.505   2.965 -0.5269 -0.0872  0.1427
  191SAPI   H7X22074   4.482   3.410   2.961  0.3447  0.3940  1.0300
  191SAPI   H7Y22075   4.321   3.494   2.926 -0.4106  2.4524 -1.0495
  191SAPI   C3822076   4.428   3.579   3.101 -0.2516  0.7532  0.3861
  191SAPI   H8X22077   4.407   3.688   3.093 -0.7766  0.5406 -1.6231
  191SAPI   H8Y22078   4.525   3.578   3.156 -1.1079 -0.0378  1.9586
  191SAPI   C3922079   4.319   3.527   3.195  0.8007  0.0661  0.1099
  191SAPI   H9X22080   4.239   3.498   3.124  0.0308  3.7801 -0.7557
  191SAPI   H9Y22081   4.276   3.616   3.246 -1.3148 -1.8314  1.8779
  191SAPI  C31022082   4.368   3.420   3.287 -0.0482  0.1878  0.1824
  191SAPI  H10X22083   4.446   3.470   3.348  0.3849  0.0701 -0.2682
  191SAPI  H10Y22084   4.412   3.340   3.224  1.3005  1.7387 -0.9266
  191SAPI  C31122085   4.266   3.359   3.376 -0.1243  0.8392  0.3130
  191SAPI  H11X22086   4.265   3.249   3.357 -2.0573  0.5625  1.6541
  191SAPI  H11Y22087   4.166   3.381   3.333 -0.1227  0.3826  0.0648
  191SAPI  C31222088   4.263   3.403   3.523  0.1325 -0.0966  0.3819
  191SAPI  H12X22089   4.291   3.510   3.528 -2.0908  0.5118  0.6789
  191SAPI  H12Y22090   4.348   3.355   3.576 -0.1280 -1.8038 -0.6568
  191SAPI  C31322091   4.123   3.396   3.587 -0.0165  0.2628 -0.1468
  191SAPI  H13X22092   4.104   3.288   3.600  1.1557  0.2398  1.8907
  191SAPI  H13Y22093   4.045   3.432   3.516  1.1052  1.2817 -0.9129
  191SAPI  C31422094   4.092   3.488   3.706  0.1751  0.1674  0.0416
  191SAPI  H14X22095   4.107   3.586   3.656 -3.0071  0.1269 -1.2239
  191SAPI  H14Y22096   4.158   3.466   3.793 -0.8238 -1.5805  0.3957
  191SAPI  C31522097   3.941   3.499   3.757 -0.4643 -0.6429  0.5589
  191SAPI  H15X22098   3.920   3.391   3.767 -1.6569 -0.5164 -0.3216
  191SAPI  H15Y22099   3.892   3.533   3.663 -0.0502  1.1101  0.9252
  191SAPI  C31622100   3.924   3.584   3.877  0.0760 -0.7367 -0.0276
  191SAPI  H16X22101   3.995   3.561   3.960 -2.0969 -2.0283  1.5812
  191SAPI  H16Y22102   3.825   3.554   3.916  0.1022 -1.5667 -0.5848
  191SAPI  C31722103   3.920   3.743   3.865 -0.5412 -0.3876  0.0222
  191SAPI  H17X22104   3.862   3.771   3.775 -0.0372 -0.3168 -0.2889
  191SAPI  H17Y22105   4.026   3.770   3.845 -0.6591  0.8785  1.0037
  191SAPI  C31822106   3.887   3.812   3.991  0.7871 -0.3001 -0.1997
  191SAPI  H18X22107   3.782   3.847   3.994  0.5809 -0.8759 -0.4662
  191SAPI  H18Y22108   3.951   3.901   4.009 -0.1245  0.1187  1.0609
  191SAPI  H18Z22109   3.898   3.748   4.081 -1.2040  1.7389  1.6060
  192SAPI   C1222110   0.921   1.782   1.450 -0.9641 -0.5639 -0.1097
  192SAPI    H222111   0.986   1.826   1.530 -2.3605  0.5247  0.4771
  192SAPI    O222112   0.912   1.880   1.348 -0.0499  0.8012 -0.0205
  192SAPI   HO222113   1.003   1.892   1.322  0.4450 -1.1282  0.6257
  192SAPI   C1322114   0.990   1.650   1.406  0.4903 -0.5416 -0.1974
  192SAPI    H322115   0.995   1.578   1.490  0.3089 -1.3232 -0.8454
  192SAPI    O322116   1.127   1.674   1.366  0.0529 -0.0261  0.3500
  192SAPI   HO322117   1.193   1.633   1.423  0.0562 -2.0382 -1.0117
  192SAPI   C1422118   0.914   1.582   1.300  0.6521  0.9074 -0.3506
  192SAPI    H422119   0.912   1.649   1.212 -1.5993  2.4160  0.7391
  192SAPI    O422120   0.970   1.457   1.257  0.1651 -0.2446 -0.1444
  192SAPI   HO422121   0.924   1.448   1.173 -1.4031  1.7360  0.4381
  192SAPI   C1522122   0.769   1.556   1.343 -0.8410  0.5529  0.0657
  192SAPI    H522123   0.781   1.493   1.434  2.0096 -0.8465 -1.1551
  192SAPI    O522124   0.697   1.479   1.251  0.0307 -0.3285  0.2155
  192SAPI   HO522125   0.667   1.400   1.297 -0.0026  0.7286  2.0624
  192SAPI   C1622126   0.709   1.689   1.391  0.5244 -0.0594 -0.2297
  192SAPI    H622127   0.702   1.767   1.312 -1.1471  2.1003  1.9478
  192SAPI    O622128   0.579   1.663   1.438  0.1769  0.2930 -0.1919
  192SAPI   HO622129   0.584   1.623   1.525 -1.9075 -1.6163 -0.8752
  192SAPI   C1122130   0.789   1.746   1.503  0.0624 -0.2172 -0.3059
  192SAPI    H122131   0.808   1.674   1.586  0.8791  1.4256  1.0025
  192SAPI     P22132   0.717   1.901   1.725  0.3031 -0.4066 -0.6889
  192SAPI   O1322133   0.656   2.035   1.739  0.1353  0.0725 -0.4752
  192SAPI   O1422134   0.851   1.874   1.788  0.2227  0.1462  0.7753
  192SAPI   O1222135   0.732   1.869   1.560  0.1205 -1.1832 -0.4347
  192SAPI   O1122136   0.611   1.786   1.760 -0.2146  0.3186  0.2005
  192SAPI    C122137   0.473   1.797   1.727  0.5964  0.3127 -0.3308
  192SAPI    HA22138   0.442   1.877   1.657 -1.6737 -0.7357 -0.6151
  192SAPI    HB22139   0.442   1.697   1.689  0.5205 -0.0569  0.6551
  192SAPI    C222140   0.378   1.800   1.859  0.2148 -0.1457  0.0332
  192SAPI    HS22141   0.383   1.905   1.894 -2.2676  0.4250 -1.0939
  192SAPI   O2122142   0.430   1.704   1.953  0.0487 -0.4496 -0.8187
  192SAPI   C2122143   0.523   1.761   2.035 -0.4510 -0.0827  0.0457
  192SAPI   O2222144   0.540   1.879   2.061 -0.4747 -0.0620  0.5534
  192SAPI   C2222145   0.598   1.654   2.104 -0.1109  0.2472 -0.4232
  192SAPI   H2R22146   0.615   1.563   2.042  0.9512 -0.1738  0.4549
  192SAPI   H2S22147   0.702   1.686   2.126  0.2404 -0.9084 -0.3255
  192SAPI    C322148   0.233   1.778   1.835  0.7686 -0.0646 -0.2496
  192SAPI    HX22149   0.204   1.674   1.809 -0.0208 -0.2239  1.1580
  192SAPI    HY22150   0.202   1.833   1.744  0.2451 -0.5577 -0.3778
  192SAPI   O3122151   0.145   1.805   1.945 -0.1898 -0.5131 -0.0565
  192SAPI   C3122152   0.095   1.928   1.965 -0.1573 -0.8473 -0.1074
  192SAPI   O3222153   0.117   2.021   1.890 -0.8748  0.5068 -0.7592
  192SAPI   C3222154   0.018   1.938   2.100  0.1373 -0.3597  0.2492
  192SAPI   H2X22155  -0.014   1.838   2.136  2.2484 -1.9249 -1.8530
  192SAPI   H2Y22156  -0.076   1.990   2.073  0.8151  0.2708 -0.9944
  192SAPI   C2322157   0.535   1.611   2.243  0.5742  0.2116 -0.2011
  192SAPI   H3R22158   0.566   1.505   2.249 -0.5639 -0.3641 -2.9346
  192SAPI   H3S22159   0.424   1.613   2.245  0.5904  0.6783  0.6857
  192SAPI   C2422160   0.590   1.682   2.373 -1.1221  0.0824  0.0829
  192SAPI   H4R22161   0.519   1.667   2.457 -1.0803  1.1843  0.3236
  192SAPI   H4S22162   0.584   1.793   2.364  1.3460  0.4719  2.1855
  192SAPI   C2522163   0.732   1.653   2.408 -1.0239 -0.2377 -0.1390
  192SAPI   H5R22164   0.801   1.620   2.329  0.9034 -0.1783  1.4229
  192SAPI   C2622165   0.780   1.669   2.533  0.5527 -0.2245  1.0272
  192SAPI   H6R22166   0.884   1.640   2.551  0.6899 -0.5638 -0.2188
  192SAPI   C2722167   0.697   1.718   2.646  0.2226  0.2674  0.0123
  192SAPI   H7R22168   0.682   1.637   2.721 -0.0590  0.3547  0.0508
  192SAPI   H7S22169   0.594   1.753   2.622 -0.2697 -0.1896  1.3455
  192SAPI   C2822170   0.787   1.832   2.688  0.4510 -0.3953  0.5930
  192SAPI   H8R22171   0.783   1.917   2.620 -1.9090 -0.5808  0.4086
  192SAPI   C2922172   0.882   1.843   2.786  0.3095  0.3351 -0.0540
  192SAPI   H9R22173   0.939   1.936   2.796  1.1665 -0.2623  0.8396
  192SAPI  C21022174   0.906   1.741   2.898  0.2745  0.4226  1.0630
  192SAPI  H10R22175   1.000   1.768   2.950  2.9091 -0.5231 -2.7711
  192SAPI  H10S22176   0.928   1.642   2.852  1.0357  2.1319 -2.5524
  192SAPI  C21122177   0.782   1.729   2.985 -0.2661  0.2086  0.3422
  192SAPI  H11R22178   0.694   1.690   2.933 -0.1964 -0.2407  0.5544
  192SAPI  C21222179   0.768   1.757   3.118  0.5245  0.7929 -0.0577
  192SAPI  H12R22180   0.674   1.737   3.172 -0.0988  0.5708 -1.1788
  192SAPI  C21322181   0.878   1.822   3.201 -0.1250  0.1121 -0.1900
  192SAPI  H13R22182   0.824   1.890   3.271 -0.4409 -0.5331  0.2004
  192SAPI  H13S22183   0.936   1.896   3.141  1.3770 -1.2532 -0.4991
  192SAPI  C21422184   0.979   1.735   3.270 -0.4296  0.2236  0.4638
  192SAPI  H14R22185   1.008   1.638   3.227  1.7531  0.1353  1.9542
  192SAPI  C21522186   1.018   1.763   3.398 -0.2263 -0.4161 -0.5829
  192SAPI  H15R22187   1.105   1.713   3.443 -1.1376 -0.2883  1.4642
  192SAPI  C21622188   0.968   1.888   3.480 -0.1855 -0.4176  0.0041
  192SAPI  H16R22189   0.893   1.856   3.556  1.2468 -1.5389  1.0069
  192SAPI  H16S22190   0.928   1.967   3.413  0.7433  1.7138  1.8460
  192SAPI  C21722191   1.093   1.949   3.539 -1.0516 -0.9978 -0.2968
  192SAPI  H17R22192   1.175   1.969   3.467 -0.3799 -2.5775 -0.0106
  192SAPI  H17S22193   1.139   1.880   3.613  3.2926  1.2143 -0.6297
  192SAPI  C21822194   1.066   2.076   3.627 -0.8453  0.7878 -0.0515
  192SAPI  H18R22195   0.987   2.056   3.703 -0.8967 -0.5098 -0.4164
  192SAPI  H18S22196   1.042   2.162   3.561  2.2246  0.5705 -1.6062
  192SAPI  C21922197   1.194   2.111   3.713  0.0235  0.2717  0.8019
  192SAPI  H19R22198   1.212   2.017   3.770 -1.6010 -0.9634 -0.6047
  192SAPI  H19S22199   1.166   2.188   3.788  0.2390  0.9738  0.1653
  192SAPI  C22022200   1.326   2.146   3.641  0.4056 -0.9315 -0.0640
  192SAPI  H20R22201   1.307   2.229   3.570 -1.3064  0.0922  1.4939
  192SAPI  H20S22202   1.372   2.057   3.592  2.0064  0.7699 -1.8060
  192SAPI  H20T22203   1.403   2.181   3.714 -1.0852 -0.6704  1.4435
  192SAPI   C3322204   0.095   2.008   2.211  0.0217 -0.5618 -0.1751
  192SAPI   H3X22205   0.028   2.019   2.299 -0.4305  0.8997 -0.6786
  192SAPI   H3Y22206   0.135   2.108   2.185  0.3548 -0.6759 -0.1122
  192SAPI   C3422207   0.216   1.919   2.250  0.2302  0.4594 -0.1112
  192SAPI   H4X22208   0.293   1.912   2.170  2.3554  0.5791  1.8167
  192SAPI   H4Y22209   0.182   1.815   2.271  3.1365 -0.5205  0.2903
  192SAPI   C3522210   0.285   1.977   2.369 -0.5298 -0.0541 -0.3023
  192SAPI   H5X22211   0.323   2.076   2.335  0.5452  0.5998  2.5044
  192SAPI   H5Y22212   0.374   1.913   2.391 -1.0441 -0.9138 -0.6761
  192SAPI   C3622213   0.211   1.974   2.503  0.3105 -0.1610 -0.6157
  192SAPI   H6X22214   0.233   1.874   2.546 -0.9749 -0.1557  0.1171
  192SAPI   H6Y22215   0.100   1.973   2.493  0.1651 -0.2213  0.7653
  192SAPI   C3722216   0.247   2.089   2.592  0.3343  0.6738  0.0118
  192SAPI   H7X22217   0.197   2.179   2.550  1.3766  1.4106  0.3338
  192SAPI   H7Y22218   0.355   2.110   2.584  0.6709 -1.1205 -0.6860
  192SAPI   C3822219   0.202   2.060   2.734  0.2306 -0.1685  0.4873
  192SAPI   H8X22220   0.229   1.959   2.771 -0.0134  0.5823  2.8615
  192SAPI   H8Y22221   0.092   2.056   2.717  0.6360 -2.4542 -2.2498
  192SAPI   C3922222   0.227   2.168   2.836 -0.5147 -0.4616  0.5705
  192SAPI   H9X22223   0.156   2.171   2.922 -0.9900 -1.8474  0.2453
  192SAPI   H9Y22224   0.227   2.261   2.775  0.2787 -1.2264 -0.6246
  192SAPI  C31022225   0.365   2.150   2.911  0.2810  0.2935 -0.3448
  192SAPI  H10X22226   0.360   2.056   2.971 -0.2709 -0.8793 -2.1599
  192SAPI  H10Y22227   0.370   2.238   2.979 -1.4317  0.5965 -0.5635
  192SAPI  C31122228   0.484   2.149   2.816 -0.7176 -0.0491  0.0043
  192SAPI  H11X22229   0.483   2.246   2.762 -1.0164  1.6440  2.7948
  192SAPI  H11Y22230   0.469   2.064   2.747 -0.2730 -2.0522  2.2245
  192SAPI  C31222231   0.625   2.142   2.888 -0.5675  0.7207  0.0845
  192SAPI  H12X22232   0.711   2.136   2.818 -0.1614  1.0462  0.5526
  192SAPI  H12Y22233   0.631   2.047   2.945 -2.4938  1.6599  1.9910
  192SAPI  C31322234   0.647   2.250   2.990  0.0441  0.0627 -0.7551
  192SAPI  H13X22235   0.596   2.222   3.085 -2.2130  1.3739 -1.4938
  192SAPI  H13Y22236   0.612   2.347   2.947  0.9997  0.8786  0.2658
  192SAPI  C31422237   0.795   2.271   3.038 -0.1820  0.1049 -0.6882
  192SAPI  H14X22238   0.782   2.337   3.126 -0.5007 -0.1411 -0.5450
  192SAPI  H14Y22239   0.851   2.332   2.965  0.6126  0.1796 -0.0269
  192SAPI  C31522240   0.878   2.144   3.074 -1.0487  1.0186  0.6023
  192SAPI  H15X22241   0.871   2.066   2.996  1.6780  0.2872  0.9851
  192SAPI  H15Y22242   0.844   2.099   3.170  2.5396  0.6098  1.8450
  192SAPI  C31622243   1.028   2.181   3.091 -0.6690 -0.7743 -0.0771
  192SAPI  H16X22244   1.074   2.256   3.023 -2.1476 -1.5239 -1.9732
  192SAPI  H16Y22245   1.083   2.086   3.071 -0.5219 -1.0767  1.6247
  192SAPI  C31722246   1.066   2.211   3.239 -1.0401 -0.1652 -0.0010
  192SAPI  H17X22247   1.025   2.127   3.299  0.3480 -1.4896 -0.8276
  192SAPI  H17Y22248   1.023   2.307   3.277 -0.7242 -0.1000  0.2062
  192SAPI  C31822249   1.212   2.198   3.267 -0.6765  0.4132 -0.5457
  192SAPI  H18X22250   1.250   2.176   3.369 -0.2363  2.1032 -0.3008
  192SAPI  H18Y22251   1.252   2.297   3.238 -0.7381  0.4340 -0.5597
  192SAPI  H18Z22252   1.265   2.120   3.209 -0.0360  0.9256 -0.6604
  193SOD    SOD22253   2.330   0.566   6.259 -0.0813 -0.2185  0.1244
  194SOD    SOD22254   0.562   0.366   7.814 -0.2090  0.2356 -0.1178
  195SOD    SOD22255   6.112   4.733   0.079 -0.3590  0.3900  0.3594
  196SOD    SOD22256   1.242   0.795   6.305  0.3429  0.0462 -0.1201
  197SOD    SOD22257   0.012   6.700   6.230  0.0778  0.4651  0.3882
  198SOD    SOD22258   3.481   1.363   7.656 -0.2116  0.3296 -0.1462
  199SOD    SOD22259   3.319   6.729   1.506 -0.2342 -0.2763 -0.5580
  200SOD    SOD22260   0.749   2.186   0.105 -0.2312  0.1455  0.3500
  201SOD    SOD22261   1.314   0.039   6.801  0.1973 -0.2099 -0.2948
  202SOD    SOD22262   5.153   5.700   7.149  0.1486 -0.2164  0.3310
  203SOD    SOD22263   7.111   3.136   7.764 -0.5645 -0.2288 -0.3036
  204SOD    SOD22264   3.684   4.600   6.352  0.1480 -0.2051  0.0322
  205SOD    SOD22265   4.344   6.556   1.103  0.2245  0.7800 -0.1950
  206SOD    SOD22266   3.182   5.036   6.455 -0.3288  0.1984 -0.3603
  207SOD    SOD22267   6.019   3.311   7.443  0.3073  0.4567 -0.1223
  208SOD    SOD22268   1.392   3.335   0.516  0.1367  0.7309  0.3123
  209SOD    SOD22269   2.548   1.763   1.501 -0.3828  0.1099 -0.3343
  210SOD    SOD22270   7.017   3.877   1.302 -0.1405  0.4196  0.0427
  211SOD    SOD22271   6.585   7.050   1.611  0.3257  0.2752  0.1272
  212SOD    SOD22272   2.114   5.347   1.506  0.1483  0.1883  0.1981
  213SOD    SOD22273   3.458   0.369   7.760  0.3436  0.0578  0.4167
  214SOD    SOD22274   5.786   2.034   1.693 -0.5869  0.1021 -0.6131
  215SOD    SOD22275   6.818   4.131   6.641  0.2494  0.3409  0.2860
  216SOD    SOD22276   3.889   3.660   6.601 -0.2169 -0.5487  0.0234
  217SOD    SOD22277   2.947   4.035   7.649 -0.3267 -0.2580  0.3180
  218SOD    SOD22278   0.583   6.513   6.751 -0.2099  1.0710  0.2488
  219SOD    SOD22279   5.970   6.402   6.806  0.4276  0.4262 -0.0930
  220SOD    SOD22280   4.147   0.972   1.621 -0.0851 -0.0863  0.8704
  221SOD    SOD22281   6.321   4.263   0.285  0.2806 -0.4384  0.0910
  222SOD    SOD22282   2.022   5.818   7.108  0.1364  0.1555  0.3130
  223SOD    SOD22283   5.175   0.896   6.328 -0.3677  0.1091  1.0314
  224SOD    SOD22284   0.850   1.856   5.978  0.3802 -0.0750  0.1971
  225SOD    SOD22285   3.527   3.477   1.431 -0.1241 -0.5118 -0.2783
  226SOD    SOD22286   6.385   2.023   1.534  0.4042  0.0491  0.1496
  227SOD    SOD22287   6.695   4.552   7.559 -0.0049 -0.0083 -0.2396
  228SOD    SOD22288   1.888   6.457   6.141 -0.0355 -0.0150  0.3027
  229SOD    SOD22289   4.542   2.935   1.386 -0.3267  0.2528 -0.5791
  230SOD    SOD22290   1.754   0.034   7.306 -0.0177 -0.2104  0.0095
  231SOD    SOD22291   6.046   2.963   1.912  0.2394 -0.4108 -0.0058
  232SOD    SOD22292   0.885   2.112   6.293  0.1232 -0.8194 -0.3405
  233SOD    SOD22293   1.078   2.323   7.429 -0.2918  0.1934  0.2240
  234CLA    CLA22294   3.608   6.951   0.100 -0.2659 -0.0987  0.1844
  235CLA    CLA22295   6.141   6.397   7.033  0.5546  0.3353 -0.0786
  236CLA    CLA22296   3.516   4.077   7.404  0.2497  0.1000 -0.1854
  237CLA    CLA22297   2.208   1.102   7.283 -0.0536 -0.2527 -0.2229
  238CLA    CLA22298   0.500   2.650   0.176  0.1898  0.3224  0.2551
  239CLA    CLA22299   6.344   2.217   0.848 -0.0969  0.1322 -0.1731
  240CLA    CLA22300   3.488   5.197   1.198 -0.0807  0.6396  0.1432
  241CLA    CLA22301   5.812   6.881   7.890 -0.1100  0.1026  0.0221
  242CLA    CLA22302   1.875   4.498   1.278 -0.1625  0.1393  0.4539
  243CLA    CLA22303   0.246   3.415   0.120 -0.2561  0.1258  0.1625
  244CLA    CLA22304   0.602   4.036   7.196  0.2358  0.4381  0.0325
  245CLA    CLA22305   0.842   6.347   7.339  0.4544  0.1448 -0.3445
  246CLA    CLA22306   6.294   1.031   6.694  0.1961  0.0007  0.2314
  247CLA    CLA22307   5.411   2.637   0.180  0.1300 -0.3148  0.0043
  248CLA    CLA22308   4.799   6.755   7.655 -0.2825  0.0512 -0.4317
  249CLA    CLA22309   3.723   0.876   1.409  0.0852  0.2699  0.4480
  250CLA    CLA22310   3.019   2.925   0.937 -0.5380  0.4565  0.6711
  251TIP3   OH222311   0.034   4.888   5.746  0.1120  0.3067 -0.1680
  251TIP3    H122312   0.032   4.792   5.735 -0.8797  0.1784  0.9409
  251TIP3    H222313  -0.036   4.919   5.688 -1.4696  0.0882  1.5366
  252TIP3   OH222314   5.076   5.242   0.080 -0.2183  0.1248  0.0840
  252TIP3    H122315   4.997   5.228   0.028 -1.6399  1.3377  1.7924
  252TIP3    H222316   5.088   5.159   0.127 -0.0338 -0.3120 -0.7087
  253TIP3   OH222317   0.928   0.147   7.543 -0.0098 -0.5379 -0.1128
  253TIP3    H122318   0.938   0.057   7.574 -0.0845 -0.3285  0.5514
  253TIP3    H222319   1.001   0.194   7.584 -0.2323 -0.2068 -0.0919
  254TIP3   OH222320   2.637   3.687   7.937 -0.7517  0.1897  0.2176
  254TIP3    H122321   2.720   3.728   7.961  1.1268 -2.0691 -1.9550
  254TIP3    H222322   2.615   3.632   8.012 -0.2719  0.7565  0.7860
  255TIP3   OH222323   6.256   4.340   0.078  0.1910 -0.4983  0.5970
  255TIP3    H122324   6.328   4.376   0.026  0.2520 -1.1530  0.2135
  255TIP3    H222325   6.183   4.400   0.062 -0.0614 -1.1614 -1.0031
  256TIP3   OH222326   1.128   5.685   6.268 -0.1758  0.0141 -0.1067
  256TIP3    H122327   1.050   5.641   6.302 -0.4866  0.2607 -0.4880
  256TIP3    H222328   1.160   5.627   6.198 -0.4182  0.2485 -0.4143
  257TIP3   OH222329   6.340   3.568   5.730  0.0748 -0.4941 -0.0114
  257TIP3    H122330   6.290   3.499   5.686 -0.6821  1.1199 -1.8735
  257TIP3    H222331   6.310   3.566   5.821 -0.0411 -2.4719 -0.0566
  258TIP3   OH222332   2.074   1.412   1.901 -0.2489 -0.1688 -0.9051
  258TIP3    H122333   2.135   1.463   1.955  0.5678 -0.7179 -1.2845
  258TIP3    H222334   2.116   1.326   1.893 -0.5310 -0.2091 -2.1165
  259TIP3   OH222335   2.782   5.208   7.249  0.2984  0.0109  0.0867
  259TIP3    H122336   2.723   5.269   7.205  1.3844  0.1374 -1.2677
  259TIP3    H222337   2.855   5.262   7.279  0.2957 -0.3223  0.7185
  260TIP3   OH222338   3.500   0.797   6.570  0.0647  0.3765 -0.2403
  260TIP3    H122339   3.580   0.830   6.529 -0.3233  1.1734 -0.3705
  260TIP3    H222340   3.506   0.826   6.661  0.9810 -1.4918  0.3496
  261TIP3   OH222341   3.386   5.349   0.935  0.0773 -0.3355  0.2889
  261TIP3    H122342   3.297   5.318   0.951  0.8367 -2.9468 -0.2379
  261TIP3    H222343   3.442   5.291   0.987  1.4942  1.6019  1.0714
  262TIP3   OH222344   2.065   6.378   1.971 -0.4725  0.2292 -0.3485
  262TIP3    H122345   1.988   6.406   2.020 -1.2678  1.7139 -2.3282
  262TIP3    H222346   2.045   6.288   1.943 -0.7221 -0.0099  0.5867
  263TIP3   OH222347   0.938   5.363   0.964 -0.1327  0.2634 -0.1747
  263TIP3    H122348   0.959   5.451   0.933  0.2196 -0.3027 -1.6082
  263TIP3    H222349   0.999   5.305   0.918 -0.8060 -0.7997  0.2221
  264TIP3   OH222350   3.642   6.597   7.946  0.0067  0.2152 -0.1893
  264TIP3    H122351   3.662   6.504   7.935 -0.4296 -0.0943  1.3840
  264TIP3    H222352   3.555   6.608   7.906  0.4320  0.1454 -1.1479
  265TIP3   OH222353   1.299   6.148   1.288 -0.1492 -0.2832  0.1878
  265TIP3    H122354   1.391   6.129   1.269  0.2639  0.4531  1.4199
  265TIP3    H222355   1.298   6.237   1.321 -1.4219  0.0003 -0.5237
  266TIP3   OH222356   2.037   4.409   7.343 -0.1402  0.9033  0.8578
  266TIP3    H122357   1.949   4.397   7.378  0.1037 -1.4833  0.7991
  266TIP3    H222358   2.024   4.441   7.254 -0.9146  1.3865  1.1416
  267TIP3   OH222359   6.263   5.008   0.754 -0.0007  0.4584 -0.2835
  267TIP3    H122360   6.353   5.039   0.740 -0.2154  1.2588  0.0341
  267TIP3    H222361   6.259   4.925   0.708  1.4396 -0.4750  1.1537
  268TIP3   OH222362   5.742   5.688   6.833 -0.4856 -0.2296 -0.3948
  268TIP3    H122363   5.694   5.605   6.833 -2.1649  0.6828 -1.5436
  268TIP3    H222364   5.830   5.665   6.864 -1.3259 -2.1664  0.7323
  269TIP3   OH222365   6.222   4.080   7.124  0.1570 -0.6332 -0.3720
  269TIP3    H122366   6.200   4.153   7.181  0.2136 -1.1930  0.3758
  269TIP3    H222367   6.138   4.036   7.108  0.3752 -1.4908  0.7100
  270TIP3   OH222368   1.389   3.722   5.874 -0.2256  0.0911 -0.3115
  270TIP3    H122369   1.436   3.714   5.790  0.9893 -0.8961  0.4252
  270TIP3    H222370   1.351   3.809   5.872  0.6893  0.4923 -1.4447
  271TIP3   OH222371   1.870   6.371   6.528  0.2804  0.6333 -0.0056
  271TIP3    H122372   1.881   6.277   6.543 -0.8418  0.5446  0.3381
  271TIP3    H222373   1.944   6.411   6.573  0.6865 -0.0780 -0.0281
  272TIP3   OH222374   0.022   0.756   0.598  1.0193 -0.0971 -0.8099
  272TIP3    H122375  -0.053   0.797   0.555 -0.9460  0.5586  2.7687
  272TIP3    H222376   0.011   0.663   0.582 -1.2731 -0.1269  0.4438
  273TIP3   OH222377   2.661   3.449   6.471 -0.6228  1.3039 -0.4041
  273TIP3    H122378   2.571   3.441   6.438 -0.5872 -0.3672 -0.1784
  273TIP3    H222379   2.653   3.431   6.565 -0.0574  1.1797 -0.3787
  274TIP3   OH222380   2.630   4.986   7.662 -0.7525  0.1403  0.0261
  274TIP3    H122381   2.617   4.898   7.627 -2.3247  1.0354 -1.8362
  274TIP3    H222382   2.640   5.041   7.585  0.4019  1.5910  1.1589
  275TIP3   OH222383   6.739   0.902   0.150  0.2305 -0.2469  0.3710
  275TIP3    H122384   6.721   0.890   0.243 -0.8197 -2.3478 -0.0492
  275TIP3    H222385   6.825   0.863   0.137 -1.0156 -3.0375 -0.0679
  276TIP3   OH222386   6.575   1.973   0.619 -0.4099 -0.0484  0.3469
  276TIP3    H122387   6.584   1.892   0.669 -0.7779  0.6105  1.5036
  276TIP3    H222388   6.493   1.962   0.571 -0.5720 -0.2770  0.6676
  277TIP3   OH222389   6.118   6.522   1.567  0.1505 -0.7312  0.0766
  277TIP3    H122390   6.067   6.452   1.526 -0.2494 -0.2665 -0.2201
  277TIP3    H222391   6.071   6.602   1.546 -0.0525 -0.4762  1.4424
  278TIP3   OH222392   5.874   0.190   1.573 -0.5335 -0.0703  0.0025
  278TIP3    H122393   5.833   0.266   1.614 -0.4711 -0.9010  1.7007
  278TIP3    H222394   5.871   0.122   1.641  2.1689 -0.6613 -0.3603
  279TIP3   OH222395   0.283   1.498   7.318 -0.2982  0.3544  0.3683
  279TIP3    H122396   0.291   1.409   7.284  1.7420  0.3860  0.6319
  279TIP3    H222397   0.359   1.508   7.376 -0.5405  2.2255  0.4231
  280TIP3   OH222398   6.422   5.378   7.360 -0.1361  0.2550  0.0423
  280TIP3    H122399   6.460   5.438   7.296 -0.3182  0.6950  0.3444
  280TIP3    H222400   6.478   5.300   7.356 -0.8693 -0.2204 -1.5244
  281TIP3   OH222401   1.532   1.244   7.930 -0.5553 -0.1938  0.2509
  281TIP3    H122402   1.616   1.234   7.975 -0.1478  0.6552 -0.2746
  281TIP3    H222403   1.553   1.229   7.838 -0.7888  0.8854  0.0074
  282TIP3   OH222404   0.528   2.723   0.516  0.2184 -0.2289  0.0640
  282TIP3    H122405   0.446   2.761   0.546  0.6928  0.9752 -0.0868
  282TIP3    H222406   0.511   2.697   0.425  0.1078  0.3979 -0.1035
  283TIP3   OH222407   5.167   5.849   1.332  0.1652  0.3093 -0.1050
  283TIP3    H122408   5.119   5.791   1.390 -0.9796 -0.3692 -1.6664
  283TIP3    H222409   5.191   5.924   1.387 -2.9465  0.8406  0.6959
  284TIP3   OH222410   2.709   2.776   1.871 -0.1602 -0.3668 -0.2652
  284TIP3    H122411   2.674   2.761   1.959 -0.1189 -0.0514 -0.1926
  284TIP3    H222412   2.653   2.843   1.833  0.3014  0.0720 -0.1828
  285TIP3   OH222413   2.391   5.336   1.792 -0.0903 -0.6399 -0.3617
  285TIP3    H122414   2.376   5.257   1.843 -1.4473 -0.1792 -0.0086
  285TIP3    H222415   2.466   5.315   1.736  1.3745 -1.2039  1.7162
  286TIP3   OH222416   4.425   6.239   6.659  0.2869 -0.1313  0.0217
  286TIP3    H122417   4.514   6.263   6.634 -0.2350 -1.1671 -3.2477
  286TIP3    H222418   4.427   6.237   6.755  3.5435  0.6285  0.0787
  287TIP3   OH222419   2.137   7.090   6.303 -0.3669 -0.8299 -0.3592
  287TIP3    H122420   2.108   7.065   6.215 -1.7126 -1.3656  0.2027
  287TIP3    H222421   2.082   7.165   6.325  0.0121 -0.6551 -0.0051
  288TIP3   OH222422   5.982   0.992   5.612  0.2976 -0.0752  0.4967
  288TIP3    H122423   5.905   0.994   5.669 -0.2578 -2.3189 -0.0908
  288TIP3    H222424   6.038   0.924   5.650  0.3127 -0.9841 -1.0746
  289TIP3   OH222425   2.143   6.310   0.879  0.2315  0.3331  0.1771
  289TIP3    H122426   2.144   6.398   0.840  2.3782 -0.1822 -1.1312
  289TIP3    H222427   2.212   6.313   0.945 -2.4170  0.7496  3.1309
  290TIP3   OH222428   0.880   4.114   1.250  0.8348  0.9154  0.1031
  290TIP3    H122429   0.952   4.063   1.288  0.2777 -0.2358 -0.3366
  290TIP3    H222430   0.811   4.112   1.316  0.3028 -0.0894 -0.4651
  291TIP3   OH222431   3.586   6.935   0.871  0.4242  0.0593  0.3722
  291TIP3    H122432   3.513   6.902   0.923  0.6011  1.2026  1.3985
  291TIP3    H222433   3.655   6.953   0.936  0.1175  3.0061  0.0007
  292TIP3   OH222434   2.580   0.762   7.911  0.7548 -0.7322  0.4588
  292TIP3    H122435   2.586   0.837   7.970  1.1179  0.8121 -1.4476
  292TIP3    H222436   2.669   0.748   7.880  0.2402  0.0138 -1.4883
  293TIP3   OH222437   1.638   6.528   6.594  0.7366  0.3162  0.2580
  293TIP3    H122438   1.713   6.476   6.564 -0.1585 -1.7537  1.3655
  293TIP3    H222439   1.568   6.507   6.532  0.0326 -0.8045  1.3889
  294TIP3   OH222440   3.028   2.334   0.212 -0.1053 -0.2318  0.2595
  294TIP3    H122441   2.961   2.400   0.198  0.2620  0.0096 -0.4131
  294TIP3    H222442   2.987   2.252   0.185  0.6191  0.2259 -2.5941
  295TIP3   OH222443   1.878   2.736   0.565  0.1203  0.1884  0.4132
  295TIP3    H122444   1.920   2.820   0.548  0.7412 -0.1544  0.1972
  295TIP3    H222445   1.923   2.702   0.643  0.4380 -0.2985  0.0291
  296TIP3   OH222446   0.654   1.438   0.218  0.4620  0.1632 -0.3359
  296TIP3    H122447   0.656   1.520   0.267  0.9885 -0.2660  0.3918
  296TIP3    H222448   0.602   1.457   0.140  1.6156  1.5350 -0.8110
  297TIP3   OH222449   6.323   4.706   6.936 -0.1312 -0.0694  0.4679
  297TIP3    H122450   6.378   4.780   6.960  0.5490  0.3500 -2.0579
  297TIP3    H222451   6.265   4.740   6.868 -1.0371 -1.4339  0.5074
  298TIP3   OH222452   3.003   7.074   6.330  0.1292 -0.4645 -0.3471
  298TIP3    H122453   2.995   6.978   6.336  1.4313 -0.7633 -2.3574
  298TIP3    H222454   2.937   7.099   6.266  0.5088 -0.1650 -0.6238
  299TIP3   OH222455   5.992   2.989   7.702  0.9854  0.4746  0.6478
  299TIP3    H122456   5.975   3.057   7.767 -1.1205  1.0772 -0.4299
  299TIP3    H222457   6.011   3.036   7.621  0.0289 -0.2031  0.0066
  300TIP3   OH222458   6.009   3.327   1.117 -0.2614 -0.1268  0.7571
  300TIP3    H122459   5.973   3.341   1.205 -0.5806 -0.0743  0.6191
  300TIP3    H222460   6.050   3.410   1.094  1.4261 -0.6923  1.5909
  301TIP3   OH222461   6.154   6.817   6.898  0.2712 -0.1231 -0.0404
  301TIP3    H122462   6.077   6.763   6.878  1.6471 -1.7626 -1.1819
  301TIP3    H222463   6.131   6.861   6.979 -1.3650 -1.6010  0.3751
  302TIP3   OH222464   5.840   1.616   7.935  0.8103  0.3377  0.1036
  302TIP3    H122465   5.903   1.565   7.883  0.5278 -1.2623  1.2478
  302TIP3    H222466   5.763   1.624   7.879  1.3848  0.7945 -0.6449
  303TIP3   OH222467   3.359   3.140   0.072  0.0276  0.9203 -0.4755
  303TIP3    H122468   3.284   3.115   0.126  0.3456  1.1138  0.0648
  303TIP3    H222469   3.325   3.209   0.015 -0.5867 -0.0055 -1.2659
  304TIP3   OH222470   5.440   3.983   1.962  0.1073 -0.2227 -0.0174
  304TIP3    H122471   5.499   3.913   1.988 -1.1807 -2.0186 -1.6769
  304TIP3    H222472   5.355   3.957   1.998 -0.3118  0.6735 -0.3296
  305TIP3   OH222473   0.826   6.865   1.867  0.3448 -0.2006 -0.2643
  305TIP3    H122474   0.808   6.847   1.775  1.7950 -0.0070 -0.6069
  305TIP3    H222475   0.776   6.943   1.887  0.8325  0.3663 -1.1924
  306TIP3   OH222476   1.558   0.501   7.111 -0.0616 -0.4613 -0.5571
  306TIP3    H122477   1.533   0.593   7.100 -3.1647 -1.0010  0.8242
  306TIP3    H222478   1.613   0.481   7.036  1.5004  2.7383 -0.3961
  307TIP3   OH222479   3.462   1.146   0.015  0.8910 -0.0706  0.3330
  307TIP3    H122480   3.466   1.089  -0.062  2.1179 -0.8804  0.9556
  307TIP3    H222481   3.369   1.150   0.037  0.4335  0.7072 -1.5531
  308TIP3   OH222482   4.408   4.868   1.242 -0.6563 -0.1238 -0.3931
  308TIP3    H122483   4.367   4.917   1.313 -2.4108 -3.3058  0.9982
  308TIP3    H222484   4.488   4.832   1.280  0.8494  1.7378 -1.5332
  309TIP3   OH222485   5.490   1.655   0.022 -0.2292 -0.1329 -1.1862
  309TIP3    H122486   5.487   1.730   0.082  0.6573 -0.8597 -0.2020
  309TIP3    H222487   5.469   1.692  -0.063 -0.3719  1.1390 -0.6243
  310TIP3   OH222488   0.558   7.111   7.809  0.2101  1.1229 -0.2839
  310TIP3    H122489   0.595   7.151   7.888  1.2634  0.6785 -0.5427
  310TIP3    H222490   0.569   7.017   7.821  1.5496  1.0949 -1.5008
  311TIP3   OH222491   0.942   0.070   7.947 -0.0093 -0.1433 -0.2004
  311TIP3    H122492   1.017   0.073   8.007 -0.6360  0.1313  0.5867
  311TIP3    H222493   0.968   0.125   7.873 -0.1634  1.5514  0.9453
  312TIP3   OH222494   4.870   6.724   0.027 -0.4656 -0.2761 -0.8435
  312TIP3    H122495   4.834   6.636   0.016 -0.6784 -0.2468 -0.4084
  312TIP3    H222496   4.950   6.723  -0.025 -0.5999 -0.6457 -1.0519
  313TIP3   OH222497   1.603   5.745   0.377 -0.4081 -0.1218 -0.4264
  313TIP3    H122498   1.698   5.749   0.363  0.4704 -1.1757  3.6215
  313TIP3    H222499   1.577   5.663   0.336  1.2589 -1.6240  1.2679
  314TIP3   OH222500   3.778   6.116   1.074  0.2325 -0.6795  0.2125
  314TIP3    H122501   3.782   6.033   1.026  1.7923 -0.7676  0.4329
  314TIP3    H222502   3.784   6.091   1.166  1.0954 -0.3287  0.2654
  315TIP3   OH222503   3.295   4.453   2.161  0.1375 -0.0156  0.2240
  315TIP3    H122504   3.225   4.419   2.105 -0.1661  1.9358 -0.6846
  315TIP3    H222505   3.352   4.378   2.177 -0.9783 -1.1407 -0.8709
  316TIP3   OH222506   4.362   3.498   7.857  0.4571 -0.7104 -0.1128
  316TIP3    H122507   4.282   3.446   7.858 -0.0823  0.1135  0.4545
  316TIP3    H222508   4.399   3.487   7.945  0.7857 -0.8102 -0.2618
  317TIP3   OH222509   6.659   4.672   7.325 -0.2070 -0.5556  0.0692
  317TIP3    H122510   6.697   4.589   7.298 -1.1791 -0.9750 -0.0532
  317TIP3    H222511   6.605   4.699   7.251  1.1054  0.8417 -0.4202
  318TIP3   OH222512   3.427   0.617   6.974 -0.2577  0.3137 -0.0448
  318TIP3    H122513   3.381   0.612   6.890 -2.3225  0.1496  1.0343
  318TIP3    H222514   3.478   0.698   6.968  0.8230 -0.4234 -1.9673
  319TIP3   OH222515   5.915   2.326   5.934 -0.7431 -0.1808  0.3130
  319TIP3    H122516   6.007   2.302   5.934 -0.6942 -0.1996 -1.9420
  319TIP3    H222517   5.902   2.373   5.852 -2.4978  0.9004  1.1280
  320TIP3   OH222518   0.105   5.725   1.210  0.5042  0.1029  0.1647
  320TIP3    H122519   0.141   5.682   1.132  2.9896  0.7429  0.8615
  320TIP3    H222520   0.010   5.711   1.203  0.7318 -0.8420 -2.3555
  321TIP3   OH222521   2.568   3.862   0.931 -0.2126  0.3900 -0.2560
  321TIP3    H122522   2.510   3.838   1.004  0.8467 -0.5407  0.3093
  321TIP3    H222523   2.643   3.904   0.972  0.2841  0.0793 -0.8321
  322TIP3   OH222524   1.313   3.444   7.199 -0.1189 -0.0353  0.3169
  322TIP3    H122525   1.236   3.497   7.176 -0.0027 -0.5005 -1.2374
  322TIP3    H222526   1.376   3.461   7.129  1.5637  0.9611  1.9632
  323TIP3   OH222527   0.154   5.604   0.127  0.3198  0.3523 -0.2927
  323TIP3    H122528   0.249   5.606   0.138  0.3538 -0.3981 -0.4028
  323TIP3    H222529   0.121   5.667   0.191  0.9036  0.8282 -0.4498
  324TIP3   OH222530   3.680   3.801   7.497 -0.2888 -0.2656  0.3007
  324TIP3    H122531   3.767   3.839   7.513  0.9030 -0.6932 -3.7781
  324TIP3    H222532   3.620   3.876   7.501  0.6730  0.5063  0.6765
  325TIP3   OH222533   1.107   2.810   7.867 -0.1107 -0.0921  0.0521
  325TIP3    H122534   1.164   2.862   7.923 -0.1403 -1.7290  1.7038
  325TIP3    H222535   1.149   2.724   7.863 -0.1042 -0.0525 -2.4999
  326TIP3   OH222536   3.330   5.111   6.300 -0.2233 -0.4229  0.0726
  326TIP3    H122537   3.402   5.170   6.325 -0.4666 -1.0893  2.6448
  326TIP3    H222538   3.336   5.106   6.204  2.3425  0.5353  0.0843
  327TIP3   OH222539   5.612   5.798   7.481  0.4614 -0.8318 -0.4779
  327TIP3    H122540   5.622   5.801   7.386 -1.4381 -2.2310 -0.7931
  327TIP3    H222541   5.524   5.762   7.495 -0.4045  1.7653  1.8059
  328TIP3   OH222542   3.819   0.939   7.842  0.5258 -0.3063 -0.3867
  328TIP3    H122543   3.873   0.895   7.777 -0.2442 -1.7536 -0.0702
  328TIP3    H222544   3.732   0.900   7.832  0.0726  0.4092  0.6039
  329TIP3   OH222545   6.261   4.982   6.463  0.4948  0.4281 -0.0002
  329TIP3    H122546   6.185   4.942   6.421  1.2134  1.5888 -2.5793
  329TIP3    H222547   6.335   4.952   6.412  1.6949  0.2529  1.7653
  330TIP3   OH222548   3.031   5.265   6.783 -0.2829 -0.0931  0.3275
  330TIP3    H122549   3.100   5.284   6.720 -0.3103  1.0317  0.6255
  330TIP3    H222550   2.955   5.244   6.730 -0.5560  1.7443 -0.0476
  331TIP3   OH222551   4.312   2.987   7.790  0.4133  0.2762  0.1496
  331TIP3    H122552   4.235   2.930   7.786  0.3701  0.2292  1.3275
  331TIP3    H222553   4.305   3.042   7.712  0.4032 -1.2471 -0.9721
  332TIP3   OH222554   1.485   6.937   6.524 -0.4237 -0.2159 -0.5576
  332TIP3    H122555   1.397   6.902   6.536 -0.2602 -0.1026  1.3703
  332TIP3    H222556   1.537   6.892   6.591  0.8030  0.3456 -1.1079
  333TIP3   OH222557   5.572   5.574   0.023  0.2407  0.1798 -0.2305
  333TIP3    H122558   5.574   5.562  -0.072 -0.8809  0.5662 -0.3176
  333TIP3    H222559   5.663   5.589   0.047  0.3952  1.3405 -1.4146
  334TIP3   OH222560   5.828   3.256   5.832  0.2891  0.0104  0.6583
  334TIP3    H122561   5.745   3.301   5.850  0.0883  0.2783 -0.7981
  334TIP3    H222562   5.894   3.325   5.834  0.4747 -0.1864  1.7148
  335TIP3   OH222563   2.210   5.458   6.613  0.3329 -0.1208  0.2558
  335TIP3    H122564   2.125   5.453   6.568  0.8748 -0.3434 -0.7781
  335TIP3    H222565   2.274   5.453   6.542  1.2131 -0.0268  1.0367
  336TIP3   OH222566   3.086   0.102   8.001 -0.2099  0.6160 -0.6047
  336TIP3    H122567   3.041   0.054   8.070 -0.9318  0.6191 -1.0553
  336TIP3    H222568   3.086   0.193   8.031 -2.0309  0.9115 -1.3220
  337TIP3   OH222569   3.427   2.247   6.355  0.6146  0.0233 -0.4684
  337TIP3    H122570   3.480   2.325   6.339  0.0947  0.6873  0.8774
  337TIP3    H222571   3.339   2.270   6.324  0.6323 -0.3152 -0.7785
  338TIP3   OH222572   0.736   4.423   7.122  0.0889 -0.2767 -0.4159
  338TIP3    H122573   0.812   4.414   7.180 -0.0868 -0.0628 -0.1456
  338TIP3    H222574   0.756   4.367   7.047  0.4292 -0.3695 -0.2601
  339TIP3   OH222575   6.347   3.210   6.026 -0.2083  0.0957  0.5446
  339TIP3    H122576   6.390   3.173   6.103  0.8489 -1.1683 -0.6023
  339TIP3    H222577   6.299   3.137   5.987  0.8348  0.2024 -1.0266
  340TIP3   OH222578   2.958   3.528   0.592  0.6482  0.0313  0.1690
  340TIP3    H122579   2.897   3.524   0.518  0.5513  0.2125  0.2389
  340TIP3    H222580   2.902   3.519   0.670  0.9737 -2.6565  0.1724
  341TIP3   OH222581   2.920   6.237   7.449 -0.0855 -0.3725  0.2875
  341TIP3    H122582   2.967   6.155   7.462 -1.5839 -1.1342  1.0578
  341TIP3    H222583   2.972   6.284   7.383  1.0621 -1.7031  0.2031
  342TIP3   OH222584   3.070   1.179   6.116  0.5048 -0.1464 -0.2665
  342TIP3    H122585   3.149   1.170   6.063  0.7856 -0.9529  0.2766
  342TIP3    H222586   3.005   1.126   6.070  1.0558 -1.7924  0.7590
  343TIP3   OH222587   6.296   3.095   0.020  0.4212  0.3406  0.0052
  343TIP3    H122588   6.204   3.098  -0.005  0.6528  0.0071 -0.9648
  343TIP3    H222589   6.299   3.037   0.096 -0.3006  1.2455  0.7358
  344TIP3   OH222590   1.356   0.606   1.019  0.3595 -0.0144  0.2121
  344TIP3    H122591   1.309   0.528   1.049 -1.5025  1.2903  0.8825
  344TIP3    H222592   1.316   0.628   0.935 -0.2697  1.0825  0.7640
  345TIP3   OH222593   4.659   1.305   7.768  0.5417 -0.2352 -0.0891
  345TIP3    H122594   4.610   1.381   7.740  0.2011 -1.2284 -2.4272
  345TIP3    H222595   4.751   1.329   7.753  0.6116  0.5361  1.4410
  346TIP3   OH222596   6.156   6.951   0.861 -0.5091  0.5169 -0.3701
  346TIP3    H122597   6.186   6.998   0.783  0.0173  2.0687  0.7133
  346TIP3    H222598   6.237   6.919   0.902 -0.8512 -1.2651 -1.0039
  347TIP3   OH222599   2.173   2.570   7.922  0.1734 -0.2001 -0.0145
  347TIP3    H122600   2.158   2.596   7.831 -0.4312  0.5956  0.3025
  347TIP3    H222601   2.268   2.560   7.929  0.1997 -0.5906 -0.8127
  348TIP3   OH222602   5.563   0.227   1.551  0.2013 -0.2416  0.1823
  348TIP3    H122603   5.594   0.196   1.466  2.2233 -1.2537  1.2054
  348TIP3    H222604   5.642   0.260   1.595 -1.0443  1.6674  1.1179
  349TIP3   OH222605   1.210   1.545   0.261  0.3983  0.2884 -0.8038
  349TIP3    H122606   1.258   1.464   0.241 -0.0330 -0.4578  1.0225
  349TIP3    H222607   1.215   1.553   0.356 -1.4673  1.2215 -0.7451
  350TIP3   OH222608   3.242   4.242   0.682  0.0912  0.2744 -0.8776
  350TIP3    H122609   3.167   4.189   0.709  1.2857 -0.7591  0.6023
  350TIP3    H222610   3.302   4.178   0.643  0.6321  0.9203 -1.1125
  351TIP3   OH222611   1.568   0.641   1.210  0.0279  0.0896  0.3150
  351TIP3    H122612   1.481   0.647   1.170 -0.2403 -0.7853  0.7300
  351TIP3    H222613   1.618   0.712   1.170 -1.1070  1.1066  0.6626
  352TIP3   OH222614   1.977   1.670   2.045  0.1926 -0.1351  0.0300
  352TIP3    H122615   2.070   1.654   2.028 -0.1490 -1.3853 -0.8226
  352TIP3    H222616   1.952   1.602   2.108  0.2470  1.3220  1.7010
  353TIP3   OH222617   3.053   1.026   6.428  0.1354  0.5174  0.2803
  353TIP3    H122618   3.082   1.101   6.376 -2.1445  0.1958 -1.6038
  353TIP3    H222619   3.057   1.057   6.519 -2.2122  3.5632 -0.4850
  354TIP3   OH222620   7.132   1.988   1.646  0.2408  0.0548 -0.5727
  354TIP3    H122621   7.086   1.916   1.688 -0.9821  0.7544 -0.6835
  354TIP3    H222622   7.199   2.014   1.710 -0.5218  0.0319  0.2551
  355TIP3   OH222623   3.360   2.861   5.969  0.1948 -1.0857 -0.4094
  355TIP3    H122624   3.277   2.874   6.015 -0.4557 -0.7968 -1.6175
  355TIP3    H222625   3.366   2.937   5.911  1.3522 -1.0719 -0.2876
  356TIP3   OH222626   4.151   4.052   1.193 -0.2310  1.0680 -0.0770
  356TIP3    H122627   4.139   4.143   1.166 -1.2078  0.6638 -1.0987
  356TIP3    H222628   4.096   4.002   1.133  1.4044 -0.3486 -0.4509
  357TIP3   OH222629   6.376   5.392   6.939  0.2635 -0.6412 -0.4170
  357TIP3    H122630   6.328   5.406   6.858 -0.2434 -3.2324 -0.6399
  357TIP3    H222631   6.358   5.301   6.962  2.0415 -0.5676  1.5219
  358TIP3   OH222632   5.732   3.818   6.827  0.1121  0.3143 -0.5719
  358TIP3    H122633   5.754   3.870   6.904 -1.2585  0.2351 -0.1013
  358TIP3    H222634   5.655   3.862   6.789  0.5941  0.1961 -1.7409
  359TIP3   OH222635   6.393   0.656   0.291 -0.6730 -0.4120  0.1896
  359TIP3    H122636   6.379   0.750   0.299 -0.6454 -0.4699  1.0676
  359TIP3    H222637   6.472   0.647   0.238 -2.2484 -0.0166 -2.3980
  360TIP3   OH222638   1.618   0.573   1.712  0.4968 -0.4754 -0.6190
  360TIP3    H122639   1.592   0.559   1.621  0.5693  1.3153 -0.9546
  360TIP3    H222640   1.601   0.666   1.728  0.5554 -0.7413  1.1816
  361TIP3   OH222641   5.957   1.987   1.550 -0.3189  0.3026  0.2219
  361TIP3    H122642   6.042   1.949   1.569 -0.6335 -0.9285 -0.7141
  361TIP3    H222643   5.908   1.917   1.508 -1.9599  0.8376  1.1455
  362TIP3   OH222644   5.372   6.621   7.595  0.2584 -0.2756  0.2406
  362TIP3    H122645   5.294   6.668   7.624  0.3978 -0.9098  1.6943
  362TIP3    H222646   5.354   6.601   7.503 -1.2228 -0.2702  0.5017
  363TIP3   OH222647   0.555   0.132   5.942 -0.0721  0.2033  0.9510
  363TIP3    H122648   0.536   0.163   6.030 -0.1679 -0.4415  1.1619
  363TIP3    H222649   0.490   0.064   5.925 -0.1562  0.4319  0.3203
  364TIP3   OH222650   6.202   0.753   1.507  0.4470  0.0638 -0.3377
  364TIP3    H122651   6.248   0.799   1.436  1.3937  0.4122  0.4734
  364TIP3    H222652   6.271   0.709   1.556 -0.4766 -2.7682 -1.4076
  365TIP3   OH222653   0.908   1.002   6.701 -0.2260  0.2012  0.4892
  365TIP3    H122654   0.972   0.932   6.716 -0.5559 -0.4522 -0.9759
  365TIP3    H222655   0.831   0.957   6.666  0.6114  1.5212 -3.5250
  366TIP3   OH222656   6.370   4.885   0.333  0.4414 -0.5315  0.6936
  366TIP3    H122657   6.427   4.874   0.410  0.2470  0.8709  1.0694
  366TIP3    H222658   6.300   4.943   0.363 -0.1596 -0.7170 -0.2941
  367TIP3   OH222659   1.456   4.787   6.934  0.1311  0.5074 -0.7337
  367TIP3    H122660   1.376   4.774   6.985  0.0308  0.4734 -0.8974
  367TIP3    H222661   1.520   4.728   6.974 -1.0306 -2.7112 -3.1071
  368TIP3   OH222662   3.266   3.311   7.900 -0.2731 -0.1894 -0.5595
  368TIP3    H122663   3.300   3.342   7.816  2.0358  1.0268  0.7102
  368TIP3    H222664   3.203   3.378   7.927  0.2382  0.3062 -0.5803
  369TIP3   OH222665   2.128   1.755   0.297  0.2774  0.3243  0.3761
  369TIP3    H122666   2.193   1.713   0.353 -1.0426 -0.7794  1.1636
  369TIP3    H222667   2.161   1.744   0.208  1.1113 -0.2893  0.7534
  370TIP3   OH222668   5.121   6.516   7.944 -0.0908 -0.5301  0.0754
  370TIP3    H122669   5.202   6.513   7.995 -0.0693  0.0403  0.0807
  370TIP3    H222670   5.139   6.461   7.868  1.5579  2.2354 -1.7016
  371TIP3   OH222671   4.647   5.051   1.549 -0.4617 -0.2619 -0.1030
  371TIP3    H122672   4.696   5.133   1.552  0.1846 -0.6475  2.0575
  371TIP3    H222673   4.581   5.060   1.618 -0.9277 -1.2420 -0.3992
  372TIP3   OH222674   4.590   2.028   6.134  0.3556 -0.1894  0.1683
  372TIP3    H122675   4.496   2.045   6.141  0.1816 -1.0440  0.0031
  372TIP3    H222676   4.611   2.046   6.043  0.1321 -1.0409 -0.0550
  373TIP3   OH222677   3.895   6.799   7.084 -0.1307 -0.2287  0.3629
  373TIP3    H122678   3.911   6.705   7.092  0.1932 -0.2879 -0.7545
  373TIP3    H222679   3.977   6.840   7.111  0.7099 -0.3948 -1.7061
  374TIP3   OH222680   0.858   5.300   7.740 -0.2304  0.3504  0.2211
  374TIP3    H122681   0.853   5.374   7.680  0.2709  1.4965  1.5308
  374TIP3    H222682   0.766   5.279   7.758 -0.4091  1.5702  0.8791
  375TIP3   OH222683   5.583   3.608   6.653 -0.6781  0.5513 -0.2407
  375TIP3    H122684   5.638   3.530   6.641 -0.3859  1.0264 -2.4499
  375TIP3    H222685   5.642   3.673   6.692 -0.0026  0.6432 -1.3677
  376TIP3   OH222686   2.158   1.679   5.901 -0.0719 -0.5971  0.0117
  376TIP3    H122687   2.134   1.746   5.965 -1.0552  1.1623 -2.0661
  376TIP3    H222688   2.211   1.724   5.836  0.6318 -2.2347 -0.6181
  377TIP3   OH222689   5.235   5.109   1.203  0.3098  0.1989  0.0499
  377TIP3    H122690   5.285   5.162   1.265  0.4831  0.4846 -0.3364
  377TIP3    H222691   5.156   5.160   1.185  1.0293  0.9079 -1.2562
  378TIP3   OH222692   4.597   5.431   1.026  0.8208  0.1585 -0.1929
  378TIP3    H122693   4.680   5.467   1.056  1.4212 -1.6521  0.4932
  378TIP3    H222694   4.544   5.425   1.105 -0.7249  2.9995 -0.8935
  379TIP3   OH222695   3.367   3.014   7.636 -0.5510 -0.3793  0.6172
  379TIP3    H122696   3.312   3.014   7.714 -1.1392 -0.8128  0.2115
  379TIP3    H222697   3.332   2.944   7.582 -0.7594  0.5408 -0.4751
  380TIP3   OH222698   5.080   5.706   0.337 -0.3390 -0.0139  0.4528
  380TIP3    H122699   4.986   5.713   0.349 -0.0417  0.6978  2.7908
  380TIP3    H222700   5.102   5.618   0.369 -0.0729  0.2847  1.1145
  381TIP3   OH222701   1.802   2.226   1.364 -0.7009 -0.4749 -0.4087
  381TIP3    H122702   1.735   2.270   1.313  0.1519  0.8085 -0.4586
  381TIP3    H222703   1.876   2.217   1.303  0.4589  1.3967  0.6576
  382TIP3   OH222704   3.248   4.621   0.157 -0.0294  0.2236  0.2393
  382TIP3    H122705   3.257   4.684   0.228  0.8497 -0.5385  0.8251
  382TIP3    H222706   3.154   4.620   0.137 -0.3413  0.2042  1.6203
  383TIP3   OH222707   0.442   6.430   1.720 -0.0476 -0.2404 -0.1344
  383TIP3    H122708   0.467   6.467   1.804 -1.7913 -1.5771  1.0404
  383TIP3    H222709   0.471   6.339   1.723  0.4355 -0.1436 -1.2514
  384TIP3   OH222710   4.105   5.399   7.515 -0.1109 -0.0974 -0.0207
  384TIP3    H122711   4.201   5.391   7.512 -0.2069 -1.1272 -0.7922
  384TIP3    H222712   4.074   5.345   7.443 -1.2941  0.0983  0.3207
  385TIP3   OH222713   1.209   4.621   7.416 -0.3503  0.2322  0.2620
  385TIP3    H122714   1.214   4.654   7.505  0.4036 -1.6738  0.9972
  385TIP3    H222715   1.295   4.641   7.378 -0.3193  0.1602  0.2952
  386TIP3   OH222716   0.263   6.069   7.563 -0.7546 -0.0666  0.5048
  386TIP3    H122717   0.184   6.034   7.604  1.2491 -1.6118  3.5014
  386TIP3    H222718   0.291   6.000   7.502 -0.1309 -1.0118  1.7959
  387TIP3   OH222719   3.622   5.019   0.460  0.0450 -0.7705 -0.0178
  387TIP3    H122720   3.596   4.987   0.546 -0.0477 -1.7409 -0.3904
  387TIP3    H222721   3.648   5.110   0.474 -0.9500 -0.6082  0.8517
  388TIP3   OH222722   6.764   4.158   0.138 -0.4916  0.1082 -0.1058
  388TIP3    H122723   6.801   4.072   0.158 -0.5276  0.3846  1.2213
  388TIP3    H222724   6.832   4.220   0.162 -1.0842  0.5261  0.5443
  389TIP3   OH222725   6.693   7.031   6.905  0.6219  0.4005  0.8058
  389TIP3    H122726   6.705   7.007   6.997 -0.5803 -1.2802  0.5603
  389TIP3    H222727   6.646   7.114   6.908 -1.8110 -0.9144  1.7841
  390TIP3   OH222728   1.705   5.995   1.415  0.2952 -0.2784 -0.7790
  390TIP3    H122729   1.754   6.076   1.426 -0.0199 -0.2387  0.5375
  390TIP3    H222730   1.771   5.926   1.423  0.1207 -0.2412  1.4490
  391TIP3   OH222731   3.218   5.222   5.692  0.2354  0.2240 -0.2294
  391TIP3    H122732   3.292   5.274   5.662 -0.2521  1.0905  0.0241
  391TIP3    H222733   3.239   5.132   5.666  0.4520  0.7312 -1.9458
  392TIP3   OH222734   2.624   4.138   6.504 -0.0911  0.0752 -0.5010
  392TIP3    H122735   2.714   4.145   6.535 -0.3610  2.0640 -0.0481
  392TIP3    H222736   2.579   4.088   6.572  0.2604  0.7575  0.2453
  393TIP3   OH222737   5.809   6.011   1.918  0.0214  0.0373  0.4730
  393TIP3    H122738   5.797   6.102   1.945  0.3063  0.6403 -1.3062
  393TIP3    H222739   5.903   5.996   1.923  0.0877  0.1874 -0.2484
  394TIP3   OH222740   1.794   3.974   7.389  0.1780  0.3177  0.1762
  394TIP3    H122741   1.802   4.030   7.467  1.1665  0.9589 -0.3597
  394TIP3    H222742   1.709   3.932   7.399 -1.3123  3.0115 -0.0815
  395TIP3   OH222743   3.954   1.034   6.427 -0.9743 -0.1727  0.3645
  395TIP3    H122744   4.011   1.039   6.504  0.1730  0.9801 -0.4995
  395TIP3    H222745   3.952   0.941   6.404 -0.2178 -0.3536  0.9874
  396TIP3   OH222746   2.970   0.102   5.940 -0.6545 -0.3864 -0.3933
  396TIP3    H122747   3.058   0.073   5.917  0.0156  0.2414  1.1859
  396TIP3    H222748   2.921   0.100   5.858  0.6395 -1.3913 -1.1791
  397TIP3   OH222749   0.558   2.662   7.628 -0.0031 -0.0785  0.5955
  397TIP3    H122750   0.524   2.736   7.578 -0.7732 -0.2734  0.8195
  397TIP3    H222751   0.651   2.680   7.637 -0.3783  1.5035  1.7293
  398TIP3   OH222752   3.198   3.305   6.954 -0.2133  0.2757 -0.2521
  398TIP3    H122753   3.241   3.278   6.873  2.2692  2.1684  0.2808
  398TIP3    H222754   3.235   3.392   6.972 -3.2152  1.3941  1.1690
  399TIP3   OH222755   1.732   6.724   7.290 -0.2981 -0.5488  0.1323
  399TIP3    H122756   1.643   6.690   7.278 -0.3747 -1.1125  1.9682
  399TIP3    H222757   1.771   6.667   7.356  2.1621 -1.5374 -2.0144
  400TIP3   OH222758   4.958   1.280   6.346  0.0653  0.1904 -0.3324
  400TIP3    H122759   5.037   1.237   6.313  0.6050  0.8173  0.1221
  400TIP3    H222760   4.932   1.341   6.277 -0.6164 -0.7278 -0.9152
  401TIP3   OH222761   0.080   6.994   7.046 -0.0281 -0.0697 -0.3438
  401TIP3    H122762   0.085   6.906   7.009  1.7811 -0.3668  0.5249
  401TIP3    H222763   0.013   7.038   6.993 -0.1408 -1.5903 -1.5403
  402TIP3   OH222764   0.318   7.066   6.243 -0.3553  0.5305 -0.2168
  402TIP3    H122765   0.293   7.042   6.153 -0.1022  1.5977 -0.5917
  402TIP3    H222766   0.368   7.147   6.233  1.3755 -0.3741  0.7218
  403TIP3   OH222767   5.788   5.673   0.479 -0.6418 -0.2492  0.3983
  403TIP3    H122768   5.726   5.603   0.459  0.6775 -1.4568  0.4938
  403TIP3    H222769   5.802   5.717   0.395  0.7581 -1.9455 -0.2971
  404TIP3   OH222770   5.894   5.717   7.110 -0.6246 -0.2915 -0.1374
  404TIP3    H122771   5.929   5.632   7.083 -0.3077  0.1393 -1.1158
  404TIP3    H222772   5.919   5.777   7.040  1.1131  1.0968  1.5238
  405TIP3   OH222773   3.325   7.116   7.766  0.8427 -0.0094  0.4133
  405TIP3    H122774   3.269   7.059   7.819  1.3909  1.4140  2.6315
  405TIP3    H222775   3.414   7.090   7.789  1.1388 -0.5740 -1.2222
  406TIP3   OH222776   1.290   2.143   1.710 -0.6124 -0.2753 -0.1841
  406TIP3    H122777   1.362   2.080   1.721 -1.1579 -0.9850 -0.6061
  406TIP3    H222778   1.276   2.177   1.798  1.3965  1.1904 -0.3568
  407TIP3   OH222779   2.642   0.200   6.260  0.1161 -0.1869  0.1214
  407TIP3    H122780   2.620   0.112   6.289 -0.3595  0.4968  2.0251
  407TIP3    H222781   2.578   0.220   6.192 -0.5047 -0.8893  0.4849
  408TIP3   OH222782   0.687   0.541   7.722 -0.0750 -0.2846  0.0812
  408TIP3    H122783   0.752   0.601   7.760  0.1791 -0.5017 -0.0103
  408TIP3    H222784   0.674   0.573   7.632 -0.9155  0.4252  0.4373
  409TIP3   OH222785   2.138   3.732   1.190  0.8022  0.4599 -0.0133
  409TIP3    H122786   2.091   3.789   1.130  1.7193 -0.1814 -1.3723
  409TIP3    H222787   2.143   3.782   1.272 -1.3945  0.9162 -0.0968
  410TIP3   OH222788   1.260   0.685   1.784 -0.0484  0.2020 -0.4118
  410TIP3    H122789   1.185   0.633   1.758 -2.3416  0.9256  3.9842
  410TIP3    H222790   1.314   0.626   1.836  0.5600  0.6691 -0.4955
  411TIP3   OH222791   2.499   5.162   6.498 -0.7137  0.4687  0.2216
  411TIP3    H122792   2.462   5.126   6.579 -0.0187  0.4622  0.5451
  411TIP3    H222793   2.525   5.085   6.448  1.0147  0.4941  1.0281
  412TIP3   OH222794   0.906   2.868   1.687  0.1479 -0.6529  0.0496
  412TIP3    H122795   0.971   2.911   1.741  0.8908 -0.3054 -1.0893
  412TIP3    H222796   0.835   2.932   1.680 -0.0880 -0.8146  0.8266
  413TIP3   OH222797   3.757   3.495   6.484 -1.0294  0.2278 -0.0914
  413TIP3    H122798   3.790   3.486   6.394 -0.1862  0.0311  0.2229
  413TIP3    H222799   3.790   3.417   6.528  1.2295  1.7688  1.1705
  414TIP3   OH222800   0.466   6.290   0.065  0.1816 -0.2840  0.2822
  414TIP3    H122801   0.420   6.206   0.073 -1.5427  0.6599  0.9994
  414TIP3    H222802   0.558   6.268   0.078 -0.1684 -2.1146  0.0190
  415TIP3   OH222803   2.809   1.573   6.886 -0.0927 -0.1187  0.0828
  415TIP3    H122804   2.826   1.640   6.820 -1.5826 -0.5898 -0.8261
  415TIP3    H222805   2.718   1.586   6.912  0.1345 -0.6544  1.2385
  416TIP3   OH222806   1.622   3.944   5.913  0.1486 -0.5741  0.3549
  416TIP3    H122807   1.709   3.927   5.879  0.5348 -0.8749  1.4631
  416TIP3    H222808   1.563   3.919   5.842  0.9963  1.9466 -1.3850
  417TIP3   OH222809   2.811   0.775   5.593  0.3731  0.3807  0.2735
  417TIP3    H122810   2.802   0.861   5.554  1.1276  0.2534 -0.1963
  417TIP3    H222811   2.903   0.769   5.618  0.3044 -0.2458  0.4063
  418TIP3   OH222812   6.180   2.113   7.843  0.0759 -0.2575  0.0355
  418TIP3    H122813   6.156   2.122   7.751  0.9141 -0.5359 -0.2214
  418TIP3    H222814   6.231   2.191   7.863  0.0067 -0.2605  0.2267
  419TIP3   OH222815   0.012   4.467   0.135  0.0773  1.0648  0.3567
  419TIP3    H122816   0.042   4.401   0.073 -1.4023  0.4545  0.2483
  419TIP3    H222817   0.072   4.540   0.124  0.8983  0.2756 -0.5245
  420TIP3   OH222818   3.917   3.218   0.290  0.2453  0.6870  0.4936
  420TIP3    H122819   3.865   3.238   0.212  1.1806 -0.8248 -0.5931
  420TIP3    H222820   3.862   3.244   0.364 -1.3406  0.6827 -0.6326
  421TIP3   OH222821   2.555   0.511   1.462 -0.1831  0.8521 -1.0366
  421TIP3    H122822   2.472   0.465   1.448  1.3234 -1.9725 -1.3746
  421TIP3    H222823   2.529   0.595   1.500 -3.0788 -1.0006  1.5918
  422TIP3   OH222824   3.165   6.122   7.535  0.2271 -0.0816 -0.1897
  422TIP3    H122825   3.251   6.159   7.553  0.7602 -1.4029  0.1092
  422TIP3    H222826   3.175   6.076   7.452  0.3397 -1.7838  0.7332
  423TIP3   OH222827   3.681   1.377   5.725  0.1642 -0.1156 -0.1252
  423TIP3    H122828   3.771   1.406   5.711  0.6325 -0.7893  1.2839
  423TIP3    H222829   3.638   1.451   5.769 -0.0656  0.3006 -1.0183
  424TIP3   OH222830   5.915   2.099   6.129  0.0734 -0.3004 -0.3583
  424TIP3    H122831   5.861   2.103   6.207  2.0494 -1.0500  1.1133
  424TIP3    H222832   5.892   2.178   6.080 -1.2420  0.1551  0.9309
  425TIP3   OH222833   3.905   4.110   1.403  0.0854  0.5694  0.1622
  425TIP3    H122834   3.997   4.133   1.392  1.1785 -2.6116  1.4920
  425TIP3    H222835   3.891   4.036   1.344 -1.8752  1.3832 -0.5081
  426TIP3   OH222836   7.028   3.684   6.907 -0.3392 -0.1772 -0.4260
  426TIP3    H122837   7.025   3.719   6.818  1.1152 -1.5886 -1.0912
  426TIP3    H222838   7.100   3.621   6.905  0.0381  0.0981  1.8910
  427TIP3   OH222839   5.305   0.157   6.519 -0.0633  0.3706 -0.0517
  427TIP3    H122840   5.389   0.194   6.547 -0.4212  0.8335  0.4131
  427TIP3    H222841   5.311   0.155   6.423  1.0759 -1.0134  0.0224
  428TIP3   OH222842   2.305   3.279   0.920 -0.1545  0.4477 -0.4033
  428TIP3    H122843   2.283   3.264   1.012 -0.2380 -0.3791 -0.5485
  428TIP3    H222844   2.299   3.374   0.909 -2.3280  0.4079 -0.0855
  429TIP3   OH222845   2.147   6.767   0.186 -0.0034  0.2284  0.3672
  429TIP3    H122846   2.235   6.743   0.157 -0.1379 -0.3568  0.4392
  429TIP3    H222847   2.096   6.774   0.106 -0.0652 -0.1413  0.3726
  430TIP3   OH222848   3.611   2.779   8.004  0.2770 -0.2747 -0.1714
  430TIP3    H122849   3.697   2.774   7.963  0.2741  1.3826 -0.4469
  430TIP3    H222850   3.614   2.860   8.055 -0.6294 -0.9477  0.9864
  431TIP3   OH222851   1.800   6.635   0.644 -0.0306  0.4878 -0.5740
  431TIP3    H122852   1.740   6.633   0.718  0.6274  0.3127 -0.0296
  431TIP3    H222853   1.788   6.550   0.600 -1.8443  1.3471 -1.8613
  432TIP3   OH222854   2.793   5.537   1.182  0.2816  0.2201  0.4984
  432TIP3    H122855   2.704   5.503   1.172  0.5906 -0.4046 -0.2830
  432TIP3    H222856   2.800   5.608   1.119  0.5475 -0.1850  0.0654
  433TIP3   OH222857   2.261   2.124   7.237  0.0261 -0.2057  0.3894
  433TIP3    H122858   2.261   2.128   7.142  0.2280 -0.7928  0.3621
  433TIP3    H222859   2.352   2.103   7.261 -0.4430 -2.0961  0.6091
  434TIP3   OH222860   1.315   2.890   1.570  1.1509 -0.2171 -0.2054
  434TIP3    H122861   1.238   2.845   1.604  0.2853  1.6789  0.5338
  434TIP3    H222862   1.368   2.911   1.647 -0.2410  3.0664  0.0378
  435TIP3   OH222863   2.329   4.748   1.258  0.4242 -0.4635  0.2711
  435TIP3    H122864   2.397   4.729   1.194 -1.6142 -1.0160 -1.8418
  435TIP3    H222865   2.324   4.669   1.312  0.8229 -0.7639 -0.1295
  436TIP3   OH222866   2.604   6.681   7.676  0.0249  0.1975 -0.1711
  436TIP3    H122867   2.529   6.656   7.622  0.8545 -0.7729 -0.9297
  436TIP3    H222868   2.678   6.681   7.615  0.3955  2.8683  0.1774
  437TIP3   OH222869   4.200   5.969   6.881 -0.0031  0.3712  0.0775
  437TIP3    H122870   4.157   5.980   6.796 -0.3295  0.4379  0.2478
  437TIP3    H222871   4.288   5.938   6.860 -0.2238 -0.0353 -0.2696
  438TIP3   OH222872   2.749   5.470   0.187 -0.3857 -0.0182  0.5192
  438TIP3    H122873   2.780   5.502   0.103 -2.5403 -2.7732 -1.4852
  438TIP3    H222874   2.690   5.539   0.218  0.7788  1.2292  0.1016
  439TIP3   OH222875   0.144   2.355   7.235 -0.2935 -0.2686  0.1547
  439TIP3    H122876   0.151   2.394   7.323  0.0189 -1.2363  0.5791
  439TIP3    H222877   0.155   2.429   7.175 -0.6313  0.4303  0.9259
  440TIP3   OH222878   2.715   5.264   7.828  0.3522  0.2378  0.0610
  440TIP3    H122879   2.760   5.254   7.744  2.0960 -1.7270  1.1421
  440TIP3    H222880   2.676   5.178   7.844  0.0431  0.5875  1.2529
  441TIP3   OH222881   4.854   7.067   7.601  0.0051 -0.1811  0.6317
  441TIP3    H122882   4.855   7.122   7.679 -1.2193  1.9475 -0.7468
  441TIP3    H222883   4.843   6.978   7.635  2.6504  0.2426  2.9791
  442TIP3   OH222884   7.144   2.369   2.087  0.2710  0.5593 -0.0230
  442TIP3    H122885   7.229   2.403   2.058  1.6776 -0.5087  2.4881
  442TIP3    H222886   7.140   2.391   2.180 -0.4669 -2.6188  0.8169
  443TIP3   OH222887   0.004   2.910   7.767 -0.0252  0.0724  0.6479
  443TIP3    H122888   0.096   2.896   7.743 -0.2182 -0.7846  0.3626
  443TIP3    H222889  -0.042   2.835   7.730 -0.7664  0.2135  1.2584
  444TIP3   OH222890   4.071   0.495   6.100  0.2675 -0.4466 -0.1424
  444TIP3    H122891   4.085   0.573   6.047 -1.1269  0.7162  1.1266
  444TIP3    H222892   4.089   0.422   6.040  1.5588  0.8074 -1.3685
  445TIP3   OH222893   6.928   0.798   8.002  0.0567 -0.3680  0.2825
  445TIP3    H122894   6.943   0.705   8.022  0.5744 -0.5570 -0.9119
  445TIP3    H222895   6.910   0.800   7.908  0.0773  0.7500  0.2874
  446TIP3   OH222896   6.915   2.440   5.769 -0.1614 -0.3437  0.6239
  446TIP3    H122897   6.854   2.430   5.696 -1.1898 -2.1818  1.6466
  446TIP3    H222898   6.935   2.534   5.772 -0.3885 -0.1811 -1.7375
  447TIP3   OH222899   2.363   3.967   6.941  0.1435 -0.0512 -0.6339
  447TIP3    H122900   2.378   3.876   6.967  1.4645  0.1890 -0.4557
  447TIP3    H222901   2.308   3.962   6.864  1.2472 -1.0810 -1.3899
  448TIP3   OH222902   0.447   2.893   1.276 -0.0519 -0.2648  0.1860
  448TIP3    H122903   0.452   2.878   1.182 -1.5064 -0.4818  0.1216
  448TIP3    H222904   0.535   2.871   1.308  0.3693 -0.4980 -1.0694
  449TIP3   OH222905   1.574   5.564   1.229 -0.1749  0.1927  0.5752
  449TIP3    H122906   1.616   5.577   1.314 -1.5994  2.5691  1.0016
  449TIP3    H222907   1.560   5.470   1.223  0.8115 -0.1265  2.5514
  450TIP3   OH222908   6.604   4.236   1.228  0.6675 -0.0978 -0.3485
  450TIP3    H122909   6.529   4.211   1.283 -0.4510  1.0862 -1.2544
  450TIP3    H222910   6.598   4.178   1.152  0.8119 -0.1815 -0.2941
  451TIP3   OH222911   3.233   2.769   7.560  0.4557  0.4759 -0.0359
  451TIP3    H122912   3.156   2.825   7.574  0.4382  0.3520  0.4030
  451TIP3    H222913   3.201   2.696   7.508  0.3345  0.5623 -0.0819
  452TIP3   OH222914   4.127   3.649   7.598 -0.4416 -0.3478 -0.5272
  452TIP3    H122915   4.056   3.703   7.564 -1.1057 -1.5985 -1.2073
  452TIP3    H222916   4.098   3.622   7.685 -0.9262 -1.0275 -0.8858
  453TIP3   OH222917   6.942   4.250   7.598  0.2291  0.1964  0.4216
  453TIP3    H122918   6.872   4.208   7.550  0.7008 -1.3434  1.0224
  453TIP3    H222919   6.911   4.255   7.688  0.2633  0.9757  0.4013
  454TIP3   OH222920   2.367   6.412   6.132 -0.1855 -0.4037  0.5061
  454TIP3    H122921   2.387   6.331   6.085  1.6794 -0.1897  0.8455
  454TIP3    H222922   2.421   6.478   6.088  1.1829 -0.0959  2.5072
  455TIP3   OH222923   1.631   6.613   0.864  0.1988 -0.2662  0.0107
  455TIP3    H122924   1.623   6.670   0.941 -0.9656 -0.8664  0.3614
  455TIP3    H222925   1.554   6.556   0.868 -2.0395  2.0445 -3.5274
  456TIP3   OH222926   3.353   0.550   0.568  0.2207  0.1450  0.6957
  456TIP3    H122927   3.316   0.629   0.528  2.4586  0.0338 -1.9650
  456TIP3    H222928   3.428   0.581   0.617  0.0934 -0.1716  1.0947
  457TIP3   OH222929   4.548   6.350   1.682  0.2467 -0.3052  0.0534
  457TIP3    H122930   4.580   6.435   1.651  0.0570  0.0448  0.8076
  457TIP3    H222931   4.476   6.371   1.741  1.0178 -0.9229  1.2592
  458TIP3   OH222932   1.632   4.597   7.040  0.7166 -0.0235  0.4329
  458TIP3    H122933   1.721   4.614   7.008  0.8697 -1.2269  0.1701
  458TIP3    H222934   1.632   4.505   7.063  0.2860  0.5499  2.9502
  459TIP3   OH222935   0.157   3.844   7.054 -0.1304 -0.4711  0.3387
  459TIP3    H122936   0.122   3.760   7.083  1.0145 -0.4505  1.9335
  459TIP3    H222937   0.206   3.877   7.130  1.2661  0.6031 -0.9660
  460TIP3   OH222938   0.859   6.936   1.178 -0.0547 -0.0463 -0.3607
  460TIP3    H122939   0.856   6.842   1.158  1.1345  0.0053 -0.9109
  460TIP3    H222940   0.912   6.973   1.108 -0.7816  1.0990 -0.3271
  461TIP3   OH222941   4.239   1.711   6.850  0.0322  0.1254  0.2254
  461TIP3    H122942   4.300   1.785   6.852 -1.0976  1.0943 -0.1004
  461TIP3    H222943   4.290   1.637   6.883  1.3388  0.9338  0.0804
  462TIP3   OH222944   1.377   5.556   7.471  0.0855 -0.2904  0.3420
  462TIP3    H122945   1.465   5.583   7.497  0.3250 -0.1389 -0.6075
  462TIP3    H222946   1.385   5.532   7.379 -0.9690  0.1978  0.1062
  463TIP3   OH222947   5.916   2.270   0.578  0.1161  0.6484 -0.1445
  463TIP3    H122948   5.991   2.329   0.585  0.6143 -0.1257  1.4720
  463TIP3    H222949   5.840   2.326   0.595  0.2917  1.4350 -1.7804
  464TIP3   OH222950   5.480   1.725   7.339 -0.0587  0.1954 -0.4556
  464TIP3    H122951   5.562   1.682   7.314 -0.6859 -1.0948 -0.3781
  464TIP3    H222952   5.507   1.811   7.372  1.2002  0.0443 -1.0315
  465TIP3   OH222953   2.220   0.793   6.259 -0.3749  0.1424 -0.3354
  465TIP3    H122954   2.259   0.880   6.253 -0.0021  0.2650  2.4832
  465TIP3    H222955   2.133   0.802   6.222  0.5213  1.0530 -2.3699
  466TIP3   OH222956   2.753   0.211   5.159 -0.6902  0.6413  0.2881
  466TIP3    H122957   2.784   0.225   5.249  1.3933  0.5226 -0.3513
  466TIP3    H222958   2.729   0.119   5.156  1.2978  0.0672  0.2237
  467TIP3   OH222959   0.350   1.469   1.884 -0.3067 -0.3403 -0.3938
  467TIP3    H122960   0.412   1.402   1.913  0.2217  0.9553  1.6685
  467TIP3    H222961   0.381   1.550   1.924 -2.1620  0.7520 -1.0341
  468TIP3   OH222962   3.333   3.523   5.651 -0.3470  0.2971  0.2994
  468TIP3    H122963   3.309   3.470   5.576 -1.3843  0.7651  0.2796
  468TIP3    H222964   3.387   3.466   5.706 -0.5864 -0.4272 -0.2193
  469TIP3   OH222965   1.877   1.811   6.992  0.0452 -0.3400  0.9598
  469TIP3    H122966   1.863   1.717   6.988 -0.1390 -0.2818  0.1215
  469TIP3    H222967   1.961   1.821   7.037  0.2987 -0.9217  0.6226
  470TIP3   OH222968   6.625   3.230   7.813  0.2132  0.0535 -0.6651
  470TIP3    H122969   6.616   3.206   7.905  1.4004 -0.3928 -0.6447
  470TIP3    H222970   6.698   3.292   7.812 -0.9258  1.4205 -1.0964
  471TIP3   OH222971   4.708   4.514   7.500  0.1178  0.3679  0.1800
  471TIP3    H122972   4.754   4.523   7.583  0.0800 -0.2012  0.2638
  471TIP3    H222973   4.745   4.434   7.461 -0.4593  0.1728  0.0321
  472TIP3   OH222974   6.138   2.298   7.373 -0.1264 -0.2788 -0.3186
  472TIP3    H122975   6.060   2.244   7.386 -0.1106  0.0496  1.3391
  472TIP3    H222976   6.105   2.387   7.365  0.0272 -0.2302 -0.4103
  473TIP3   OH222977   4.070   0.834   7.139  0.0513  0.2613 -0.1186
  473TIP3    H122978   4.071   0.874   7.053 -0.8762  0.2930 -0.1161
  473TIP3    H222979   4.031   0.900   7.196  1.6616  0.6809  0.5595
  474TIP3   OH222980   4.300   0.860   0.860  0.0695  0.3719 -0.2030
  474TIP3    H122981   4.395   0.856   0.876  0.2030 -2.0299 -1.1318
  474TIP3    H222982   4.262   0.804   0.926 -0.5277 -0.0586 -0.8982
  475TIP3   OH222983   1.884   5.056   6.999  0.0008 -0.7038  0.3976
  475TIP3    H122984   1.794   5.081   7.020  0.0963 -0.3768  0.4265
  475TIP3    H222985   1.934   5.137   7.007  0.1016 -0.6483 -0.7486
  476TIP3   OH222986   3.866   1.219   7.921  0.4687 -0.1886  0.0670
  476TIP3    H122987   3.835   1.132   7.896  1.2836 -0.6015  0.4595
  476TIP3    H222988   3.937   1.203   7.983  1.8510  0.6963 -1.2107
  477TIP3   OH222989   6.519   6.552   0.400  0.5999  0.2012  0.3851
  477TIP3    H122990   6.591   6.489   0.394 -0.4138 -0.9199 -0.4368
  477TIP3    H222991   6.447   6.503   0.438  0.4410  1.4995  1.8626
  478TIP3   OH222992   4.521   4.613   7.027  0.0711  0.3335  0.5760
  478TIP3    H122993   4.430   4.632   7.004  0.0570  0.6501  0.8966
  478TIP3    H222994   4.515   4.548   7.097  0.1015 -0.0386  0.2359
  479TIP3   OH222995   3.043   5.695   1.695  0.5516 -0.2374  0.0546
  479TIP3    H122996   3.038   5.781   1.652 -1.2492 -0.0752  0.4825
  479TIP3    H222997   2.951   5.668   1.704  0.9418 -1.0088  2.3029
  480TIP3   OH222998   3.283   6.591   1.687  0.7542 -0.0958  0.1057
  480TIP3    H122999   3.368   6.548   1.688  1.6342  1.5060  2.6010
  480TIP3    H223000   3.238   6.557   1.765  0.0032  0.7280  0.0550
  481TIP3   OH223001   3.362   5.976   0.327 -0.3421  0.0945 -0.2141
  481TIP3    H123002   3.269   5.991   0.342  0.0201  0.7359  1.7501
  481TIP3    H223003   3.400   5.969   0.415  1.4157 -0.4836 -0.9642
  482TIP3   OH223004   5.790   0.893   6.746 -0.3716  0.0175  0.1584
  482TIP3    H123005   5.735   0.968   6.726  1.0407  1.0407 -0.0270
  482TIP3    H223006   5.872   0.931   6.778  0.7441 -1.4137 -0.8756
  483TIP3   OH223007   5.098   2.604   0.157  0.0324  0.1515  0.1848
  483TIP3    H123008   5.086   2.648   0.072  1.5051  1.5228  0.6412
  483TIP3    H223009   5.193   2.609   0.173 -0.2769  0.3477  2.1385
  484TIP3   OH223010   4.499   4.247   1.085 -0.0812  0.2285 -0.9104
  484TIP3    H123011   4.443   4.247   1.007  0.5881  0.0859 -1.4018
  484TIP3    H223012   4.441   4.270   1.157 -0.6785  0.5067 -1.4786
  485TIP3   OH223013   0.156   2.236   1.334  0.2489  0.1029  0.0412
  485TIP3    H123014   0.076   2.185   1.345  0.0132  0.5009  0.1949
  485TIP3    H223015   0.133   2.323   1.366  0.8281  0.1398  0.3639
  486TIP3   OH223016   5.152   0.009   7.886  0.3763 -0.7131 -0.2208
  486TIP3    H123017   5.219   0.032   7.950 -0.6539 -0.2929  0.7453
  486TIP3    H223018   5.090   0.082   7.889  0.1977 -0.7794 -1.5664
  487TIP3   OH223019   5.511   3.905   6.708 -0.3986  0.1320  0.3256
  487TIP3    H123020   5.514   3.905   6.612 -1.7258  1.6204  0.2490
  487TIP3    H223021   5.424   3.872   6.729  0.2891 -1.2734  1.0826
  488TIP3   OH223022   5.760   4.411   6.455  0.2757  0.2649  0.5839
  488TIP3    H123023   5.831   4.422   6.392 -0.7528  0.7012 -0.5334
  488TIP3    H223024   5.689   4.466   6.422 -0.9971 -1.0265  1.0239
  489TIP3   OH223025   6.729   4.767   5.691  0.5595  0.4623 -0.1115
  489TIP3    H123026   6.775   4.772   5.607  0.6900 -2.7011 -0.3667
  489TIP3    H223027   6.637   4.783   5.670  0.9226  2.4082 -0.3477
  490TIP3   OH223028   3.912   0.330   6.438  0.0019 -0.7229  0.1274
  490TIP3    H123029   3.995   0.375   6.453 -0.4154  0.4594 -0.9678
  490TIP3    H223030   3.921   0.290   6.352 -0.4578 -0.8697  0.1421
  491TIP3   OH223031   6.016   6.348   2.079  0.7950 -0.3732 -0.0036
  491TIP3    H123032   5.940   6.299   2.048  0.2435 -0.2744  1.1638
  491TIP3    H223033   5.982   6.434   2.101  1.3221 -0.2047  0.1729
  492TIP3   OH223034   1.367   3.963   7.680 -0.8095 -0.1084 -0.0076
  492TIP3    H123035   1.406   3.895   7.626 -0.6660  0.0805 -0.1463
  492TIP3    H223036   1.320   4.019   7.618  1.0432  1.2918 -0.2521
  493TIP3   OH223037   1.281   3.278   1.029 -0.0194 -0.2112 -0.7459
  493TIP3    H123038   1.339   3.348   1.001 -0.9953 -0.3160 -3.2793
  493TIP3    H223039   1.340   3.209   1.060  0.9867  1.2612  0.7707
  494TIP3   OH223040   0.814   1.692   0.083  0.0342  0.2619 -0.3929
  494TIP3    H123041   0.848   1.657   0.165 -0.6085  0.1251 -0.1806
  494TIP3    H223042   0.719   1.692   0.094  0.0006  1.8315 -0.4843
  495TIP3   OH223043   3.169   1.351   0.147  0.5330 -0.1228 -0.2633
  495TIP3    H123044   3.182   1.418   0.079  0.2362  0.7073  0.4805
  495TIP3    H223045   3.087   1.307   0.122  0.3534  0.2662 -0.3653
  496TIP3   OH223046   3.333   6.663   6.335 -0.5971  0.1541 -0.6337
  496TIP3    H123047   3.362   6.710   6.412  0.5752 -1.0373 -0.3198
  496TIP3    H223048   3.391   6.693   6.265 -1.7218  1.3087 -1.1177
  497TIP3   OH223049   0.013   3.362   5.905 -0.9761 -0.1614 -0.4904
  497TIP3    H123050   0.005   3.270   5.883 -0.7644  0.0024 -1.2846
  497TIP3    H223051   0.105   3.374   5.926 -0.9200 -0.0513 -0.7895
  498TIP3   OH223052   2.432   2.468   7.699  0.5602 -0.0047 -0.7320
  498TIP3    H123053   2.349   2.437   7.663 -0.3831  0.2003  1.1572
  498TIP3    H223054   2.473   2.515   7.626 -0.7522 -0.5145 -1.8483
  499TIP3   OH223055   0.733   6.938   5.819  1.1901  0.1416 -0.2842
  499TIP3    H123056   0.705   7.023   5.785 -0.9698 -0.1393  0.5960
  499TIP3    H223057   0.717   6.877   5.747 -1.1919 -0.0918  0.3309
  500TIP3   OH223058   5.998   5.876   5.660 -0.2671 -0.1754  0.1301
  500TIP3    H123059   6.058   5.806   5.634  0.9134  0.5909  0.6730
  500TIP3    H223060   6.031   5.953   5.614 -0.5450  0.3541  0.8007
  501TIP3   OH223061   0.811   0.144   6.022 -0.4918 -0.4189  0.1339
  501TIP3    H123062   0.842   0.230   5.995 -0.5307 -0.2894  0.4979
  501TIP3    H223063   0.727   0.134   5.976  0.5408 -1.2140 -1.6926
  502TIP3   OH223064   3.305   3.399   6.279 -0.3605 -0.6477 -0.2063
  502TIP3    H123065   3.392   3.400   6.318 -0.5302 -0.5165  0.1806
  502TIP3    H223066   3.316   3.356   6.195  0.6453  1.9582 -1.5231
  503TIP3   OH223067   3.235   5.701   1.389 -0.0030  0.1526 -0.7347
  503TIP3    H123068   3.302   5.644   1.352  0.5528  1.4034 -1.7444
  503TIP3    H223069   3.156   5.648   1.389  0.9456 -1.3318  0.4137
  504TIP3   OH223070   3.675   2.001   0.386  0.1500  0.1755 -0.1925
  504TIP3    H123071   3.620   2.009   0.309 -1.3241  0.7242  0.8797
  504TIP3    H223072   3.757   2.043   0.361 -0.4731  0.7619 -1.3057
  505TIP3   OH223073   0.745   3.016   6.471 -0.8615 -0.0105  0.2364
  505TIP3    H123074   0.654   3.044   6.458 -1.3315 -1.7009 -0.3902
  505TIP3    H223075   0.798   3.088   6.436 -1.8920  1.6673  1.9672
  506TIP3   OH223076   6.800   4.096   6.179 -0.6700 -0.8586  0.2775
  506TIP3    H123077   6.824   4.106   6.087  2.7463 -1.4957  0.9716
  506TIP3    H223078   6.798   4.186   6.212  1.5123 -0.7252  0.2360
  507TIP3   OH223079   2.437   4.207   0.611  0.1223  0.0466  0.3352
  507TIP3    H123080   2.426   4.117   0.640  0.8157 -0.4308 -0.8253
  507TIP3    H223081   2.530   4.225   0.623  0.0394  0.5154  0.3032
  508TIP3   OH223082   1.647   4.803   1.214  0.2282  0.1896  0.4823
  508TIP3    H123083   1.734   4.835   1.191  0.8201 -0.6700  1.4215
  508TIP3    H223084   1.618   4.754   1.137  0.8356 -0.0102  0.3792
  509TIP3   OH223085   6.123   4.937   6.922 -0.0603 -0.1679  0.2344
  509TIP3    H123086   6.072   5.002   6.969  0.4985 -0.0369  0.6678
  509TIP3    H223087   6.058   4.882   6.879 -0.5452  0.3973  0.2372
  510TIP3   OH223088   3.415   5.652   1.989  0.1690 -0.8356 -0.0812
  510TIP3    H123089   3.399   5.648   2.084 -0.0371 -1.2270 -0.1330
  510TIP3    H223090   3.506   5.681   1.983  0.1861 -0.8099  0.2388
  511TIP3   OH223091   5.928   6.650   6.921  0.3887  0.1301  0.0020
  511TIP3    H123092   5.837   6.642   6.892  0.0029  0.8909  0.9573
  511TIP3    H223093   5.928   6.615   7.010  0.6154  1.7993  0.7016
  512TIP3   OH223094   0.412   5.766   7.920  0.2655  0.1212  0.2565
  512TIP3    H123095   0.337   5.824   7.937  0.2408 -0.0686  0.8026
  512TIP3    H223096   0.488   5.824   7.922  0.1278  0.3264 -0.3707
  513TIP3   OH223097   0.744   5.063   0.334 -0.1766  0.4848 -0.4235
  513TIP3    H123098   0.685   5.092   0.404  0.5187  1.3034 -0.1640
  513TIP3    H223099   0.815   5.126   0.335  2.4550 -2.2098  1.4493
  514TIP3   OH223100   1.076   0.141   0.662 -0.2218  0.6807 -0.1151
  514TIP3    H123101   1.169   0.126   0.674  0.2520  3.7042  0.8327
  514TIP3    H223102   1.035   0.103   0.740  0.0707 -1.3345 -0.8943
  515TIP3   OH223103   0.826   4.844   7.638 -0.1107  0.2500  0.0846
  515TIP3    H123104   0.769   4.906   7.682 -0.7172  0.0736 -0.4306
  515TIP3    H223105   0.914   4.866   7.668 -0.5831 -0.6083  2.3012
  516TIP3   OH223106   4.829   4.568   1.083  0.1697  1.0402 -0.2688
  516TIP3    H123107   4.881   4.523   1.149  1.4069 -1.1879 -2.6179
  516TIP3    H223108   4.739   4.542   1.102  0.6947 -1.1114 -0.4983
  517TIP3   OH223109   6.567   0.133   7.480  0.4419 -0.8349  0.2516
  517TIP3    H123110   6.535   0.091   7.560  0.1036  1.0268  1.1525
  517TIP3    H223111   6.543   0.225   7.491  0.4976 -0.5153 -1.9569
  518TIP3   OH223112   1.042   6.457   7.858  0.3826 -0.2800  0.1661
  518TIP3    H123113   1.007   6.375   7.824  1.9275  0.0274 -2.4363
  518TIP3    H223114   0.995   6.525   7.811 -0.9257  0.4328  2.3448
  519TIP3   OH223115   5.869   3.333   6.419  0.0085  0.1340  0.2526
  519TIP3    H123116   5.909   3.295   6.341  0.4108 -0.3979  0.7106
  519TIP3    H223117   5.776   3.341   6.398  0.1399  0.1266 -0.3272
  520TIP3   OH223118   4.046   4.598   1.805 -0.2348 -0.0664  0.1427
  520TIP3    H123119   4.137   4.572   1.808 -0.5877 -1.3870 -0.1543
  520TIP3    H223120   3.997   4.522   1.836 -1.3670 -0.1825 -1.7501
  521TIP3   OH223121   4.647   6.760   6.673  0.3469 -0.5752 -0.9269
  521TIP3    H123122   4.718   6.697   6.661 -0.4018 -1.6778  0.2019
  521TIP3    H223123   4.578   6.729   6.615  0.4421 -0.0352 -1.3349
  522TIP3   OH223124   7.005   0.968   1.786  0.2005  0.6390  0.1827
  522TIP3    H123125   7.044   1.052   1.812 -0.3926  0.6485  1.0852
  522TIP3    H223126   6.912   0.988   1.772  0.0639  0.1438  0.3654
  523TIP3   OH223127   0.144   3.217   6.140 -0.0821 -0.1314  0.4625
  523TIP3    H123128   0.191   3.274   6.080 -2.8889 -0.5527 -2.3834
  523TIP3    H223129   0.150   3.130   6.100  0.1120 -0.9608  2.2014
  524TIP3   OH223130   3.970   4.484   7.794  0.0064 -0.1712  0.6843
  524TIP3    H123131   3.926   4.529   7.722 -0.9044  0.0433  1.3611
  524TIP3    H223132   3.901   4.434   7.837  0.5253 -0.2188  1.4725
  525TIP3   OH223133   5.428   2.658   6.857 -0.6483  0.2041  0.1132
  525TIP3    H123134   5.512   2.611   6.858 -0.7590 -0.1707 -2.1793
  525TIP3    H223135   5.362   2.589   6.850 -0.9481  0.5995 -1.1469
  526TIP3   OH223136   6.374   4.006   6.474 -0.1862  0.4813 -0.1751
  526TIP3    H123137   6.296   4.047   6.437 -0.6521 -1.2451 -1.2560
  526TIP3    H223138   6.432   3.992   6.399 -0.1688 -1.0199  0.0900
  527TIP3   OH223139   3.956   6.243   8.005 -0.2438  0.2161  0.1124
  527TIP3    H123140   4.027   6.307   8.016  0.3831 -0.3743 -0.4356
  527TIP3    H223141   3.968   6.209   7.917  0.8538 -2.3026  1.1293
  528TIP3   OH223142   0.049   4.659   6.959  0.2066 -0.0678  0.0545
  528TIP3    H123143   0.006   4.600   7.020 -0.0766 -0.8392 -0.8689
  528TIP3    H223144  -0.017   4.726   6.940 -0.0596 -0.4007 -0.1948
  529TIP3   OH223145   2.272   6.887   7.935 -0.1046 -0.0437  0.2243
  529TIP3    H123146   2.321   6.818   7.979 -0.3779  0.4519  1.3696
  529TIP3    H223147   2.319   6.903   7.854  0.1351 -1.3542  0.0782
  530TIP3   OH223148   4.048   1.781   0.710 -0.2936  0.3423 -0.1908
  530TIP3    H123149   3.957   1.750   0.704 -0.1690 -0.5789  1.8259
  530TIP3    H223150   4.091   1.718   0.769  1.1928  1.7519  0.3013
  531TIP3   OH223151   5.339   2.571   1.443 -0.4704 -0.1431 -0.3063
  531TIP3    H123152   5.393   2.553   1.365 -0.6633  0.2280 -0.5270
  531TIP3    H223153   5.251   2.585   1.408 -0.6643 -0.5116  0.0333
  532TIP3   OH223154   5.841   3.808   1.497 -0.6873  0.4669 -0.4438
  532TIP3    H123155   5.899   3.754   1.444  0.5192  1.1495  0.1427
  532TIP3    H223156   5.754   3.792   1.461  0.0307  0.6102 -2.3726
  533TIP3   OH223157   0.126   3.740   5.766  0.2766  0.0348 -0.6363
  533TIP3    H123158   0.084   3.668   5.719  0.0784  0.5066 -1.1891
  533TIP3    H223159   0.209   3.703   5.797 -0.5840 -0.9558  0.6015
  534TIP3   OH223160   4.404   5.126   1.674 -0.2343  0.5933  0.0323
  534TIP3    H123161   4.364   5.041   1.691 -0.1275  0.1360 -1.7992
  534TIP3    H223162   4.381   5.179   1.751 -0.6380 -0.9455  1.0266
  535TIP3   OH223163   3.463   5.921   0.625 -0.5894 -0.0642  0.0579
  535TIP3    H123164   3.484   5.835   0.661 -2.2308  0.3128  2.1172
  535TIP3    H223165   3.371   5.935   0.649 -1.2344  1.1144 -2.6844
  536TIP3   OH223166   5.347   3.103   1.055  0.5328  0.1575  0.3772
  536TIP3    H123167   5.312   3.036   0.996 -0.9342  2.1581 -1.1776
  536TIP3    H223168   5.360   3.057   1.138 -2.5148 -1.5582  0.0500
  537TIP3   OH223169   0.701   2.979   6.766 -0.4391 -0.6331 -0.1476
  537TIP3    H123170   0.767   3.005   6.830 -2.4571  0.0714  1.7858
  537TIP3    H223171   0.688   3.058   6.712 -0.8375 -0.2303  0.5243
  538TIP3   OH223172   5.754   5.418   0.204 -0.7069 -0.2678 -0.1609
  538TIP3    H123173   5.680   5.435   0.261 -0.4558  0.5538 -0.0670
  538TIP3    H223174   5.805   5.351   0.249 -2.2087 -2.0377 -0.9764
  539TIP3   OH223175   3.603   1.742   1.267  0.3136  0.7567  0.5478
  539TIP3    H123176   3.668   1.674   1.251  0.1211  0.7650 -0.2999
  539TIP3    H223177   3.519   1.697   1.268  0.3367  0.6802  2.0732
  540TIP3   OH223178   2.336   6.207   0.543  0.1327 -0.3203  0.1129
  540TIP3    H123179   2.301   6.121   0.564  1.7387 -0.8533  0.7616
  540TIP3    H223180   2.271   6.268   0.576 -0.2236 -1.2621  1.2313
  541TIP3   OH223181   4.759   6.363   0.251 -0.5183 -0.4790  0.2035
  541TIP3    H123182   4.814   6.343   0.176 -1.8384  1.8045 -1.5421
  541TIP3    H223183   4.792   6.447   0.284 -1.0273 -0.6020  1.0746
  542TIP3   OH223184   1.739   0.508   0.550 -0.4744  0.2029 -0.6562
  542TIP3    H123185   1.660   0.498   0.604  0.0238 -1.2970 -0.1523
  542TIP3    H223186   1.796   0.565   0.602 -1.7620  2.5418 -1.6899
  543TIP3   OH223187   1.051   7.043   1.011  0.1055  0.6586  0.4165
  543TIP3    H123188   1.072   7.000   0.928 -2.2945 -0.9559  0.5412
  543TIP3    H223189   0.996   7.117   0.986  0.2792  0.8184  0.5068
  544TIP3   OH223190   6.439   4.594   1.271 -0.5500 -0.2541 -0.1185
  544TIP3    H123191   6.413   4.686   1.275  0.8258  0.0906  1.8336
  544TIP3    H223192   6.479   4.585   1.184 -0.6178  0.9841 -0.3019
  545TIP3   OH223193   1.824   6.627   2.013 -0.1578  0.0604  0.0952
  545TIP3    H123194   1.781   6.551   2.051 -1.2525  0.3499 -0.5368
  545TIP3    H223195   1.796   6.701   2.067  0.9411  0.0299  0.7368
  546TIP3   OH223196   6.894   4.792   2.701  0.2545  0.1241 -0.1380
  546TIP3    H123197   6.840   4.818   2.775  0.7826  1.2447 -0.1234
  546TIP3    H223198   6.866   4.702   2.681 -1.7476  0.7320 -0.2676
  547TIP3   OH223199   5.388   5.310   1.338 -0.8702  0.3480 -0.5457
  547TIP3    H123200   5.396   5.347   1.426 -0.3185  0.6776 -0.7315
  547TIP3    H223201   5.402   5.384   1.279 -1.7383  0.2296 -0.9178
  548TIP3   OH223202   0.519   4.491   0.754  0.2291 -0.3848 -0.0949
  548TIP3    H123203   0.596   4.435   0.761  0.1845 -0.4237  0.0788
  548TIP3    H223204   0.464   4.466   0.827 -1.4392 -2.6207 -1.9696
  549TIP3   OH223205   3.447   0.407   7.127 -0.2405 -0.1630 -0.2884
  549TIP3    H123206   3.460   0.493   7.089  0.4043  0.1801  0.6599
  549TIP3    H223207   3.389   0.362   7.066  0.7398  0.3499 -1.6538
  550TIP3   OH223208   4.813   3.085   7.790 -0.0214  0.2829 -0.1975
  550TIP3    H123209   4.858   3.158   7.747 -0.0146 -0.6571 -1.8639
  550TIP3    H223210   4.774   3.124   7.868 -0.7298  2.2953 -1.4720
  551TIP3   OH223211   0.996   4.007   0.876  0.3737 -0.4036  0.5524
  551TIP3    H123212   0.912   3.984   0.917  0.4628 -0.3820  0.7491
  551TIP3    H223213   1.018   3.932   0.822  0.0758 -0.2849  0.2561
  552TIP3   OH223214   5.586   0.309   1.980  0.3101  0.2792 -0.4397
  552TIP3    H123215   5.491   0.316   1.980  0.2703 -0.2284 -0.0114
  552TIP3    H223216   5.609   0.284   2.069  0.7505 -0.7238 -0.8165
  553TIP3   OH223217   4.315   1.880   6.219 -0.5110  0.2603 -0.3133
  553TIP3    H123218   4.229   1.888   6.178 -0.6998  0.1198  0.0571
  553TIP3    H223219   4.299   1.837   6.302 -0.1887  0.9687  0.1284
  554TIP3   OH223220   6.256   4.224   0.761 -0.6555  0.2978 -0.1116
  554TIP3    H123221   6.166   4.191   0.767 -1.6288  2.2274 -2.4379
  554TIP3    H223222   6.298   4.168   0.696 -0.2703 -0.3466  0.6771
  555TIP3   OH223223   6.265   6.256   7.955  0.0302  0.2744 -0.5884
  555TIP3    H123224   6.214   6.232   7.878 -1.4208 -0.7569  0.6214
  555TIP3    H223225   6.355   6.262   7.924 -0.4825 -0.3710 -2.2965
  556TIP3   OH223226   0.756   0.450   0.947  0.0880 -0.2478 -0.3071
  556TIP3    H123227   0.692   0.405   0.892  0.0540 -1.1031  0.4100
  556TIP3    H223228   0.705   0.514   0.996  0.2515  1.1935 -1.9098
  557TIP3   OH223229   2.758   1.277   0.136 -0.1584 -0.2214 -0.1714
  557TIP3    H123230   2.735   1.238   0.220 -1.1024 -0.8892 -0.7223
  557TIP3    H223231   2.675   1.281   0.088  0.5173 -0.6438 -1.3957
  558TIP3   OH223232   6.940   5.984   2.268 -0.1385 -0.2079  0.2373
  558TIP3    H123233   6.888   6.057   2.236 -3.0168 -1.3412  1.9407
  558TIP3    H223234   6.913   5.910   2.215  2.0754 -0.2952 -0.8678
  559TIP3   OH223235   7.020   5.046   1.821  0.5198 -0.2966  0.3539
  559TIP3    H123236   6.940   5.098   1.816  0.9685  0.5811  1.6886
  559TIP3    H223237   7.090   5.111   1.821  1.0953 -0.8711  1.9104
  560TIP3   OH223238   6.192   2.130   1.456 -0.1553 -0.1307  1.1790
  560TIP3    H123239   6.133   2.114   1.383  2.8909  0.7017 -1.6818
  560TIP3    H223240   6.152   2.203   1.504 -1.3373  0.6052 -0.8015
  561TIP3   OH223241   3.388   5.368   6.465  0.7708 -0.6816  0.2414
  561TIP3    H123242   3.371   5.430   6.536  2.5120 -0.9513  0.9454
  561TIP3    H223243   3.394   5.422   6.386 -0.7004 -0.3271  0.3426
  562TIP3   OH223244   4.280   5.676   7.827  0.1651 -0.0383  0.2891
  562TIP3    H123245   4.233   5.608   7.876  0.2779  0.3606  0.9618
  562TIP3    H223246   4.229   5.756   7.843 -0.6829 -0.1698 -1.5034
  563TIP3   OH223247   0.872   5.073   6.368  0.3208  0.4081 -0.6354
  563TIP3    H123248   0.938   5.142   6.364  0.0441  0.6659 -0.7338
  563TIP3    H223249   0.789   5.119   6.365  0.1357  0.0669 -0.7254
  564TIP3   OH223250   5.582   2.778   0.516 -0.4343 -0.4269  0.4872
  564TIP3    H123251   5.488   2.768   0.535 -0.1397 -0.8256  1.7909
  564TIP3    H223252   5.622   2.802   0.599  0.9441 -2.4929  0.4936
  565TIP3   OH223253   5.232   3.574   1.596 -0.4937 -0.8024  0.0586
  565TIP3    H123254   5.199   3.629   1.667 -1.4723  0.6967 -1.4922
  565TIP3    H223255   5.326   3.571   1.610 -0.4674  0.9329  0.4322
  566TIP3   OH223256   2.490   6.735   6.977 -0.1654  0.2800 -0.4537
  566TIP3    H123257   2.429   6.662   6.962  0.5523 -0.7975  1.4881
  566TIP3    H223258   2.451   6.809   6.930 -1.6885 -0.9670 -1.2688
  567TIP3   OH223259   0.474   6.826   6.895  0.3218 -0.0984  0.0254
  567TIP3    H123260   0.417   6.831   6.972 -1.2581 -0.0867 -1.0988
  567TIP3    H223261   0.538   6.758   6.917 -0.5215 -0.5655  1.0938
  568TIP3   OH223262   1.828   1.335   0.577 -0.0633  0.6402  0.0491
  568TIP3    H123263   1.875   1.257   0.550 -2.9203  0.2036 -4.7703
  568TIP3    H223264   1.895   1.404   0.577  2.0303 -1.2149  2.0257
  569TIP3   OH223265   1.695   7.070   7.489 -0.0458  0.0584  0.1385
  569TIP3    H123266   1.631   7.001   7.473  1.2078 -1.3160  0.8457
  569TIP3    H223267   1.701   7.076   7.584 -1.6242  2.6345  0.1952
  570TIP3   OH223268   4.716   0.648   6.802 -0.7283  0.2245  0.7479
  570TIP3    H123269   4.687   0.564   6.837 -0.3361 -0.4818 -0.5801
  570TIP3    H223270   4.802   0.662   6.843  0.4870 -1.3939 -1.0838
  571TIP3   OH223271   1.944   1.751   7.836  0.1257  0.1776 -0.4151
  571TIP3    H123272   1.956   1.675   7.779  0.8732  0.7952 -1.1121
  571TIP3    H223273   1.985   1.823   7.789  0.0282  0.8832  0.5415
  572TIP3   OH223274   2.124   5.204   1.318 -0.0152  0.0165 -0.5659
  572TIP3    H123275   2.048   5.158   1.282 -0.3069 -0.2706  0.3849
  572TIP3    H223276   2.183   5.134   1.346 -0.5337  0.1778  1.0414
  573TIP3   OH223277   4.826   1.549   0.430  0.1758  0.6744  0.0399
  573TIP3    H123278   4.884   1.586   0.497 -0.0971  2.8791 -0.8688
  573TIP3    H223279   4.776   1.624   0.398 -0.3223 -0.4793 -2.0306
  574TIP3   OH223280   1.048   0.875   7.357 -0.4049 -0.2189 -0.0738
  574TIP3    H123281   1.025   0.925   7.435 -0.1223 -1.7168  1.0095
  574TIP3    H223282   1.126   0.825   7.382 -0.1964 -0.5937 -1.3799
  575TIP3   OH223283   4.518   4.710   7.984 -0.2675  0.2243 -0.4823
  575TIP3    H123284   4.550   4.639   8.040  0.2669  0.5805 -0.3279
  575TIP3    H223285   4.423   4.702   7.988 -0.2261 -0.0890  0.0449
  576TIP3   OH223286   1.112   4.775   6.670  0.2252 -0.3590  0.9900
  576TIP3    H123287   1.055   4.825   6.610 -0.9247 -1.9752  0.6821
  576TIP3    H223288   1.051   4.731   6.729  1.2127 -1.4606  1.2021
  577TIP3   OH223289   1.899   5.016   1.329  0.1481 -0.2463 -0.9313
  577TIP3    H123290   1.833   5.025   1.398 -0.1406 -1.6368 -0.9974
  577TIP3    H223291   1.949   4.938   1.354  1.0301  0.1226 -1.4974
  578TIP3   OH223292   1.875   0.638   0.766  0.2516 -0.3813  0.2073
  578TIP3    H123293   1.950   0.624   0.824  0.4279  1.6442  0.5446
  578TIP3    H223294   1.799   0.619   0.820  0.4830 -2.4835 -0.1439
  579TIP3   OH223295   6.303   3.247   1.301 -0.2503  0.3678 -0.2644
  579TIP3    H123296   6.286   3.187   1.373 -0.0017  0.0598 -0.4620
  579TIP3    H223297   6.384   3.292   1.326  0.2033 -0.2172 -0.6590
  580TIP3   OH223298   5.412   4.603   7.507  0.8601 -0.2629  0.4448
  580TIP3    H123299   5.341   4.666   7.493  1.5507  1.2253  2.9724
  580TIP3    H223300   5.369   4.521   7.529 -0.1490  0.6781  2.1935
  581TIP3   OH223301   1.419   4.090   6.806  0.1231  0.2340 -0.1304
  581TIP3    H123302   1.480   4.160   6.781  0.2738  0.1248 -0.0711
  581TIP3    H223303   1.463   4.010   6.778  0.3767  0.0954  0.6439
  582TIP3   OH223304   0.900   5.548   6.687 -0.3921  0.0455 -0.0679
  582TIP3    H123305   0.847   5.570   6.764  0.6371 -0.9911  0.9892
  582TIP3    H223306   0.863   5.467   6.654  1.0112 -1.1922  1.2311
  583TIP3   OH223307   5.929   3.631   1.776 -0.4271 -0.1721  0.0784
  583TIP3    H123308   5.857   3.604   1.719 -1.7134  1.6273  0.7719
  583TIP3    H223309   6.008   3.601   1.731 -1.3137  1.7928 -3.0487
  584TIP3   OH223310   5.424   5.397   6.545  0.1018  0.6574 -0.5852
  584TIP3    H123311   5.499   5.433   6.498  2.0020 -1.6073  0.5205
  584TIP3    H223312   5.417   5.307   6.514 -0.1062 -0.1536  1.6185
  585TIP3   OH223313   4.015   4.288   1.071  0.1179 -0.6273  0.3890
  585TIP3    H123314   3.973   4.265   0.988 -0.2608  0.7741  0.1631
  585TIP3    H223315   3.942   4.299   1.132  0.3775 -1.3150  0.8418
  586TIP3   OH223316   4.481   2.415   0.578  0.2114  0.0798  0.0073
  586TIP3    H123317   4.559   2.377   0.537  0.0719 -2.4012  1.8306
  586TIP3    H223318   4.420   2.428   0.506  1.4837 -0.1175 -1.1397
  587TIP3   OH223319   2.828   6.417   1.265  0.8080 -0.2043 -0.1378
  587TIP3    H123320   2.852   6.504   1.295  0.6593 -0.6512  1.3920
  587TIP3    H223321   2.753   6.431   1.207  2.7645  0.9269 -2.5654
  588TIP3   OH223322   3.634   0.023   6.708  0.0941  0.2058 -0.4195
  588TIP3    H123323   3.599   0.106   6.741  1.1435  0.8083 -0.7652
  588TIP3    H223324   3.724   0.022   6.738  0.1520 -0.7239 -0.6055
  589TIP3   OH223325   1.360   3.562   0.546  0.3138  0.0725 -0.2027
  589TIP3    H123326   1.399   3.630   0.602 -3.5494 -0.3875  3.5846
  589TIP3    H223327   1.305   3.610   0.484 -1.1123  0.5902  1.3826
  590TIP3   OH223328   6.039   5.430   1.668 -0.1260 -0.0334 -0.1728
  590TIP3    H123329   6.004   5.493   1.731  0.0287 -1.0036  0.9149
  590TIP3    H223330   6.132   5.423   1.691  0.7763  2.0949 -2.6662
  591TIP3   OH223331   0.487   3.137   6.459  0.2724  0.0167 -0.3143
  591TIP3    H123332   0.474   3.230   6.477  1.0973 -0.0001  0.4890
  591TIP3    H223333   0.399   3.100   6.454 -0.0683  0.8842 -0.9380
  592TIP3   OH223334   3.552   0.208   0.423  0.0081  0.7729 -0.3969
  592TIP3    H123335   3.543   0.165   0.337  0.4840  1.0051 -0.5691
  592TIP3    H223336   3.646   0.207   0.440 -0.2219 -1.1416  1.0918
  593TIP3   OH223337   5.306   1.439   7.265 -0.0766 -0.3068 -0.0415
  593TIP3    H123338   5.346   1.521   7.235 -0.4966  0.5344  1.5686
  593TIP3    H223339   5.301   1.449   7.360  0.0575 -2.3136  0.2071
  594TIP3   OH223340   0.650   2.606   1.126  0.2380  0.2579 -0.2457
  594TIP3    H123341   0.706   2.593   1.202 -0.9006 -2.2530  0.2770
  594TIP3    H223342   0.571   2.555   1.146 -1.5016  2.2309 -1.6925
  595TIP3   OH223343   0.244   6.153   6.181 -0.2161  0.1118 -0.1469
  595TIP3    H123344   0.319   6.167   6.123  0.5523  1.6732  1.1739
  595TIP3    H223345   0.172   6.200   6.139  0.6187  2.2252  0.6684
  596TIP3   OH223346   6.286   1.236   7.548  0.0755  0.3873  0.4300
  596TIP3    H123347   6.316   1.216   7.637 -0.5874  2.4445  1.1691
  596TIP3    H223348   6.283   1.151   7.505  1.1881 -0.5813  2.1163
  597TIP3   OH223349   1.409   6.016   6.978  0.2086  0.1521  0.0715
  597TIP3    H123350   1.377   6.103   7.002  0.6950  0.2543  0.3499
  597TIP3    H223351   1.390   6.010   6.884 -0.4154  0.3007  0.1820
  598TIP3   OH223352   2.935   3.298   0.063 -0.2860 -0.3848  0.6788
  598TIP3    H123353   2.963   3.355  -0.009  0.7090 -2.7596 -0.9407
  598TIP3    H223354   2.875   3.352   0.114 -0.2669  1.7384 -1.3543
  599TIP3   OH223355   1.566   0.940   7.034 -0.5293  0.1915 -0.2817
  599TIP3    H123356   1.536   0.861   6.989 -0.5057  0.1013 -0.1397
  599TIP3    H223357   1.506   1.008   7.003 -0.8184  0.0341 -0.0833
  600TIP3   OH223358   3.284   0.301   0.294 -0.2443  0.1100 -0.1896
  600TIP3    H123359   3.247   0.223   0.336 -1.7392 -0.6543 -2.6627
  600TIP3    H223360   3.360   0.323   0.347 -1.5879 -1.0997  2.4609
  601TIP3   OH223361   1.918   5.650   7.579  0.3828 -0.3762 -0.2481
  601TIP3    H123362   1.979   5.658   7.652 -2.0403 -0.4016  1.9411
  601TIP3    H223363   1.913   5.556   7.562  0.3913 -0.4417  0.1074
  602TIP3   OH223364   4.347   5.275   6.467  0.1418  0.0016  0.0897
  602TIP3    H123365   4.374   5.228   6.388 -0.7087 -3.1651  1.5474
  602TIP3    H223366   4.255   5.299   6.450 -0.6138 -2.2420  0.6919
  603TIP3   OH223367   6.785   5.026   6.913 -0.1263  0.2427  0.7120
  603TIP3    H123368   6.779   5.047   6.820 -1.1188  0.1391  0.7371
  603TIP3    H223369   6.695   5.034   6.945 -0.1069 -1.3506  1.2915
  604TIP3   OH223370   1.923   5.873   1.569  0.2752  0.1024 -0.1487
  604TIP3    H123371   1.890   5.786   1.592 -2.4726  1.6006  2.1891
  604TIP3    H223372   2.015   5.872   1.598  0.1336 -1.8214  0.3566
  605TIP3   OH223373   6.291   5.511   2.357 -0.1891  0.5534 -0.0360
  605TIP3    H123374   6.353   5.583   2.345 -0.1565  0.5873  0.3277
  605TIP3    H223375   6.335   5.450   2.417  0.1307 -0.1883 -1.0046
  606TIP3   OH223376   4.689   5.054   7.202 -0.1180  0.1897  0.4562
  606TIP3    H123377   4.661   4.977   7.251 -2.1915 -0.1297 -1.0965
  606TIP3    H223378   4.772   5.080   7.244 -0.6691 -1.3025  2.6734
  607TIP3   OH223379   3.023   4.954   1.521  0.8264  0.3965  0.7135
  607TIP3    H123380   3.083   4.974   1.592 -0.9587  1.2939  2.0457
  607TIP3    H223381   2.939   4.989   1.549  0.0995  1.0887 -1.9900
  608TIP3   OH223382   4.105   0.283   5.727 -0.1955  0.5811 -0.0336
  608TIP3    H123383   4.024   0.306   5.681 -1.2908 -2.3615  0.2056
  608TIP3    H223384   4.074   0.248   5.811  0.9524 -3.4626 -1.0812
  609TIP3   OH223385   0.762   6.367   6.766 -0.3227  0.1158  0.5412
  609TIP3    H123386   0.814   6.393   6.690 -0.5283  1.4345  0.8284
  609TIP3    H223387   0.826   6.355   6.836 -0.0012 -2.2511 -0.0869
  610TIP3   OH223388   5.662   5.105   0.736 -0.4606 -0.0644 -0.1491
  610TIP3    H123389   5.670   5.074   0.645 -0.2563 -1.6847  0.3929
  610TIP3    H223390   5.685   5.029   0.789  1.5247  1.4390  1.2875
  611TIP3   OH223391   2.838   3.278   7.183 -0.1539 -0.9493 -0.1052
  611TIP3    H123392   2.751   3.274   7.223  0.6729  0.0854  1.9244
  611TIP3    H223393   2.821   3.306   7.093 -1.8786  0.2997  0.5512
  612TIP3   OH223394   2.605   4.010   6.749 -0.7774  0.2708 -0.5229
  612TIP3    H123395   2.522   4.024   6.793  0.3594  0.1401  1.8454
  612TIP3    H223396   2.659   3.964   6.814  1.8473  2.2706 -1.0871
  613TIP3   OH223397   3.285   1.239   7.365 -0.1117 -0.1732 -0.5752
  613TIP3    H123398   3.272   1.301   7.294  0.0920  0.1923 -0.2975
  613TIP3    H223399   3.344   1.285   7.426 -1.2328 -0.0142  0.4100
  614TIP3   OH223400   4.884   4.810   0.447  0.0578 -0.0403 -0.7835
  614TIP3    H123401   4.936   4.732   0.467 -0.5664 -0.5807 -1.2420
  614TIP3    H223402   4.885   4.861   0.528  2.1796  0.4981 -1.0762
  615TIP3   OH223403   3.936   4.224   1.687  0.2592 -0.1134  0.7469
  615TIP3    H123404   3.996   4.235   1.613  1.9615  0.0346  2.0609
  615TIP3    H223405   3.878   4.300   1.682  0.9467  0.3929  0.0751
  616TIP3   OH223406   4.520   2.315   6.893  0.2883  0.0497  0.2570
  616TIP3    H123407   4.550   2.250   6.829  0.8257  1.4011 -0.9245
  616TIP3    H223408   4.455   2.269   6.946 -1.1802 -0.7875 -2.1133
  617TIP3   OH223409   3.086   4.882   6.033 -0.0320 -0.4859 -0.2826
  617TIP3    H123410   3.104   4.840   5.949 -1.4647  0.8507 -1.3058
  617TIP3    H223411   3.164   4.934   6.051 -0.3212  0.4472 -1.5926
  618TIP3   OH223412   5.574   2.816   7.688 -0.0926 -0.2915 -0.6365
  618TIP3    H123413   5.551   2.833   7.779 -2.2971 -1.2104 -0.9342
  618TIP3    H223414   5.561   2.900   7.644 -0.4351 -0.1869 -0.3407
  619TIP3   OH223415   1.277   4.988   6.617  1.0867  0.1060  0.2984
  619TIP3    H123416   1.209   4.930   6.651  1.1740 -0.1546  0.0325
  619TIP3    H223417   1.357   4.935   6.618  1.0577  0.0359 -0.4581
  620TIP3   OH223418   6.358   6.320   6.483 -0.0645  0.0085 -0.0201
  620TIP3    H123419   6.453   6.326   6.483 -0.0507 -0.2083 -0.0504
  620TIP3    H223420   6.336   6.286   6.396 -0.2184  0.8035 -0.3114
  621TIP3   OH223421   6.568   3.159   0.066 -0.3297  0.4158  0.2643
  621TIP3    H123422   6.478   3.133   0.048 -0.2952  0.6150 -0.2102
  621TIP3    H223423   6.603   3.087   0.119 -0.6176  0.0976  0.0329
  622TIP3   OH223424   0.743   4.722   0.837  0.3225 -0.1383  0.5160
  622TIP3    H123425   0.806   4.749   0.771 -0.3088  1.6026  0.5661
  622TIP3    H223426   0.667   4.693   0.787 -1.2322  3.7232  0.2780
  623TIP3   OH223427   1.866   6.087   1.729 -0.2053  0.5399 -0.3056
  623TIP3    H123428   1.775   6.086   1.701 -0.9295 -0.5513  1.8158
  623TIP3    H223429   1.900   6.001   1.705 -0.4301  0.1114  0.8428
  624TIP3   OH223430   1.318   5.657   1.458  0.1130 -0.6674 -0.2459
  624TIP3    H123431   1.351   5.603   1.386  1.1454 -0.1767 -0.1546
  624TIP3    H223432   1.374   5.734   1.458 -3.3381  2.1773 -2.5565
  625TIP3   OH223433   5.984   6.289   1.034 -0.0912 -0.2820  0.0167
  625TIP3    H123434   5.890   6.307   1.034 -0.4334 -1.7412  1.7886
  625TIP3    H223435   5.992   6.208   0.982  0.3672  0.4382 -1.0763
  626TIP3   OH223436   3.344   1.262   6.265 -0.4442 -0.0583  0.0710
  626TIP3    H123437   3.385   1.265   6.178 -1.4828 -1.5872 -0.5156
  626TIP3    H223438   3.357   1.172   6.295  0.3538  0.5840  1.7601
  627TIP3   OH223439   1.695   1.299   1.080  0.6699 -0.0413  0.1367
  627TIP3    H123440   1.706   1.238   1.154 -0.6534 -2.2179 -1.3375
  627TIP3    H223441   1.602   1.321   1.081  0.8072  0.5767 -0.3891
  628TIP3   OH223442   7.020   0.798   6.135  0.3931  0.3674  0.1483
  628TIP3    H123443   7.070   0.863   6.184  0.3649 -0.5147  1.3823
  628TIP3    H223444   6.935   0.794   6.178 -0.0467  0.3832 -0.6808
  629TIP3   OH223445   5.988   0.095   7.242  0.2634  0.5857  0.1550
  629TIP3    H123446   5.931   0.019   7.253  0.2957  0.5575  0.1289
  629TIP3    H223447   6.062   0.078   7.300 -0.1742  1.0405  0.8664
  630TIP3   OH223448   3.125   1.683   7.252 -0.2420 -0.3969  0.2549
  630TIP3    H123449   3.047   1.628   7.247 -0.1981 -0.4089 -0.3351
  630TIP3    H223450   3.092   1.773   7.255 -0.2977 -0.4311  0.6472
  631TIP3   OH223451   2.471   3.723   6.563  0.4641  0.1307 -0.0850
  631TIP3    H123452   2.432   3.705   6.648  0.3553  0.9043  0.0341
  631TIP3    H223453   2.566   3.724   6.579  0.4087  1.3073  0.2449
  632TIP3   OH223454   1.635   5.048   0.401 -0.2839 -0.8176  0.3349
  632TIP3    H123455   1.712   5.104   0.395  0.3585 -1.7900 -0.9134
  632TIP3    H223456   1.608   5.033   0.310 -1.2628 -1.4061  0.7006
  633TIP3   OH223457   4.939   4.725   1.504 -0.1517  0.1189 -0.4428
  633TIP3    H123458   4.935   4.820   1.493  2.1792  0.6412  2.1325
  633TIP3    H223459   4.999   4.711   1.577 -0.4835 -3.3708 -0.6333
  634TIP3   OH223460   1.182   5.412   7.577 -0.8073  0.1703  0.1305
  634TIP3    H123461   1.181   5.352   7.502  0.1605  0.1606  0.1212
  634TIP3    H223462   1.247   5.478   7.554 -2.2794  1.6047 -0.1346
  635TIP3   OH223463   6.537   1.632   7.403 -0.5465  0.1318 -0.6557
  635TIP3    H123464   6.468   1.600   7.345 -1.8011  0.3266  0.6693
  635TIP3    H223465   6.590   1.555   7.421 -1.2598 -0.3482 -0.5635
  636TIP3   OH223466   0.609   4.792   6.743 -0.4478  0.1661  0.7116
  636TIP3    H123467   0.591   4.732   6.816 -1.0476 -0.7309 -0.1413
  636TIP3    H223468   0.522   4.812   6.707 -0.0748 -0.8048 -0.8206
  637TIP3   OH223469   6.639   2.452   0.164  0.1655 -0.1312 -0.0323
  637TIP3    H123470   6.546   2.471   0.156 -0.2375 -2.0891 -0.6340
  637TIP3    H223471   6.648   2.408   0.249  0.6832  0.6529  0.3376
  638TIP3   OH223472   5.491   0.516   5.949 -0.0965  0.6872 -0.3686
  638TIP3    H123473   5.420   0.492   5.889  1.0979  0.8143 -1.8984
  638TIP3    H223474   5.567   0.531   5.892  1.6191 -1.0406  1.3081
  639TIP3   OH223475   4.323   1.015   2.088  0.5688  0.0612  0.5087
  639TIP3    H123476   4.234   1.047   2.106  0.7282  0.9944 -0.3024
  639TIP3    H223477   4.353   1.068   2.014  1.2158 -1.3118 -0.2585
  640TIP3   OH223478   2.382   6.513   6.424  0.0713  0.3956  0.0616
  640TIP3    H123479   2.355   6.471   6.342 -0.0090  1.6012 -0.5427
  640TIP3    H223480   2.309   6.571   6.447  0.3053  0.4448  0.7232
  641TIP3   OH223481   0.327   3.489   7.415  0.0829  0.1090  0.0409
  641TIP3    H123482   0.290   3.576   7.426  1.5033  0.9812 -1.6382
  641TIP3    H223483   0.331   3.476   7.321  2.8573 -0.3902  0.1285
  642TIP3   OH223484   7.066   4.878   7.745 -0.4411  0.2497 -0.3430
  642TIP3    H123485   7.148   4.879   7.794 -0.7210 -1.6436  0.2654
  642TIP3    H223486   7.043   4.970   7.734  2.0867  0.8689 -1.1312
  643TIP3   OH223487   4.866   3.397   7.220  0.3896 -0.4260 -0.0403
  643TIP3    H123488   4.854   3.333   7.150  2.4573  0.6163 -1.4625
  643TIP3    H223489   4.903   3.347   7.293  0.1119 -1.1911 -0.4153
  644TIP3   OH223490   3.993   6.771   1.979  0.1780 -0.0068  0.4520
  644TIP3    H123491   3.984   6.704   2.047  0.5136 -1.6866 -1.0732
  644TIP3    H223492   4.054   6.732   1.916  0.2651  1.6989 -0.5576
  645TIP3   OH223493   0.995   5.409   5.684  0.0488  0.0544  1.0630
  645TIP3    H123494   0.976   5.420   5.591 -1.0997 -0.4747  1.2315
  645TIP3    H223495   1.082   5.448   5.694 -1.0823  3.0737  0.3724
  646TIP3   OH223496   6.484   4.407   6.836  0.4645 -0.5213 -0.0882
  646TIP3    H123497   6.537   4.481   6.865  0.7742 -1.0039  0.5933
  646TIP3    H223498   6.463   4.427   6.744  1.1306  0.0695 -0.1169
  647TIP3   OH223499   4.173   0.373   1.512 -0.6169 -0.2288 -0.0330
  647TIP3    H123500   4.143   0.433   1.444  1.7992  1.3724  0.2183
  647TIP3    H223501   4.186   0.290   1.466  1.0261  0.8241 -1.6206
  648TIP3   OH223502   5.213   4.466   7.226  0.5236  0.3543 -0.1355
  648TIP3    H123503   5.192   4.559   7.230  0.1768  0.3787 -1.6302
  648TIP3    H223504   5.269   4.458   7.149 -1.2543 -0.9472 -1.3710
  649TIP3   OH223505   3.230   4.069   6.234  0.4485 -0.0026 -0.4040
  649TIP3    H123506   3.321   4.074   6.262  0.1755  1.4644  0.3205
  649TIP3    H223507   3.184   4.027   6.306  0.4733 -0.2773 -0.5494
  650TIP3   OH223508   3.871   7.001   0.283 -0.0692  0.2843 -0.6993
  650TIP3    H123509   3.849   6.935   0.348  0.3033  0.1279 -0.7311
  650TIP3    H223510   3.809   6.986   0.211  0.6482 -0.6809 -1.1457
  651TIP3   OH223511   1.640   3.710   0.885 -0.1617 -0.3959  0.1554
  651TIP3    H123512   1.678   3.792   0.915  0.4424  0.3314 -2.3911
  651TIP3    H223513   1.689   3.642   0.933  0.2466  0.6768  1.2979
  652TIP3   OH223514   1.543   3.051   7.160 -0.0056  0.5530 -0.2884
  652TIP3    H123515   1.588   2.981   7.207 -1.9806 -0.1411  0.6797
  652TIP3    H223516   1.573   3.131   7.201  0.8455  0.1628 -0.1307
  653TIP3   OH223517   1.583   5.368   6.553 -0.2206  0.3322  0.1858
  653TIP3    H123518   1.660   5.347   6.501 -0.8959  0.5392 -0.9456
  653TIP3    H223519   1.514   5.382   6.488 -1.2398  0.0215  1.1810
  654TIP3   OH223520   2.181   2.425   0.159  0.3640 -0.5800 -0.8602
  654TIP3    H123521   2.197   2.484   0.085 -0.1062 -1.6364 -1.8452
  654TIP3    H223522   2.110   2.466   0.208  0.9507  0.3372 -0.7410
  655TIP3   OH223523   0.314   3.948   7.278 -0.2206 -0.7250  0.5327
  655TIP3    H123524   0.404   3.959   7.246 -0.3497 -1.1404  0.0085
  655TIP3    H223525   0.274   4.034   7.266  0.6073 -0.0385  2.4276
  656TIP3   OH223526   4.943   1.293   1.297 -0.2555 -0.2624  0.4548
  656TIP3    H123527   4.945   1.384   1.328  2.5880  0.2421 -0.9031
  656TIP3    H223528   4.865   1.256   1.338 -0.2398  2.1104  2.9353
  657TIP3   OH223529   0.755   2.395   1.568 -0.1526  0.3807  0.0387
  657TIP3    H123530   0.761   2.361   1.657  0.5586  0.7475  0.1410
  657TIP3    H223531   0.747   2.317   1.513 -0.9380  0.1714  0.4434
  658TIP3   OH223532   0.939   3.469   7.683 -0.4643 -0.3472  0.2001
  658TIP3    H123533   0.971   3.435   7.599 -0.9013 -0.4902  0.0884
  658TIP3    H223534   0.876   3.537   7.659 -0.5527 -0.3531  0.4137
  659TIP3   OH223535   4.049   6.705   0.211 -0.0084  0.0949 -0.7356
  659TIP3    H123536   3.998   6.654   0.274  1.8597 -0.0902  0.7245
  659TIP3    H223537   3.984   6.758   0.165 -1.3571  2.2069  3.1283
  660TIP3   OH223538   4.846   3.212   6.996  0.0011 -0.1128  0.5568
  660TIP3    H123539   4.937   3.191   6.977 -0.3871 -0.9191 -0.4920
  660TIP3    H223540   4.795   3.143   6.953 -1.1102  0.3309  1.1018
  661TIP3   OH223541   5.887   2.261   1.381 -0.0911  0.8429 -0.2578
  661TIP3    H123542   5.938   2.185   1.352 -1.5966 -0.2004 -0.3077
  661TIP3    H223543   5.856   2.236   1.468 -1.7778  0.7444 -0.8383
  662TIP3   OH223544   3.854   0.371   5.657  0.3108  0.4305  0.3088
  662TIP3    H123545   3.834   0.347   5.748  0.1167  0.2834  0.2270
  662TIP3    H223546   3.855   0.467   5.658  0.6078  0.4284  0.5301
  663TIP3   OH223547   2.759   2.295   1.674 -0.1372 -0.3978 -0.3559
  663TIP3    H123548   2.816   2.341   1.736 -0.2099  1.8652 -1.8424
  663TIP3    H223549   2.682   2.351   1.666 -1.0053 -1.6515 -1.0008
  664TIP3   OH223550   2.149   1.122   5.997  0.0228 -0.0365 -0.2897
  664TIP3    H123551   2.139   1.121   5.902 -1.4671 -2.9846 -0.2174
  664TIP3    H223552   2.244   1.127   6.010  0.1854  2.6175 -1.7984
  665TIP3   OH223553   2.585   5.393   1.122 -0.4213 -0.1741 -0.0850
  665TIP3    H123554   2.557   5.473   1.076 -1.3406 -1.1979 -1.3755
  665TIP3    H223555   2.507   5.338   1.125 -0.0550 -0.6638  1.6583
  666TIP3   OH223556   5.600   0.535   6.484 -0.1900  0.0458 -0.4403
  666TIP3    H123557   5.512   0.552   6.452 -0.7547 -0.6605  0.6655
  666TIP3    H223558   5.615   0.602   6.551 -0.0537 -0.0724 -0.3507
  667TIP3   OH223559   1.971   5.389   6.535 -0.2538  0.3285 -0.1170
  667TIP3    H123560   1.923   5.366   6.455  2.7621  1.0806 -2.3513
  667TIP3    H223561   1.970   5.309   6.587 -2.1786 -0.2518 -0.9742
  668TIP3   OH223562   0.567   3.236   6.125  0.1474  0.3345  0.3078
  668TIP3    H123563   0.586   3.160   6.071  3.8899  0.5573  1.0450
  668TIP3    H223564   0.545   3.305   6.062 -1.0178 -0.7423 -0.5039
  669TIP3   OH223565   0.917   5.447   7.513 -0.0953 -0.0941  0.3544
  669TIP3    H123566   1.011   5.428   7.508 -0.1584 -0.6504  1.1006
  669TIP3    H223567   0.912   5.536   7.546  0.1888  0.8404 -1.9526
  670TIP3   OH223568   0.997   6.299   6.859  0.1598  0.8382  1.0447
  670TIP3    H123569   0.974   6.206   6.865  0.6202  0.5975 -0.4543
  670TIP3    H223570   0.997   6.329   6.950 -0.7680 -0.4288  1.5070
  671TIP3   OH223571   5.807   3.695   0.379  0.9406 -0.0220  0.1409
  671TIP3    H123572   5.788   3.662   0.291 -3.1052 -0.0993  0.8680
  671TIP3    H223573   5.828   3.617   0.430  2.3564 -0.0772 -0.4679
  672TIP3   OH223574   4.261   2.628   0.875 -0.0795 -0.5071 -0.8414
  672TIP3    H123575   4.221   2.550   0.914  0.3642 -0.0153  0.6618
  672TIP3    H223576   4.188   2.674   0.833 -0.3713 -1.6377 -1.6278
  673TIP3   OH223577   4.121   2.905   6.876 -0.6275  0.0906 -0.0353
  673TIP3    H123578   4.097   2.933   6.788 -0.3094 -1.3732 -0.6152
  673TIP3    H223579   4.038   2.888   6.920 -0.7709 -0.4113 -0.4865
  674TIP3   OH223580   1.843   3.747   7.882  0.3454  0.2779  0.3224
  674TIP3    H123581   1.780   3.729   7.952  1.5234 -1.8762  0.8941
  674TIP3    H223582   1.878   3.834   7.904  1.5766 -0.8269  3.1765
  675TIP3   OH223583   1.647   7.020   1.077 -0.2938 -0.3404 -0.0927
  675TIP3    H123584   1.700   7.100   1.081  0.7699 -1.0045 -0.4708
  675TIP3    H223585   1.639   7.001   0.983  0.1980 -1.1376  0.0161
  676TIP3   OH223586   2.532   6.092   8.033  0.2232  0.1225 -0.0389
  676TIP3    H123587   2.608   6.141   8.063 -0.5895  1.4537 -0.0680
  676TIP3    H223588   2.509   6.037   8.108  0.7909  0.2271  0.2202
  677TIP3   OH223589   6.544   3.768   7.921  0.5047 -0.8045  0.0943
  677TIP3    H123590   6.492   3.743   7.997  0.0262 -0.9428 -0.2717
  677TIP3    H223591   6.484   3.758   7.846  1.0104 -0.8193 -0.3176
  678TIP3   OH223592   4.185   6.203   0.842  0.2452 -0.1193 -0.0340
  678TIP3    H123593   4.133   6.178   0.766 -0.0126 -2.0320  0.7268
  678TIP3    H223594   4.216   6.120   0.879  3.0976  0.8919  0.0738
  679TIP3   OH223595   1.316   7.099   0.958 -0.7248  0.4526 -0.4512
  679TIP3    H123596   1.402   7.108   0.999 -0.8606  0.0657 -0.0732
  679TIP3    H223597   1.253   7.103   1.030 -0.8357 -3.1730 -0.1302
  680TIP3   OH223598   3.611   4.162   6.317  0.2610  0.2924  0.8236
  680TIP3    H123599   3.688   4.118   6.351  0.1587 -0.5691 -0.0262
  680TIP3    H223600   3.629   4.173   6.224 -0.8656 -0.4343  0.4967
  681TIP3   OH223601   6.041   4.619   6.508  0.1971 -0.2520 -0.5317
  681TIP3    H123602   6.095   4.544   6.532  1.9757  1.1509  0.0723
  681TIP3    H223603   5.969   4.581   6.458  0.8137 -2.3896  0.0649
  682TIP3   OH223604   5.600   6.774   6.285 -0.0755 -0.4920 -0.5808
  682TIP3    H123605   5.555   6.841   6.338 -1.7036 -2.6492  0.9385
  682TIP3    H223606   5.693   6.798   6.291 -0.4889  0.9881  0.8621
  683TIP3   OH223607   5.982   1.111   6.580 -0.1200  0.3724 -0.1924
  683TIP3    H123608   6.028   1.044   6.631  1.7934 -0.0870 -2.3296
  683TIP3    H223609   5.962   1.180   6.643 -0.7161 -1.4785  1.7613
  684TIP3   OH223610   2.940   4.676   7.584  0.8859  0.5976  0.5412
  684TIP3    H123611   2.960   4.625   7.662 -1.4412  0.6627  1.2476
  684TIP3    H223612   2.846   4.666   7.572  0.9511  1.7897 -1.4214
  685TIP3   OH223613   5.734   0.820   7.529  0.1635 -0.1676 -0.3323
  685TIP3    H123614   5.767   0.731   7.516  0.0001 -0.2351 -0.2998
  685TIP3    H223615   5.731   0.858   7.442 -1.9722 -0.9916 -0.6854
  686TIP3   OH223616   2.885   2.956   6.661  0.0157  0.2627 -0.5876
  686TIP3    H123617   2.853   2.977   6.574 -1.8404  0.2733  0.0682
  686TIP3    H223618   2.966   2.907   6.645  0.3278  1.2558 -2.2620
  687TIP3   OH223619   5.654   1.887   1.249 -0.0426 -0.3273  0.1534
  687TIP3    H123620   5.601   1.837   1.187 -0.7099  0.8894 -0.3082
  687TIP3    H223621   5.744   1.867   1.226 -0.2770 -2.2100  0.7512
  688TIP3   OH223622   1.595   4.055   6.156  0.2859  0.0615 -0.0508
  688TIP3    H123623   1.541   3.985   6.193  0.4921 -0.2616 -0.3587
  688TIP3    H223624   1.594   4.038   6.062 -1.9654  2.0614 -0.4930
  689TIP3   OH223625   1.618   2.713   0.477 -0.3394 -0.3359 -0.1756
  689TIP3    H123626   1.713   2.713   0.492 -0.3989 -1.4532  0.2416
  689TIP3    H223627   1.590   2.801   0.503  0.5564 -0.0436 -0.1610
  690TIP3   OH223628   0.984   4.246   6.772 -0.0404  0.4165 -0.3477
  690TIP3    H123629   0.927   4.226   6.846 -0.4852 -0.4179 -0.8938
  690TIP3    H223630   1.067   4.271   6.812 -0.5817  0.9735  0.4461
  691TIP3   OH223631   1.428   0.517   1.907 -0.0947  0.4981  0.6135
  691TIP3    H123632   1.394   0.429   1.894 -0.3203  0.4658  1.3827
  691TIP3    H223633   1.513   0.517   1.862 -0.0954 -0.1086  0.6106
  692TIP3   OH223634   1.799   4.102   1.535  0.1951 -0.8630 -0.2742
  692TIP3    H123635   1.740   4.087   1.461  0.3283 -2.6024 -0.0531
  692TIP3    H223636   1.875   4.146   1.497 -0.5016 -0.1230 -0.8483
  693TIP3   OH223637   4.787   5.219   1.851 -0.0766 -0.0412  0.1735
  693TIP3    H123638   4.778   5.251   1.762 -0.2786  0.5536  0.3996
  693TIP3    H223639   4.881   5.221   1.868 -0.1094  0.7865  0.3015
  694TIP3   OH223640   4.580   1.753   0.397  0.4449 -0.2201  0.2818
  694TIP3    H123641   4.518   1.789   0.461 -1.2604 -1.0501 -0.8394
  694TIP3    H223642   4.549   1.786   0.312  2.0835  0.0675 -0.2440
  695TIP3   OH223643   2.152   0.504   6.376 -0.2044 -0.0059  0.4147
  695TIP3    H123644   2.096   0.516   6.453 -0.5902 -0.3567  0.1933
  695TIP3    H223645   2.099   0.451   6.316  0.0482  0.3540 -0.1364
  696TIP3   OH223646   4.889   6.752   7.361  0.0072  0.3795  0.0559
  696TIP3    H123647   4.843   6.827   7.323  1.5184  2.3492  1.8019
  696TIP3    H223648   4.855   6.747   7.451 -1.0029 -1.9469 -0.3823
  697TIP3   OH223649   4.571   2.081   7.739 -0.2646 -0.2133  0.8096
  697TIP3    H123650   4.634   2.029   7.789 -0.0425  0.8863  1.7059
  697TIP3    H223651   4.544   2.150   7.799 -0.3781  0.8429 -0.4274
  698TIP3   OH223652   0.176   1.024   0.129  0.5028  0.3714  0.3948
  698TIP3    H123653   0.130   1.103   0.160 -0.5744  0.1632 -0.6160
  698TIP3    H223654   0.121   0.951   0.158 -1.0162  0.1935 -2.6090
  699TIP3   OH223655   6.623   2.171   0.773 -0.0189 -0.2399 -0.1002
  699TIP3    H123656   6.620   2.096   0.714  0.8232 -1.1579  0.9725
  699TIP3    H223657   6.543   2.165   0.825 -0.5256  0.2982 -0.7884
  700TIP3   OH223658   7.037   0.392   0.266  0.3812 -0.1951 -0.2056
  700TIP3    H123659   7.043   0.339   0.186 -0.7045 -1.1371  0.3211
  700TIP3    H223660   6.952   0.370   0.304  0.2681  1.3030  0.4872
  701TIP3   OH223661   4.882   3.723   0.762 -0.0825 -0.2272 -0.2801
  701TIP3    H123662   4.833   3.793   0.807 -0.7838  0.0096 -1.3688
  701TIP3    H223663   4.942   3.770   0.704  1.0591 -0.5281  0.6099
  702TIP3   OH223664   0.034   0.460   0.487  0.0672 -0.2525 -0.1646
  702TIP3    H123665   0.124   0.431   0.495 -0.3036 -1.8376 -1.2987
  702TIP3    H223666   0.010   0.441   0.396 -1.0385  1.2657 -0.2377
  703TIP3   OH223667   2.254   4.468   6.940 -0.1197  0.0760 -0.2228
  703TIP3    H123668   2.292   4.384   6.913  0.3708  0.1330  0.2880
  703TIP3    H223669   2.236   4.513   6.857 -0.4217 -0.5440 -0.5041
  704TIP3   OH223670   6.505   5.235   6.170  0.1080 -0.5094 -0.5362
  704TIP3    H123671   6.581   5.292   6.163 -0.1399 -0.1870 -0.5989
  704TIP3    H223672   6.430   5.292   6.155 -0.2652 -0.4489  1.2897
  705TIP3   OH223673   4.553   3.622   6.372  0.0792  0.3211  0.1341
  705TIP3    H123674   4.601   3.672   6.306 -1.0492  1.9391  0.5072
  705TIP3    H223675   4.493   3.567   6.321  0.2066  0.5158 -0.2335
  706TIP3   OH223676   3.368   6.577   7.892 -0.1066 -0.2305 -0.5172
  706TIP3    H123677   3.367   6.665   7.931 -0.8984  0.4131 -1.9044
  706TIP3    H223678   3.301   6.529   7.941 -1.0748  0.5612 -1.0211
  707TIP3   OH223679   5.604   1.008   1.181  0.6421 -0.1083 -0.1685
  707TIP3    H123680   5.646   0.949   1.243  0.5667 -0.0727 -0.0843
  707TIP3    H223681   5.530   1.045   1.229  1.8557  1.6400  0.4733
  708TIP3   OH223682   0.956   6.201   7.879 -0.2689 -0.2401  0.3149
  708TIP3    H123683   0.921   6.125   7.832  1.1176 -1.3835  1.0522
  708TIP3    H223684   1.034   6.168   7.923 -0.1918  1.3856  1.4821
  709TIP3   OH223685   2.673   4.440   6.960  0.5621  0.1445  0.1876
  709TIP3    H123686   2.695   4.523   6.917 -4.0768  2.5463  1.6861
  709TIP3    H223687   2.608   4.400   6.902  3.0623 -2.9380 -0.7536
  710TIP3   OH223688   4.178   2.157   0.226 -0.3790 -0.0936 -0.4077
  710TIP3    H123689   4.244   2.157   0.157  0.5044  3.0466  0.2645
  710TIP3    H223690   4.228   2.155   0.308 -1.3047 -1.2574  0.1653
  711TIP3   OH223691   0.489   2.845   7.436  0.0661 -0.2510  0.0991
  711TIP3    H123692   0.423   2.792   7.392  1.8978 -2.3943 -0.2262
  711TIP3    H223693   0.453   2.934   7.433 -2.9727 -1.3347  0.3554
  712TIP3   OH223694   0.542   3.566   0.234 -0.4765 -0.0584 -0.1893
  712TIP3    H123695   0.539   3.471   0.233  0.3452 -0.0893 -0.5416
  712TIP3    H223696   0.506   3.592   0.149  0.3380 -0.1097 -0.5680
  713TIP3   OH223697   5.450   3.837   8.037  0.4504  0.0596  0.7224
  713TIP3    H123698   5.484   3.837   8.126  0.9687  1.0239  0.5395
  713TIP3    H223699   5.523   3.806   7.984  0.9707  1.8186  0.3648
  714TIP3   OH223700   2.940   3.613   0.159 -0.5389  0.0595 -0.2182
  714TIP3    H123701   2.879   3.547   0.191 -0.7313 -0.4710 -1.6228
  714TIP3    H223702   2.966   3.662   0.237 -1.7497 -0.5419  0.5803
  715TIP3   OH223703   2.539   1.453   7.341  0.5129  0.1096 -0.0498
  715TIP3    H123704   2.510   1.404   7.264  1.1586 -0.6289  0.1562
  715TIP3    H223705   2.492   1.413   7.414  0.2530  0.4992 -0.0032
  716TIP3   OH223706   0.135   0.578   6.670 -0.7514  0.3377  0.2768
  716TIP3    H123707   0.146   0.611   6.581 -1.4747  2.3776  0.8973
  716TIP3    H223708   0.101   0.489   6.658  2.1010 -0.6547 -1.4679
  717TIP3   OH223709   2.816   1.445   0.463  0.4063 -0.4978 -0.0204
  717TIP3    H123710   2.779   1.509   0.524  2.5772  0.0070  0.8303
  717TIP3    H223711   2.809   1.487   0.378  0.8700  0.4571  0.3968
  718TIP3   OH223712   6.797   2.146   1.361 -0.2257 -0.3597  0.3731
  718TIP3    H123713   6.790   2.230   1.407  2.7992  0.0506  0.2621
  718TIP3    H223714   6.801   2.170   1.268 -0.7523 -0.7615  0.2420
  719TIP3   OH223715   5.207   2.106   0.456  0.4720  0.1696  0.5671
  719TIP3    H123716   5.274   2.151   0.507  0.4222 -0.9382  1.6308
  719TIP3    H223717   5.230   2.013   0.461  1.2822  0.0669 -2.6008
  720TIP3   OH223718   5.857   6.488   5.887  0.1928  0.3694 -0.2305
  720TIP3    H123719   5.946   6.462   5.862  0.6435  0.2034  1.4138
  720TIP3    H223720   5.806   6.407   5.879  0.1956  0.4540 -1.1349
  721TIP3   OH223721   1.915   4.011   6.624  0.0470 -0.6393 -0.0478
  721TIP3    H123722   1.880   3.952   6.557  0.5037 -1.0700  0.0847
  721TIP3    H223723   2.009   4.013   6.608 -0.1582  1.7895 -1.4219
  722TIP3   OH223724   0.126   0.403   0.972  0.1329 -0.6984  0.4191
  722TIP3    H123725   0.097   0.324   0.927  0.5131 -1.2318  1.0907
  722TIP3    H223726   0.169   0.371   1.051  1.7709  0.0852 -0.0987
  723TIP3   OH223727   6.777   4.529   6.595  0.0663  0.1061 -0.3018
  723TIP3    H123728   6.707   4.581   6.556  0.5259 -0.5714 -2.1049
  723TIP3    H223729   6.778   4.448   6.545  0.2773 -1.0895  1.5674
  724TIP3   OH223730   1.566   5.397   7.731 -0.0660  0.4560  0.1116
  724TIP3    H123731   1.625   5.392   7.807  0.1648 -0.9744 -0.1491
  724TIP3    H223732   1.478   5.401   7.770  0.0862  0.4148  0.4675
  725TIP3   OH223733   0.353   1.227   7.254 -0.1028 -0.6856  0.4496
  725TIP3    H123734   0.426   1.232   7.192  2.3103  1.6648  3.1632
  725TIP3    H223735   0.371   1.149   7.306  1.7245  0.8331  2.2889
  726TIP3   OH223736   6.900   6.904   5.954  0.5044 -0.5375 -0.0372
  726TIP3    H123737   6.816   6.859   5.963  1.1213 -1.5766  0.6924
  726TIP3    H223738   6.896   6.944   5.867 -0.3634 -1.3740 -0.4027
  727TIP3   OH223739   4.603   4.877   7.009  0.1614  0.1409  0.3780
  727TIP3    H123740   4.614   4.786   7.037  0.5822  0.3499  0.9223
  727TIP3    H223741   4.668   4.926   7.061  1.5201  0.4520 -1.4968
  728TIP3   OH223742   2.404   5.580   7.103 -0.2092  0.7496  0.5459
  728TIP3    H123743   2.397   5.520   7.028 -0.7032  1.4634  0.0003
  728TIP3    H223744   2.484   5.630   7.085  0.7826 -0.4087  1.5248
  729TIP3   OH223745   0.109   6.795   7.499  0.5888 -0.0436 -0.3648
  729TIP3    H123746   0.081   6.818   7.588 -0.0261 -1.7049 -0.0990
  729TIP3    H223747   0.030   6.800   7.446  0.2059 -2.3514 -0.1052
  730TIP3   OH223748   0.748   3.810   8.016  0.5285  0.7000  0.1634
  730TIP3    H123749   0.703   3.727   8.029  0.3301  0.7231 -0.3803
  730TIP3    H223750   0.687   3.864   7.966  0.7758  1.0699  0.2530
  731TIP3   OH223751   1.592   4.526   7.473 -0.4554 -0.2076  0.2815
  731TIP3    H123752   1.553   4.606   7.437  0.5344  0.8763  1.5534
  731TIP3    H223753   1.562   4.523   7.564  1.2007 -0.1102  0.8730
  732TIP3   OH223754   2.941   0.601   7.027  0.2265  0.0734 -0.3882
  732TIP3    H123755   2.919   0.525   7.081 -1.0598  0.0666 -0.8742
  732TIP3    H223756   2.964   0.564   6.942  1.5308  0.1307 -0.0842
  733TIP3   OH223757   5.561   1.007   6.823  0.4115 -0.0824  0.3965
  733TIP3    H123758   5.590   0.962   6.902  0.2471  2.5737  2.0705
  733TIP3    H223759   5.465   1.005   6.829  0.1073 -3.7620 -2.1701
  734TIP3   OH223760   6.078   1.851   0.189 -0.2259  0.5848  0.1589
  734TIP3    H123761   5.993   1.881   0.221 -1.6337 -2.2697 -0.5331
  734TIP3    H223762   6.089   1.765   0.229  0.2499 -0.9812 -3.0289
  735TIP3   OH223763   1.687   2.907   7.884  0.1435  0.3552  0.0684
  735TIP3    H123764   1.714   2.991   7.846  0.0661  0.3238 -0.0569
  735TIP3    H223765   1.687   2.922   7.978  1.4815  0.1068  0.1362
  736TIP3   OH223766   5.482   5.095   6.195  0.1079 -0.0076 -0.0764
  736TIP3    H123767   5.573   5.101   6.222  0.0259 -2.1031  0.8870
  736TIP3    H223768   5.484   5.048   6.112  0.1554  4.1293 -2.6808
  737TIP3   OH223769   4.825   3.937   6.731  0.1999  0.5082 -0.6806
  737TIP3    H123770   4.822   3.859   6.786 -0.5969 -0.7703 -2.4596
  737TIP3    H223771   4.794   4.008   6.788 -2.0546 -1.0226  0.1137
  738TIP3   OH223772   5.994   6.407   7.320 -0.1602  0.2352 -0.5070
  738TIP3    H123773   6.070   6.435   7.370 -0.3706 -2.1077  1.3129
  738TIP3    H223774   6.031   6.359   7.246  0.2080 -1.2519  0.5947
  739TIP3   OH223775   0.296   4.547   7.042  0.5897 -0.0503  0.4625
  739TIP3    H123776   0.297   4.472   6.984  0.0670 -0.8295  1.4265
  739TIP3    H223777   0.219   4.597   7.016  1.4800  0.7154 -0.8323
  740TIP3   OH223778   5.897   5.740   7.620 -0.0469 -0.3717 -0.6491
  740TIP3    H123779   5.976   5.794   7.619 -0.6022  0.5801  1.3770
  740TIP3    H223780   5.830   5.794   7.579 -0.5027  0.3707  1.0031
  741TIP3   OH223781   2.957   0.185   6.819 -0.4023 -0.1283 -0.3051
  741TIP3    H123782   3.009   0.127   6.874  0.6573  1.1457  0.0771
  741TIP3    H223783   2.998   0.179   6.733 -1.5833 -1.5246 -0.7998
  742TIP3   OH223784   0.439   2.185   1.733 -0.1351  0.5002  0.6114
  742TIP3    H123785   0.394   2.172   1.816 -0.5258  0.7700  0.4462
  742TIP3    H223786   0.526   2.148   1.746  0.3841  2.0151  1.6841
  743TIP3   OH223787   0.940   3.853   7.759  0.0679 -0.0451 -0.5130
  743TIP3    H123788   0.989   3.896   7.830 -0.9214 -0.3395  0.3717
  743TIP3    H223789   0.888   3.787   7.804  0.1654 -0.9080 -1.6487
  744TIP3   OH223790   4.350   5.830   1.498 -0.1305 -0.1501 -0.2661
  744TIP3    H123791   4.405   5.884   1.441 -1.8931  3.8145  1.3670
  744TIP3    H223792   4.401   5.821   1.579  0.5662 -1.9403 -0.8659
  745TIP3   OH223793   3.351   5.193   0.694  0.1721 -0.6258  0.0065
  745TIP3    H123794   3.339   5.143   0.614  0.9807 -1.0788  0.1605
  745TIP3    H223795   3.298   5.272   0.681  1.0759 -0.2142 -1.3931
  746TIP3   OH223796   2.507   3.155   0.740  0.1506  0.3924 -0.2377
  746TIP3    H123797   2.589   3.138   0.786 -0.4652 -2.1413  0.0876
  746TIP3    H223798   2.451   3.197   0.806  0.7847  1.0617 -0.1145
  747TIP3   OH223799   4.003   5.837   7.877 -0.3389 -0.2583 -0.3594
  747TIP3    H123800   4.039   5.902   7.817 -2.4424  0.5411 -0.8564
  747TIP3    H223801   4.016   5.874   7.964  0.3504 -0.1751 -0.4927
  748TIP3   OH223802   2.841   1.117   0.706  0.6616 -0.4432  0.3117
  748TIP3    H123803   2.773   1.177   0.677  0.4840 -0.9981 -0.4768
  748TIP3    H223804   2.793   1.040   0.738  0.8960 -1.4254 -1.5587
  749TIP3   OH223805   2.933   6.790   7.631 -0.1510  0.1972  0.3283
  749TIP3    H123806   3.019   6.813   7.595  1.0003 -0.9057  2.2036
  749TIP3    H223807   2.898   6.873   7.664 -0.3354  0.8498 -1.3838
  750TIP3   OH223808   1.561   2.003   6.325  0.0132 -0.4681  0.3870
  750TIP3    H123809   1.602   2.023   6.241 -0.3000 -0.9436  0.1149
  750TIP3    H223810   1.500   2.075   6.339 -0.0577 -0.4729  0.1185
  751TIP3   OH223811   4.541   5.588   0.819 -0.2071  0.0511  0.0588
  751TIP3    H123812   4.626   5.613   0.781 -0.6619  1.8383  0.1310
  751TIP3    H223813   4.564   5.529   0.891  1.0487  0.9130  0.4217
  752TIP3   OH223814   3.846   4.975   7.188  0.3266 -0.0421 -0.3225
  752TIP3    H123815   3.821   4.942   7.274 -1.7552  0.6619 -0.6074
  752TIP3    H223816   3.937   4.946   7.177 -0.0514 -2.0458  1.1634
  753TIP3   OH223817   1.793   4.425   0.815 -0.0612 -0.1178  0.6278
  753TIP3    H123818   1.812   4.448   0.724 -0.7372  1.0060  0.7506
  753TIP3    H223819   1.762   4.507   0.854 -2.0141 -1.1020  1.2583
  754TIP3   OH223820   5.705   1.018   0.508  0.5578 -0.2830  0.4783
  754TIP3    H123821   5.721   0.989   0.418  2.5013  0.4370  0.5388
  754TIP3    H223822   5.747   0.952   0.562  0.3969 -0.1131  0.8133
  755TIP3   OH223823   4.443   7.141   6.359 -0.1812 -0.2096  0.0004
  755TIP3    H123824   4.469   7.129   6.268  0.3067  0.1735  0.0805
  755TIP3    H223825   4.451   7.236   6.374 -1.5028 -0.0880  0.0796
  756TIP3   OH223826   0.379   5.807   1.287  0.7255  0.2498 -0.0852
  756TIP3    H123827   0.410   5.880   1.234  2.4381  0.1101  0.6630
  756TIP3    H223828   0.300   5.776   1.243  0.7192  1.7078 -1.1378
  757TIP3   OH223829   3.737   1.470   6.294 -0.1361  0.0357 -0.0658
  757TIP3    H123830   3.754   1.393   6.239  0.0498 -1.8057  2.3853
  757TIP3    H223831   3.816   1.524   6.285 -1.2002  1.2986 -3.6657
  758TIP3   OH223832   3.435   6.910   1.603  0.2825 -0.5565  0.3229
  758TIP3    H123833   3.507   6.942   1.548  0.7842 -0.5624  0.9600
  758TIP3    H223834   3.465   6.924   1.693 -0.3245 -0.9832  0.6029
  759TIP3   OH223835   1.900   3.220   1.019 -0.4810 -0.2515 -0.4019
  759TIP3    H123836   1.953   3.187   1.092 -0.7028  2.2174  1.0296
  759TIP3    H223837   1.930   3.310   1.008 -3.4946  0.8810 -0.3054
  760TIP3   OH223838   5.517   2.860   0.801 -0.1270 -0.5080  0.5537
  760TIP3    H123839   5.484   2.894   0.885 -2.2872 -1.2631  0.0686
  760TIP3    H223840   5.439   2.826   0.757  0.9579 -0.1373 -1.7808
  761TIP3   OH223841   4.315   4.115   1.951  0.5163 -0.4457  0.3804
  761TIP3    H123842   4.273   4.196   1.979  2.1613 -0.3119  2.6984
  761TIP3    H223843   4.258   4.082   1.881 -2.2818  0.7487  1.9314
  762TIP3   OH223844   5.268   5.992   0.505 -0.3463  0.0238 -0.7190
  762TIP3    H123845   5.218   5.927   0.455 -0.5876 -0.0222 -0.4240
  762TIP3    H223846   5.202   6.050   0.542 -0.2515 -0.5438  0.3787
  763TIP3   OH223847   3.100   5.749   0.958  0.3060 -0.1323 -0.5532
  763TIP3    H123848   3.163   5.696   1.007  0.8754  1.0379  0.0442
  763TIP3    H223849   3.046   5.686   0.911  2.4901 -1.1745 -1.8257
  764TIP3   OH223850   6.004   2.714   7.731  0.7960  0.2699  0.1697
  764TIP3    H123851   6.071   2.679   7.671  0.4105  1.9433 -1.3090
  764TIP3    H223852   6.005   2.808   7.716 -0.5558  0.5458  1.5670
  765TIP3   OH223853   4.311   0.229   7.580 -0.6220 -0.2470 -0.1115
  765TIP3    H123854   4.336   0.153   7.633  1.3433  0.9612  0.8116
  765TIP3    H223855   4.368   0.299   7.611 -1.3446  1.2356 -1.9682
  766TIP3   OH223856   2.322   1.481   6.839  0.4260 -0.9426 -0.1634
  766TIP3    H123857   2.413   1.481   6.868  0.2213 -0.8616  0.4957
  766TIP3    H223858   2.289   1.393   6.860  0.3169 -0.9313 -0.2837
  767TIP3   OH223859   5.777   6.289   6.880  0.4521  0.1125  0.1293
  767TIP3    H123860   5.751   6.214   6.933  0.3391  0.4869  0.6162
  767TIP3    H223861   5.709   6.355   6.897 -0.0848 -0.0710 -1.1780
  768TIP3   OH223862   3.857   0.666   5.592 -0.6415  0.1296  0.4980
  768TIP3    H123863   3.870   0.735   5.657  0.8291  0.2921  0.0592
  768TIP3    H223864   3.809   0.710   5.521  0.4160  0.7649  0.1519
  769TIP3   OH223865   6.413   1.010   0.024 -0.1030 -0.2595 -0.3139
  769TIP3    H123866   6.482   1.076   0.021  1.9614 -2.2615 -0.7738
  769TIP3    H223867   6.340   1.052   0.069  0.8105  2.5043 -1.2263
  770TIP3   OH223868   6.905   5.732   0.650  0.2588 -0.0090 -0.6111
  770TIP3    H123869   6.945   5.731   0.738  0.6690  1.3549 -0.7508
  770TIP3    H223870   6.938   5.653   0.608  0.2431 -0.5619  0.3904
  771TIP3   OH223871   2.318   0.150   6.470 -0.1401 -0.4129  0.0551
  771TIP3    H123872   2.351   0.146   6.560  0.3007 -1.8560 -0.1581
  771TIP3    H223873   2.223   0.151   6.480 -0.1105 -1.2251  0.5305
  772TIP3   OH223874   6.675   6.828   7.305 -0.3001 -0.6073 -0.2786
  772TIP3    H123875   6.586   6.794   7.318 -0.7730  0.6876 -0.0446
  772TIP3    H223876   6.728   6.749   7.289 -1.1893 -1.5571  1.1815
  773TIP3   OH223877   5.755   4.772   7.713 -0.0330 -0.0059  0.0838
  773TIP3    H123878   5.794   4.848   7.755 -0.1676  0.0891  0.0381
  773TIP3    H223879   5.688   4.808   7.655 -0.7702 -0.2009  0.7824
  774TIP3   OH223880   5.371   1.613   6.583  0.1787 -0.2133  0.1059
  774TIP3    H123881   5.285   1.587   6.549  0.5857 -1.9249  0.2998
  774TIP3    H223882   5.368   1.708   6.585 -0.8962 -0.1258 -2.0759
  775TIP3   OH223883   3.192   0.702   6.324  0.2200  0.4281  0.7619
  775TIP3    H123884   3.248   0.689   6.247  0.1365  0.9981  0.6022
  775TIP3    H223885   3.124   0.763   6.294  0.0546  0.4759  1.2271
  776TIP3   OH223886   5.860   7.142   1.391  0.2975 -0.2271 -0.2598
  776TIP3    H123887   5.835   7.175   1.305 -0.6961  1.7496  0.7172
  776TIP3    H223888   5.836   7.212   1.452  2.0232 -1.0838  1.5217
  777TIP3   OH223889   3.673   5.665   5.940 -0.2853 -0.1610  0.2341
  777TIP3    H123890   3.698   5.579   5.907 -0.9970 -0.2817  0.0098
  777TIP3    H223891   3.624   5.648   6.020 -0.8026  0.0165 -0.0446
  778TIP3   OH223892   5.849   3.347   0.443  0.0937 -0.0336 -0.4906
  778TIP3    H123893   5.941   3.370   0.458 -0.1237  1.5290 -1.4789
  778TIP3    H223894   5.803   3.384   0.518  0.3816 -1.9491  0.7053
  779TIP3   OH223895   2.989   4.387   1.735  0.0696 -0.2661 -0.1004
  779TIP3    H123896   3.018   4.387   1.644  2.1860  1.4459  0.4871
  779TIP3    H223897   2.900   4.353   1.732  0.7762 -2.1677 -2.5446
  780TIP3   OH223898   5.356   2.191   6.633 -0.4152  0.2602 -0.1718
  780TIP3    H123899   5.442   2.149   6.626  0.3917  1.7867  0.2496
  780TIP3    H223900   5.372   2.282   6.610 -2.0554  0.4315 -0.6977
  781TIP3   OH223901   2.075   6.109   2.046 -0.0514 -0.0925  0.0323
  781TIP3    H123902   2.104   6.040   1.986 -0.7881  0.5360 -1.0565
  781TIP3    H223903   2.156   6.152   2.074  0.4921 -1.7655  1.2308
  782TIP3   OH223904   5.947   5.284   0.327 -0.7653 -0.3992 -0.3184
  782TIP3    H123905   5.967   5.272   0.419 -1.7719  0.7521  0.0806
  782TIP3    H223906   6.023   5.249   0.281 -0.3749 -1.2604  0.9234
  783TIP3   OH223907   2.158   3.514   0.036  0.9498 -0.9155 -0.3097
  783TIP3    H123908   2.194   3.557   0.113 -0.4673 -0.7284  0.2836
  783TIP3    H223909   2.084   3.464   0.069 -0.5600  0.2629 -1.7062
  784TIP3   OH223910   2.883   4.969   7.875 -0.0665 -0.3773  0.9250
  784TIP3    H123911   2.842   4.932   7.953 -0.2236 -1.7577  0.1998
  784TIP3    H223912   2.811   4.982   7.814 -0.3904  3.1147  1.8249
  785TIP3   OH223913   3.540   0.944   6.788 -0.0979 -1.1214 -0.2313
  785TIP3    H123914   3.474   0.961   6.856 -0.2734  0.9805 -0.8580
  785TIP3    H223915   3.589   1.026   6.781  1.1771 -1.9266 -1.3194
  786TIP3   OH223916   5.035   3.142   7.460  0.0562  0.5869 -0.3314
  786TIP3    H123917   4.946   3.114   7.437 -0.0819 -1.0265  1.7815
  786TIP3    H223918   5.022   3.205   7.531  0.5763  0.2788  0.0459
  787TIP3   OH223919   6.974   2.473   7.148 -0.4939  0.2582 -0.3759
  787TIP3    H123920   6.979   2.380   7.173 -0.4115  0.4356  0.2868
  787TIP3    H223921   6.881   2.493   7.149 -0.5757 -0.0264 -1.3308
  788TIP3   OH223922   0.094   4.286   1.376  0.1173 -0.5229  0.2635
  788TIP3    H123923   0.056   4.219   1.434 -2.7414 -0.1441 -1.0130
  788TIP3    H223924   0.110   4.240   1.294 -0.2803 -0.0456 -0.0869
  789TIP3   OH223925   3.797   2.377   0.370 -0.2634 -0.5223  0.5493
  789TIP3    H123926   3.705   2.400   0.359  0.1803  0.4990 -1.4296
  789TIP3    H223927   3.799   2.282   0.359 -1.3180 -0.8661  2.7809
  790TIP3   OH223928   3.544   2.673   6.504  0.3062  0.3455  0.2712
  790TIP3    H123929   3.521   2.717   6.422 -1.2054  2.9513  1.9654
  790TIP3    H223930   3.463   2.632   6.534  0.3674  0.9672  1.3371
  791TIP3   OH223931   0.307   1.068   0.700 -0.3043 -0.0205 -0.1511
  791TIP3    H123932   0.289   1.050   0.607  0.0276  2.0419 -0.6801
  791TIP3    H223933   0.263   0.997   0.747 -0.6798 -0.9955 -1.8734
  792TIP3   OH223934   6.708   5.003   0.240  0.2694 -0.2675  0.5190
  792TIP3    H123935   6.625   5.049   0.232 -0.0720 -0.7427  1.2431
  792TIP3    H223936   6.726   5.002   0.334  1.3229  0.2261  0.3376
  793TIP3   OH223937   6.356   3.130   7.228 -0.0494  0.4452  0.4700
  793TIP3    H123938   6.399   3.214   7.209 -0.0042  0.6403  1.4205
  793TIP3    H223939   6.419   3.081   7.279 -0.3576  0.1070  0.5322
  794TIP3   OH223940   3.866   4.024   6.401  0.0760 -0.7335  0.8704
  794TIP3    H123941   3.866   4.058   6.491  0.0085 -1.0554  0.9959
  794TIP3    H223942   3.955   3.992   6.388  0.7953  1.4497 -0.0196
  795TIP3   OH223943   2.620   6.937   0.358  0.0522 -0.6253 -0.2015
  795TIP3    H123944   2.530   6.933   0.389 -0.3454  0.4792 -1.1621
  795TIP3    H223945   2.613   6.948   0.263  1.1330  1.4672 -0.1059
  796TIP3   OH223946   6.917   5.740   0.218  0.1737  0.2273 -0.2237
  796TIP3    H123947   6.989   5.785   0.173 -0.4733  1.3162 -0.2093
  796TIP3    H223948   6.917   5.777   0.306  1.6348 -2.1191  0.8462
  797TIP3   OH223949   0.720   2.273   6.209  0.1344 -0.3511 -0.3096
  797TIP3    H123950   0.664   2.308   6.140  0.1903 -0.6738 -0.5208
  797TIP3    H223951   0.757   2.350   6.251 -1.2016 -0.0973  0.4469
  798TIP3   OH223952   2.465   1.673   0.849 -0.3161  0.0911  0.2722
  798TIP3    H123953   2.384   1.682   0.899 -0.6465  0.9292 -0.3830
  798TIP3    H223954   2.518   1.749   0.874 -0.1483  0.0776 -0.0327
  799TIP3   OH223955   4.544   2.587   7.748 -0.3098  0.4916  0.1823
  799TIP3    H123956   4.621   2.630   7.784  0.3380  0.2720 -0.9274
  799TIP3    H223957   4.488   2.572   7.825  1.3373 -0.6075  1.2408
  800TIP3   OH223958   5.410   1.357   7.818 -0.1745  0.0521  0.2273
  800TIP3    H123959   5.429   1.308   7.738 -0.5387  0.2211  0.0303
  800TIP3    H223960   5.316   1.376   7.812 -0.0020  0.9644  0.1843
  801TIP3   OH223961   1.489   3.065   0.618  0.2692  0.0917  0.1910
  801TIP3    H123962   1.500   3.140   0.676  1.0037 -0.4589  0.7797
  801TIP3    H223963   1.545   2.997   0.655  0.9399 -0.2085 -1.2692
  802TIP3   OH223964   3.944   7.106   1.727 -0.0395 -0.1562  0.5945
  802TIP3    H123965   3.852   7.130   1.739  0.3383  1.6085  0.3062
  802TIP3    H223966   3.973   7.081   1.814 -0.5070  0.4266  0.9329
  803TIP3   OH223967   4.092   4.961   7.054 -0.0171 -0.1255 -0.3673
  803TIP3    H123968   4.035   4.973   6.978  0.7545  0.1475 -0.9183
  803TIP3    H223969   4.162   5.025   7.042  1.3780 -1.6217 -0.6531
  804TIP3   OH223970   4.346   6.523   6.128 -0.1425  0.1419 -0.4292
  804TIP3    H123971   4.258   6.549   6.102 -0.6007 -0.0315  0.8638
  804TIP3    H223972   4.335   6.487   6.216  0.9927 -1.2669 -0.8258
  805TIP3   OH223973   3.624   0.355   0.723  0.0642  0.3107 -0.1683
  805TIP3    H123974   3.679   0.313   0.657  0.9447  0.8220  0.2299
  805TIP3    H223975   3.682   0.368   0.798 -0.6415  0.7255  0.3160
  806TIP3   OH223976   4.881   5.415   6.937  0.1514  0.1918 -0.8028
  806TIP3    H123977   4.925   5.486   6.891  1.8614 -0.6239 -0.5212
  806TIP3    H223978   4.946   5.345   6.941 -1.2948 -1.2001 -0.5951
  807TIP3   OH223979   3.857   6.090   7.448 -0.2043  0.4236 -0.2773
  807TIP3    H123980   3.819   6.138   7.374 -3.3622 -1.7826 -0.2887
  807TIP3    H223981   3.909   6.021   7.407 -0.4480  0.3156 -0.4083
  808TIP3   OH223982   3.338   3.574   6.680  0.0824 -0.2882  0.7067
  808TIP3    H123983   3.346   3.667   6.698  3.0187 -0.3747  0.3198
  808TIP3    H223984   3.422   3.537   6.706 -0.5457 -2.6276 -0.3096
  809TIP3   OH223985   1.573   3.747   7.746  0.0010 -0.3330  0.5207
  809TIP3    H123986   1.644   3.753   7.810  0.1513 -2.2554  0.5730
  809TIP3    H223987   1.498   3.786   7.791  0.4300 -0.4597  1.3741
  810TIP3   OH223988   0.519   3.951   6.849  0.3520  0.0998 -0.1070
  810TIP3    H123989   0.549   3.889   6.782  1.1481  0.0330  0.2987
  810TIP3    H223990   0.528   3.904   6.932 -1.5997 -0.1754 -0.0191
  811TIP3   OH223991   2.477   4.236   1.084 -0.1725 -0.3944  0.3384
  811TIP3    H123992   2.542   4.226   1.014 -1.8064 -1.7415 -1.0499
  811TIP3    H223993   2.395   4.252   1.038 -1.1417 -0.4259  2.0087
  812TIP3   OH223994   0.343   6.122   6.656 -0.0888 -0.3533  0.1837
  812TIP3    H123995   0.333   6.069   6.577 -0.6985  0.1634 -0.0967
  812TIP3    H223996   0.278   6.087   6.717 -0.6744  0.2160 -0.0940
  813TIP3   OH223997   4.125   1.518   0.806 -0.2225  0.1216 -0.1337
  813TIP3    H123998   4.110   1.439   0.754 -0.2256 -0.5703  0.8867
  813TIP3    H223999   4.111   1.490   0.896 -0.5813  1.3866  0.2205
  814TIP3   OH224000   6.848   0.249   7.872  0.2710 -0.0690 -0.3401
  814TIP3    H124001   6.904   0.194   7.928 -0.9071 -0.4743  0.4972
  814TIP3    H224002   6.827   0.193   7.798 -0.0592 -0.3780 -0.0185
  815TIP3   OH224003   5.845   6.487   6.616 -0.0564  0.6896  0.1254
  815TIP3    H124004   5.870   6.510   6.527  0.7352  0.8067  0.3688
  815TIP3    H224005   5.758   6.525   6.627 -0.2038  0.5830 -0.6300
  816TIP3   OH224006   7.089   2.059   1.383  0.5258  0.1710 -0.0887
  816TIP3    H124007   6.994   2.067   1.392  0.1329 -0.5834 -2.7333
  816TIP3    H224008   7.116   2.013   1.463 -1.5703 -1.0458  0.0264
  817TIP3   OH224009   1.459   6.359   0.627 -0.7962  0.1702 -0.4075
  817TIP3    H124010   1.372   6.330   0.598 -1.0573 -0.2326  0.7317
  817TIP3    H224011   1.463   6.333   0.719 -0.2515  2.0041  0.1118
  818TIP3   OH224012   4.543   6.817   0.150  0.2714 -0.0342 -0.2252
  818TIP3    H124013   4.575   6.815   0.059  0.3535 -0.0017 -0.1973
  818TIP3    H224014   4.591   6.890   0.190  0.9769 -0.6753  0.1243
  819TIP3   OH224015   3.477   6.975   6.965 -0.2994 -0.2173  0.5344
  819TIP3    H124016   3.465   6.893   7.012  1.6407 -2.1361 -2.0233
  819TIP3    H224017   3.572   6.986   6.961 -0.4945  1.5917 -0.1205
  820TIP3   OH224018   6.563   1.739   6.628 -0.4973  0.4917  0.1980
  820TIP3    H124019   6.494   1.703   6.572  0.7812 -0.6513 -0.7216
  820TIP3    H224020   6.578   1.672   6.694 -0.3678  0.8193  0.5077
  821TIP3   OH224021   0.559   4.900   2.031  0.0404  0.1136 -0.3130
  821TIP3    H124022   0.630   4.843   2.002 -0.6972 -0.9230 -0.1269
  821TIP3    H224023   0.600   4.986   2.040  1.5177 -0.6597  0.7817
  822TIP3   OH224024   1.998   6.048   6.397  0.4394  0.1132  0.3867
  822TIP3    H124025   2.072   6.103   6.421  0.7469 -0.3155  0.4345
  822TIP3    H224026   1.925   6.079   6.451  1.0984 -0.8087  1.8578
  823TIP3   OH224027   2.040   2.531   7.047 -0.0115  0.6033  0.4514
  823TIP3    H124028   1.980   2.588   6.999 -1.0831 -1.3362 -0.6949
  823TIP3    H224029   2.114   2.587   7.070 -1.2545  2.5542 -0.0464
  824TIP3   OH224030   6.087   5.199   7.752  0.2931 -0.4304  0.1046
  824TIP3    H124031   6.112   5.139   7.822 -1.1738  0.0305  1.0839
  824TIP3    H224032   6.103   5.286   7.788  2.4930 -0.1681 -1.3402
  825TIP3   OH224033   4.484   6.734   7.645 -0.4593  0.6421  0.2147
  825TIP3    H124034   4.577   6.709   7.646 -0.4581  0.5321 -1.2381
  825TIP3    H224035   4.448   6.691   7.723  1.0718  2.2971  1.9512
  826TIP3   OH224036   0.030   1.245   8.011 -0.4587  0.1128 -0.0339
  826TIP3    H124037  -0.019   1.163   8.009 -0.0999 -0.0889 -0.9021
  826TIP3    H224038   0.115   1.224   7.974  0.3073  0.4729  1.4491
  827TIP3   OH224039   4.893   1.483   6.157  0.1253 -0.3629  0.2325
  827TIP3    H124040   4.909   1.564   6.110 -0.8931 -0.5364 -0.4421
  827TIP3    H224041   4.852   1.425   6.093  1.4470 -1.6640  0.5014
  828TIP3   OH224042   4.536   0.376   7.680  0.2709 -0.4617  1.6715
  828TIP3    H124043   4.557   0.337   7.765  0.9224 -4.0487  0.0342
  828TIP3    H224044   4.616   0.365   7.628 -0.5325  0.4383  0.1888
  829TIP3   OH224045   3.756   5.752   7.747  0.1354 -0.2745  0.1408
  829TIP3    H124046   3.833   5.786   7.794  0.3619 -1.4201  0.6407
  829TIP3    H224047   3.791   5.721   7.663 -0.3589  2.2905 -1.1090
  830TIP3   OH224048   3.665   3.053   0.116 -0.0307 -0.3722  0.3862
  830TIP3    H124049   3.717   3.103   0.054 -0.6784  0.7681  0.7362
  830TIP3    H224050   3.581   3.098   0.119 -0.5337 -1.2994  0.9564
  831TIP3   OH224051   6.987   4.330   7.336 -0.0802  0.1788  0.2908
  831TIP3    H124052   6.956   4.289   7.417 -2.2394  0.1019 -0.4826
  831TIP3    H224053   6.928   4.295   7.269  1.3767  0.5729 -1.2545
  832TIP3   OH224054   3.768   6.345   1.453  0.3599  0.0441 -0.3579
  832TIP3    H124055   3.785   6.309   1.540 -0.1797 -2.0248 -1.0634
  832TIP3    H224056   3.841   6.313   1.400  0.5683  1.1183 -0.7565
  833TIP3   OH224057   4.449   6.893   6.938 -0.1229 -0.2490 -0.2405
  833TIP3    H124058   4.464   6.926   6.850 -1.0271 -0.4399 -0.4856
  833TIP3    H224059   4.526   6.919   6.988 -0.5645  1.7800 -0.5468
  834TIP3   OH224060   0.546   3.843   1.360  0.3316 -0.3163  0.2054
  834TIP3    H124061   0.595   3.806   1.286 -0.1405 -0.9419  0.1984
  834TIP3    H224062   0.608   3.841   1.433  0.5621 -0.3918  0.0095
  835TIP3   OH224063   0.713   3.563   7.242 -0.1517  0.4819  0.0250
  835TIP3    H124064   0.792   3.596   7.284  0.0400  0.8008 -0.5616
  835TIP3    H224065   0.740   3.479   7.203 -0.9532 -1.0786  2.5661
  836TIP3   OH224066   3.901   1.190   7.007 -0.3436  0.3312  0.5972
  836TIP3    H124067   3.841   1.187   6.933  0.9873  0.8116 -0.5275
  836TIP3    H224068   3.844   1.177   7.084 -1.9536  1.2672 -0.3788
  837TIP3   OH224069   4.824   0.107   0.363  0.2124  0.1399 -0.5900
  837TIP3    H124070   4.851   0.120   0.454  0.2348  0.0502 -0.5837
  837TIP3    H224071   4.813   0.196   0.328 -1.2554  0.2060 -0.0663
  838TIP3   OH224072   6.419   5.200   1.936 -0.3351  0.8891 -0.4196
  838TIP3    H124073   6.469   5.139   1.882 -1.0956  1.1788 -1.5035
  838TIP3    H224074   6.427   5.166   2.025 -0.2725 -0.4650 -0.9156
  839TIP3   OH224075   4.716   6.286   6.585 -0.2985  0.1959 -0.0976
  839TIP3    H124076   4.741   6.377   6.602 -0.2242  0.5055 -1.6788
  839TIP3    H224077   4.791   6.234   6.613 -0.6902  0.5181  1.6577
  840TIP3   OH224078   5.381   1.517   2.024 -0.4353  0.5578  0.0301
  840TIP3    H124079   5.466   1.555   2.048  0.2393 -1.3778  0.8643
  840TIP3    H224080   5.317   1.580   2.058  0.6236  1.8675 -0.2744
  841TIP3   OH224081   0.743   1.822   7.260 -0.0607 -0.2924  0.0262
  841TIP3    H124082   0.774   1.852   7.174  0.1029 -1.7074 -0.4506
  841TIP3    H224083   0.652   1.796   7.244  0.8421 -3.6306 -0.6360
  842TIP3   OH224084   6.082   3.763   1.320  0.5027  0.3229  0.2595
  842TIP3    H124085   6.157   3.710   1.346 -0.6862 -0.8024  1.6048
  842TIP3    H224086   6.101   3.850   1.355  0.2767 -0.4563  2.5402
  843TIP3   OH224087   2.513   3.022   7.352  0.1907  0.4225  0.2575
  843TIP3    H124088   2.492   2.938   7.312  0.6818  0.2331  0.3759
  843TIP3    H224089   2.429   3.066   7.363 -0.2900 -0.7942  1.8210
  844TIP3   OH224090   2.957   5.596   1.382 -0.1670  0.0232 -0.1929
  844TIP3    H124091   2.882   5.572   1.328 -0.6026  1.9882 -0.5082
  844TIP3    H224092   2.919   5.631   1.463  0.4640 -1.1706  0.6583
  845TIP3   OH224093   4.111   1.951   0.036  0.1731  0.1877 -0.5204
  845TIP3    H124094   4.038   1.892   0.053  2.0653 -1.6269  2.0367
  845TIP3    H224095   4.106   2.016   0.107  2.2091 -1.2660  1.0515
  846TIP3   OH224096   3.137   4.413   6.371  0.6063 -0.3578  0.2365
  846TIP3    H124097   3.158   4.501   6.402  2.2657 -1.1594  1.5755
  846TIP3    H224098   3.221   4.366   6.373 -0.1862 -1.8938 -0.7113
  847TIP3   OH224099   1.642   5.835   7.055  0.0741 -0.3633 -0.3116
  847TIP3    H124100   1.578   5.904   7.037  0.9021  0.8872  1.3285
  847TIP3    H224101   1.642   5.782   6.975 -1.5040  0.7792 -1.1357
  848TIP3   OH224102   4.801   1.044   7.061 -0.4202 -0.1684  0.1056
  848TIP3    H124103   4.731   1.043   6.995  0.2812 -1.8215 -0.6427
  848TIP3    H224104   4.756   1.026   7.144 -0.9610 -0.6090 -0.2819
  849TIP3   OH224105   6.529   2.235   6.447  0.2264 -0.6930 -0.1990
  849TIP3    H124106   6.467   2.193   6.387  1.6421 -0.6627 -1.7384
  849TIP3    H224107   6.561   2.163   6.502 -0.3070 -0.9082 -0.1621
  850TIP3   OH224108   2.186   0.120   7.716 -0.4904 -0.1553 -0.0716
  850TIP3    H124109   2.161   0.036   7.677 -1.1395  0.0965 -0.2127
  850TIP3    H224110   2.228   0.168   7.645  0.0379 -0.4219  0.0553
  851TIP3   OH224111   5.519   0.236   6.139  0.1003  0.0325  0.0968
  851TIP3    H124112   5.448   0.222   6.076  0.5444 -1.5295 -0.0880
  851TIP3    H224113   5.491   0.313   6.188 -1.7124 -0.4936 -0.0116
  852TIP3   OH224114   1.629   6.932   1.560  0.0434 -0.0449  0.0502
  852TIP3    H124115   1.632   6.892   1.647 -0.8983 -1.2279 -0.4258
  852TIP3    H224116   1.703   6.993   1.558  0.8773 -0.9886  1.1963
  853TIP3   OH224117   6.512   0.377   1.172  0.0638  0.5665 -0.3761
  853TIP3    H124118   6.418   0.392   1.167  0.1792  0.9307 -2.0782
  853TIP3    H224119   6.534   0.334   1.090  1.3926  0.4925 -0.0019
  854TIP3   OH224120   4.723   2.220   6.710 -0.1693 -0.3149  0.1559
  854TIP3    H124121   4.715   2.133   6.671  1.1851 -0.0143 -0.8515
  854TIP3    H224122   4.689   2.279   6.642 -0.8780 -0.0238  0.7477
  855TIP3   OH224123   4.889   4.740   7.929 -0.0765 -0.2840  0.3354
  855TIP3    H124124   4.978   4.774   7.933  0.0340 -0.5818  0.4425
  855TIP3    H224125   4.883   4.680   8.003 -0.2795 -0.4703  0.1696
  856TIP3   OH224126   0.926   2.991   0.902  0.2045  0.3201  0.3475
  856TIP3    H124127   0.892   2.913   0.946  1.3547  0.9146  2.3747
  856TIP3    H224128   1.018   2.972   0.886  0.1609  0.7205 -0.4594
  857TIP3   OH224129   0.168   3.848   7.905  0.8208 -0.5922 -0.0068
  857TIP3    H124130   0.116   3.889   7.974 -1.4310 -1.8379 -0.8326
  857TIP3    H224131   0.132   3.884   7.824  1.5356 -1.2031 -0.6118
  858TIP3   OH224132   1.486   7.051   1.363 -0.1644 -0.1762 -0.0071
  858TIP3    H124133   1.531   7.016   1.440  1.1020  3.7996  1.2802
  858TIP3    H224134   1.553   7.053   1.295 -0.0387  0.2976  0.1261
  859TIP3   OH224135   3.806   4.779   6.404 -0.2395 -0.2239 -1.0699
  859TIP3    H124136   3.813   4.807   6.495  2.1957 -1.8617 -0.6302
  859TIP3    H224137   3.841   4.852   6.353 -1.3218  0.5752 -0.6936
  860TIP3   OH224138   4.701   1.759   1.224 -0.1142 -0.6338  0.1672
  860TIP3    H124139   4.648   1.824   1.269  0.7619 -0.0481  0.3819
  860TIP3    H224140   4.638   1.704   1.178 -0.8869  0.1739  0.2354
  861TIP3   OH224141   4.706   3.645   1.071  0.1687 -0.2432  0.4639
  861TIP3    H124142   4.758   3.725   1.072  0.1562 -0.1974  2.7058
  861TIP3    H224143   4.646   3.655   1.145 -0.5867 -1.8575  0.1113
  862TIP3   OH224144   4.019   3.031   7.137 -0.0356 -0.0150 -0.0561
  862TIP3    H124145   4.051   3.107   7.185  1.0772  0.3634 -1.3405
  862TIP3    H224146   4.055   2.956   7.183 -3.4742 -0.0697  3.0092
  863TIP3   OH224147   2.836   5.350   1.801  0.5854 -0.0504 -0.6889
  863TIP3    H124148   2.848   5.441   1.773  1.3537  0.9715  2.5518
  863TIP3    H224149   2.774   5.355   1.873 -0.8576 -2.4184 -1.6486
  864TIP3   OH224150   0.149   6.430   1.784 -0.6664  0.3328 -0.0705
  864TIP3    H124151   0.093   6.507   1.794  0.5922  1.1598  0.9419
  864TIP3    H224152   0.093   6.356   1.808 -1.7292  0.9653 -0.5062
  865TIP3   OH224153   5.793   4.066   1.204 -0.0169  0.4923  0.7000
  865TIP3    H124154   5.749   4.125   1.142  1.4683 -0.7337 -1.6761
  865TIP3    H224155   5.885   4.072   1.181  0.6763  0.2971  3.1723
  866TIP3   OH224156   0.925   6.702   0.515  0.1349 -0.4198  0.1981
  866TIP3    H124157   1.017   6.707   0.490 -0.0303  2.1846 -0.1037
  866TIP3    H224158   0.881   6.766   0.460 -2.1784 -2.6111 -0.7099
  867TIP3   OH224159   4.421   1.498   5.722 -0.0421 -0.3086  0.1814
  867TIP3    H124160   4.461   1.450   5.649  1.4053  1.5417 -0.3097
  867TIP3    H224161   4.484   1.487   5.794  0.8394  1.6171 -0.2394
  868TIP3   OH224162   5.178   0.263   7.224 -0.1985  0.1416  0.3874
  868TIP3    H124163   5.231   0.211   7.163 -1.7154  0.3984 -1.2672
  868TIP3    H224164   5.239   0.324   7.264  0.9412 -0.3056 -0.5968
  869TIP3   OH224165   7.087   4.011   6.180 -1.0520  0.2541 -0.5141
  869TIP3    H124166   6.998   4.028   6.150 -1.2285  0.3331  0.0348
  869TIP3    H224167   7.109   4.086   6.235 -1.4259 -0.7119  1.0110
  870TIP3   OH224168   6.683   2.181   0.046 -0.1671 -0.0494  0.1143
  870TIP3    H124169   6.668   2.189   0.140  0.3346 -0.6355  0.2550
  870TIP3    H224170   6.614   2.233   0.005  0.1963  1.0134  0.8273
  871TIP3   OH224171   6.850   6.764   5.702 -0.8152 -0.1524 -0.0246
  871TIP3    H124172   6.864   6.856   5.681  0.9175 -0.3438  0.1411
  871TIP3    H224173   6.780   6.764   5.767  0.0047  1.1394  0.8790
  872TIP3   OH224174   3.785   6.164   7.194 -0.0607 -0.4207  0.4005
  872TIP3    H124175   3.709   6.168   7.136 -0.3122 -1.0765  0.6827
  872TIP3    H224176   3.859   6.149   7.135 -0.3610 -1.4681  0.2799
  873TIP3   OH224177   5.007   5.618   0.756 -0.0250  0.3687 -0.2923
  873TIP3    H124178   5.067   5.680   0.715  0.3749  1.5157  1.8770
  873TIP3    H224179   5.061   5.541   0.775  0.1597  0.4381 -0.5364
  874TIP3   OH224180   2.381   6.785   6.228  0.3394 -0.7604  0.0925
  874TIP3    H124181   2.303   6.781   6.174  0.6151 -1.6231 -0.2642
  874TIP3    H224182   2.442   6.723   6.187  1.3512  0.1839  0.1356
  875TIP3   OH224183   4.724   2.207   0.123  0.0289 -0.3790 -0.7051
  875TIP3    H124184   4.676   2.244   0.049  0.7385  2.7105  0.2650
  875TIP3    H224185   4.704   2.265   0.196  1.4507 -1.8098  0.8953
  876TIP3   OH224186   3.862   0.979   7.311 -0.0766  0.4140  0.2477
  876TIP3    H124187   3.771   0.970   7.285  0.6173 -1.8206 -1.8446
  876TIP3    H224188   3.867   0.940   7.398 -1.0360  0.0416  0.1420
  877TIP3   OH224189   2.344   0.493   1.933  0.6447 -0.1372 -0.4342
  877TIP3    H124190   2.412   0.545   1.890 -0.8112  0.7176 -1.8033
  877TIP3    H224191   2.267   0.550   1.932 -0.1025 -1.0596  1.1327
  878TIP3   OH224192   4.373   5.374   7.520 -0.9121  0.2271 -0.2324
  878TIP3    H124193   4.419   5.342   7.443 -1.6276  1.4065 -1.1861
  878TIP3    H224194   4.439   5.421   7.571  0.1518 -2.6170  1.1871
  879TIP3   OH224195   0.485   0.172   6.854 -0.6986 -0.1626  0.1406
  879TIP3    H124196   0.478   0.153   6.947  4.6059 -1.2356  0.6427
  879TIP3    H224197   0.490   0.267   6.848 -1.0764 -0.0878  0.9706
  880TIP3   OH224198   3.446   2.526   7.966  0.5950 -0.0187 -0.4382
  880TIP3    H124199   3.509   2.462   7.999  1.4706  1.3726  0.6869
  880TIP3    H224200   3.499   2.596   7.930 -0.2925  1.0016  0.1705
  881TIP3   OH224201   1.077   6.186   1.106 -0.5966 -0.1854  0.2222
  881TIP3    H124202   1.026   6.112   1.138  2.1124 -2.4525 -0.2405
  881TIP3    H224203   1.168   6.164   1.129  0.2941  3.5620  1.0134
  882TIP3   OH224204   2.328   7.008   7.705 -0.1467  0.8156 -0.1308
  882TIP3    H124205   2.378   7.088   7.688  0.6662  0.0825 -1.3713
  882TIP3    H224206   2.339   6.956   7.625  2.1449 -1.9809  1.7904
  883TIP3   OH224207   5.012   5.116   7.860 -0.2190 -0.1367  0.2740
  883TIP3    H124208   5.101   5.082   7.872 -0.3349 -1.4894 -2.0208
  883TIP3    H224209   4.956   5.040   7.869 -1.1616  0.6538  1.3834
  884TIP3   OH224210   1.947   2.291   7.629 -0.3734 -0.9812 -0.0315
  884TIP3    H124211   1.882   2.250   7.573 -0.4067 -1.1964  0.1626
  884TIP3    H224212   1.903   2.367   7.667 -0.2291 -0.6089 -0.5985
  885TIP3   OH224213   5.558   3.764   0.986 -0.6313 -0.3747  0.2908
  885TIP3    H124214   5.638   3.745   1.035  0.4436 -0.0765 -1.2966
  885TIP3    H224215   5.572   3.851   0.949 -1.6602 -0.3529 -0.0833
  886TIP3   OH224216   3.091   6.064   0.198  0.1293 -0.3809  0.0894
  886TIP3    H124217   3.066   6.111   0.119  2.4269 -0.1068 -0.5674
  886TIP3    H224218   3.082   6.129   0.268 -0.0659 -0.0283 -0.2557
  887TIP3   OH224219   2.742   2.858   7.707 -0.4622  0.0690 -0.1114
  887TIP3    H124220   2.831   2.868   7.672  0.1694 -0.1748  1.3347
  887TIP3    H224221   2.755   2.837   7.799 -2.0000 -1.2452 -0.1462
  888TIP3   OH224222   2.710   5.510   6.332  0.0475  0.2041 -0.3145
  888TIP3    H124223   2.712   5.564   6.411  1.1332 -0.5052  0.1704
  888TIP3    H224224   2.734   5.423   6.363  0.1657 -0.1548 -1.3854
  889TIP3   OH224225   5.024   6.225   7.369 -0.6046  0.0018  0.3142
  889TIP3    H124226   4.990   6.159   7.430  0.8628  0.6760  1.9473
  889TIP3    H224227   5.104   6.187   7.334 -1.8704 -0.7516 -1.9862
  890TIP3   OH224228   6.455   2.745   0.018 -0.2635  0.2654  0.4904
  890TIP3    H124229   6.379   2.799  -0.002 -0.5631  0.0684  1.1024
  890TIP3    H224230   6.454   2.677  -0.049  1.1340  1.9858 -1.4252
  891TIP3   OH224231   2.827   0.119   7.842 -0.1274  0.0957 -0.2026
  891TIP3    H124232   2.834   0.044   7.782  1.2908  1.6332 -2.1231
  891TIP3    H224233   2.902   0.174   7.818 -1.2458  2.2190  0.9888
  892TIP3   OH224234   0.209   4.818   1.463 -0.6109  0.1373  0.7571
  892TIP3    H124235   0.180   4.735   1.423 -1.1015 -0.3249  2.0323
  892TIP3    H224236   0.283   4.793   1.519 -1.1952  0.4383  1.6819
  893TIP3   OH224237   2.216   1.702   6.635 -0.5642  0.1330  0.8241
  893TIP3    H124238   2.295   1.744   6.601 -0.5445 -0.2691  0.3468
  893TIP3    H224239   2.242   1.669   6.721 -0.3721  0.4709  0.8976
  894TIP3   OH224240   6.477   1.303   7.764  0.4152  0.5988 -0.1018
  894TIP3    H124241   6.531   1.354   7.824  0.6742 -0.5257  0.6624
  894TIP3    H224242   6.539   1.242   7.723  0.0749  0.7132 -0.7873
  895TIP3   OH224243   3.220   2.521   7.661 -0.1473  0.4076  0.4968
  895TIP3    H124244   3.272   2.598   7.682 -1.3519  1.1584  0.8012
  895TIP3    H224245   3.186   2.490   7.745  1.2730 -1.1966  0.5461
  896TIP3   OH224246   6.585   6.228   0.626 -0.2717 -0.0251  0.0714
  896TIP3    H124247   6.640   6.246   0.549 -1.0056  1.2093 -0.1725
  896TIP3    H224248   6.614   6.141   0.655  0.3255 -0.3279 -1.3301
  897TIP3   OH224249   6.716   3.853   0.234  0.1800  0.3491  0.0272
  897TIP3    H124250   6.803   3.815   0.244 -0.6386 -0.8894  4.6417
  897TIP3    H224251   6.655   3.782   0.255 -1.8308  1.9219 -0.1162
  898TIP3   OH224252   1.717   6.241   0.242  0.0904  0.5596 -0.0223
  898TIP3    H124253   1.636   6.204   0.205  0.3357 -0.1116  0.0952
  898TIP3    H224254   1.729   6.195   0.325  1.5557 -0.6899 -0.8722
  899TIP3   OH224255   7.012   4.637   5.880  0.0231 -0.1496 -0.0076
  899TIP3    H124256   7.051   4.725   5.879  1.9651 -0.9400  0.7397
  899TIP3    H224257   7.017   4.608   5.789 -1.4702  0.8226 -0.4310
  900TIP3   OH224258   1.983   3.358   6.308  0.0654  0.6504  0.0514
  900TIP3    H124259   1.915   3.312   6.259 -0.1447  2.1157 -1.0954
  900TIP3    H224260   1.989   3.444   6.266  1.7739  0.9903  0.9136
  901TIP3   OH224261   4.771   4.134   0.258 -0.3361  0.0622  0.1570
  901TIP3    H124262   4.760   4.098   0.170  0.6276  1.8260 -0.7498
  901TIP3    H224263   4.687   4.176   0.277 -0.5438 -0.3114  0.0612
  902TIP3   OH224264   4.251   4.619   7.961 -0.0304 -0.5926  0.3109
  902TIP3    H124265   4.226   4.543   7.909  0.4082 -1.1582  0.9140
  902TIP3    H224266   4.227   4.596   8.051 -3.0314  1.3222  0.1201
  903TIP3   OH224267   0.652   0.106   1.437 -0.0307 -0.0112  0.6840
  903TIP3    H124268   0.707   0.120   1.360  0.6475  0.1975  1.1969
  903TIP3    H224269   0.618   0.018   1.425  2.0051 -0.9554  1.3012
  904TIP3   OH224270   4.986   1.842   7.093 -0.0462  0.2652 -0.0790
  904TIP3    H124271   4.913   1.900   7.072 -2.0456 -1.9066  0.4144
  904TIP3    H224272   4.971   1.816   7.183  0.5529 -1.2922 -0.3994
  905TIP3   OH224273   5.856   3.853   0.002  0.4298  0.0831  0.3766
  905TIP3    H124274   5.851   3.898  -0.083  3.0855  1.8980  1.0378
  905TIP3    H224275   5.834   3.762  -0.018  0.2339  0.5922 -2.1319
  906TIP3   OH224276   4.549   1.258   7.480 -0.5079  0.5239 -0.5253
  906TIP3    H124277   4.457   1.239   7.461 -1.1920  1.5711  1.3775
  906TIP3    H224278   4.564   1.345   7.443  0.1018 -0.1215 -1.8580
  907TIP3   OH224279   0.257   5.597   5.953 -0.5229 -0.1718  0.2464
  907TIP3    H124280   0.297   5.536   5.891 -0.6338 -0.5704  0.5604
  907TIP3    H224281   0.280   5.684   5.919  1.9728 -0.3564  1.2523
  908TIP3   OH224282   0.465   4.900   1.761  0.0569  0.3596 -0.3016
  908TIP3    H124283   0.385   4.954   1.766  0.4837  0.9745  0.0613
  908TIP3    H224284   0.487   4.882   1.852  0.5735  0.5653 -0.3821
  909TIP3   OH224285   6.153   5.222   2.084 -0.2804  0.3527 -0.3919
  909TIP3    H124286   6.161   5.202   1.991 -0.4262 -2.3191  0.0742
  909TIP3    H224287   6.237   5.196   2.121 -0.8346 -0.3094  0.4439
  910TIP3   OH224288   1.120   6.930   7.453  0.4732  0.3535  0.2293
  910TIP3    H124289   1.167   6.882   7.521  0.2311 -0.1293  0.0539
  910TIP3    H224290   1.172   6.917   7.374 -0.3150 -0.7686 -0.1247
  911TIP3   OH224291   4.238   6.553   5.713 -0.1349 -0.0144  0.6129
  911TIP3    H124292   4.214   6.638   5.676 -0.2430 -0.5403 -0.5651
  911TIP3    H224293   4.308   6.574   5.775  1.4050  0.7303 -1.2569
  912TIP3   OH224294   4.587   6.034   5.877  0.9068  1.2081  0.2179
  912TIP3    H124295   4.649   5.965   5.858  1.3605  1.4762  0.6927
  912TIP3    H224296   4.640   6.113   5.888  0.3425  1.7666 -0.9360
  913TIP3   OH224297   3.533   0.642   0.747 -0.2528  0.7229  0.2752
  913TIP3    H124298   3.494   0.672   0.828 -0.3560  1.2488  0.0313
  913TIP3    H224299   3.543   0.547   0.759 -1.0292  0.6763  0.5744
  914TIP3   OH224300   0.251   0.118   6.719 -0.2014 -0.6382 -0.1882
  914TIP3    H124301   0.329   0.173   6.722 -0.1622 -0.7407  1.4658
  914TIP3    H224302   0.220   0.125   6.629  0.6294  0.9181 -0.3806
  915TIP3   OH224303   0.921   1.858   0.538 -0.4807 -0.4440  0.0583
  915TIP3    H124304   0.854   1.924   0.553 -0.5670 -0.4888 -0.1405
  915TIP3    H224305   0.959   1.843   0.625  0.1768  0.5518 -0.0430
  916TIP3   OH224306   5.039   1.145   5.497 -0.1065  0.4009 -0.7243
  916TIP3    H124307   5.130   1.170   5.481  0.3059 -0.5592  0.0651
  916TIP3    H224308   5.035   1.124   5.590 -0.8151 -0.8934 -1.0245
  917TIP3   OH224309   0.522   5.082   6.512  0.2444 -0.4586 -0.6176
  917TIP3    H124310   0.537   5.117   6.599 -0.5546 -1.5193 -0.0235
  917TIP3    H224311   0.587   5.125   6.457  1.7368 -0.8322  0.7686
  918TIP3   OH224312   1.754   4.341   7.141 -0.4876  0.6255 -0.7233
  918TIP3    H124313   1.762   4.286   7.064  1.2815  2.5393 -2.0280
  918TIP3    H224314   1.842   4.378   7.154 -1.1308  1.6451  1.2214
  919TIP3   OH224315   5.574   4.588   6.821  0.3021  0.4261  0.0430
  919TIP3    H124316   5.634   4.612   6.751  1.1302 -0.2925  0.4922
  919TIP3    H224317   5.494   4.638   6.803 -0.2836 -1.2863 -2.6034
  920TIP3   OH224318   6.338   6.600   6.880  0.2264  0.3360 -0.2085
  920TIP3    H124319   6.271   6.668   6.866 -1.1672 -0.7819  0.7232
  920TIP3    H224320   6.291   6.528   6.922  1.8817 -0.8131 -0.2121
  921TIP3   OH224321   4.030   7.131   7.450 -0.3968 -0.1165  0.2503
  921TIP3    H124322   3.989   7.192   7.511  0.5553  1.5722 -0.7178
  921TIP3    H224323   4.095   7.085   7.503  0.0877  0.9821  0.6477
  922TIP3   OH224324   7.105   1.505   0.979 -0.0977 -0.4236  0.3610
  922TIP3    H124325   7.052   1.442   1.027  1.6028 -1.9056  0.4220
  922TIP3    H224326   7.151   1.554   1.047  1.7502 -2.0280  0.3818
  923TIP3   OH224327   5.659   5.289   1.507  0.1543 -0.4734 -0.4538
  923TIP3    H124328   5.608   5.247   1.576 -0.7004  0.3744 -0.5310
  923TIP3    H224329   5.715   5.220   1.472 -0.6640 -1.3441 -0.0869
  924TIP3   OH224330   3.258   5.809   7.492  0.5266 -0.0402 -0.1166
  924TIP3    H124331   3.336   5.764   7.526  1.3693  1.4138 -0.0501
  924TIP3    H224332   3.213   5.841   7.570 -0.0218 -0.6585 -0.1697
  925TIP3   OH224333   1.213   5.754   7.840 -0.5238 -0.2429 -0.6954
  925TIP3    H124334   1.265   5.834   7.832  0.9585 -1.1255 -0.1872
  925TIP3    H224335   1.210   5.718   7.752 -1.9486  0.7937 -1.1053
  926TIP3   OH224336   6.326   5.709   7.392 -0.0420  0.2440  0.5005
  926TIP3    H124337   6.271   5.711   7.470 -0.8265  1.7504 -0.0399
  926TIP3    H224338   6.289   5.776   7.335 -0.7822 -2.1713 -2.0819
  927TIP3   OH224339   0.408   1.142   0.266 -0.2387 -0.0740  0.3805
  927TIP3    H124340   0.471   1.071   0.262 -0.9301 -0.6671 -0.4033
  927TIP3    H224341   0.323   1.100   0.249 -0.5964  1.0050 -0.6754
  928TIP3   OH224342   4.940   1.654   0.646 -0.1660 -0.6256 -0.4237
  928TIP3    H124343   4.872   1.678   0.709 -0.9082 -1.3909 -0.9363
  928TIP3    H224344   5.009   1.616   0.701  0.1273  0.6595  0.1604
  929TIP3   OH224345   5.912   6.575   6.333 -0.3361  0.7030 -0.3284
  929TIP3    H124346   5.994   6.586   6.285 -0.2874 -1.2641 -0.7785
  929TIP3    H224347   5.875   6.493   6.299 -1.7490  0.7835  0.9185
  930TIP3   OH224348   1.245   0.435   1.254  0.2536 -0.1208 -0.0988
  930TIP3    H124349   1.303   0.494   1.302 -0.8577  2.2323 -1.4300
  930TIP3    H224350   1.165   0.432   1.306 -0.1210  0.5581 -0.6202
  931TIP3   OH224351   2.884   0.154   7.535  0.1159 -0.3391 -1.1380
  931TIP3    H124352   2.804   0.162   7.587  0.5643 -1.2308 -0.2862
  931TIP3    H224353   2.859   0.186   7.448  0.0947  3.9162  0.2126
  932TIP3   OH224354   1.633   5.630   7.591 -0.8222 -0.1223 -0.2313
  932TIP3    H124355   1.639   5.553   7.647  0.4171 -0.5327 -0.8876
  932TIP3    H224356   1.722   5.644   7.560 -1.3617  0.4614 -1.6041
  933TIP3   OH224357   6.380   1.578   0.148 -0.6290 -0.2142 -0.0479
  933TIP3    H124358   6.323   1.545   0.078 -1.1932  0.2586  0.1734
  933TIP3    H224359   6.451   1.515   0.154  0.2371  0.5004 -2.0490
  934TIP3   OH224360   5.422   7.064   6.838 -0.4452 -0.2914  0.0278
  934TIP3    H124361   5.391   7.043   6.927  1.9202 -1.4861  0.6360
  934TIP3    H224362   5.451   7.155   6.844 -1.7590  0.1480  0.0182
  935TIP3   OH224363   4.311   6.729   1.275  0.2355 -0.2069 -0.1487
  935TIP3    H124364   4.348   6.777   1.349 -1.5766  0.7567  0.2077
  935TIP3    H224365   4.233   6.687   1.311  0.4081 -1.3675 -1.0666
  936TIP3   OH224366   3.169   2.052   6.206 -0.8285 -0.1405  0.1024
  936TIP3    H124367   3.159   2.076   6.298 -0.7307  0.3065 -0.0023
  936TIP3    H224368   3.139   1.961   6.202 -0.5610 -0.2565  0.6287
  937TIP3   OH224369   5.892   6.241   7.588 -0.5671  0.3380  0.2317
  937TIP3    H124370   5.930   6.280   7.509  0.3342 -0.2455  0.3719
  937TIP3    H224371   5.835   6.172   7.555  0.4742 -0.4867  0.1024
  938TIP3   OH224372   1.722   3.543   6.534  0.0336  0.1532  0.1429
  938TIP3    H124373   1.674   3.461   6.545  0.1512  0.2696  1.5962
  938TIP3    H224374   1.807   3.526   6.573  0.5367  0.5673 -0.7318
  939TIP3   OH224375   6.065   0.310   1.409  0.1776 -0.2878 -0.1744
  939TIP3    H124376   6.149   0.266   1.402  0.3826 -0.2781  1.7783
  939TIP3    H224377   6.014   0.254   1.468 -1.1252 -0.1830 -1.1564
  940TIP3   OH224378   0.680   7.090   6.421  0.1187 -0.0127  0.7975
  940TIP3    H124379   0.648   7.027   6.356  1.6976 -0.5779  0.5195
  940TIP3    H224380   0.718   7.036   6.490 -0.8013  0.6089  1.8192
  941TIP3   OH224381   1.461   4.222   7.498  0.0265 -0.2041 -0.3416
  941TIP3    H124382   1.494   4.209   7.409  0.1312  2.2367 -0.7094
  941TIP3    H224383   1.375   4.263   7.486 -0.1959 -0.3359  0.6928
  942TIP3   OH224384   1.581   1.589   6.621 -0.4617  0.1991  0.3498
  942TIP3    H124385   1.655   1.535   6.650 -1.0136  0.3551  2.1582
  942TIP3    H224386   1.620   1.674   6.601 -0.1573  0.3632  1.5537
  943TIP3   OH224387   5.560   1.583   6.770 -0.1078 -0.3591 -0.1836
  943TIP3    H124388   5.502   1.580   6.693  0.1617 -1.3566 -0.3616
  943TIP3    H224389   5.645   1.553   6.737  0.5558  1.1332  0.0591
  944TIP3   OH224390   6.290   3.656   7.984 -0.3168 -0.0630  0.1040
  944TIP3    H124391   6.311   3.570   7.948  0.6138  0.1055  0.2215
  944TIP3    H224392   6.203   3.676   7.949 -0.5014 -1.0022 -0.0028
  945TIP3   OH224393   6.812   2.969   1.229 -0.1205  0.1964 -0.4041
  945TIP3    H124394   6.803   2.925   1.144 -0.3661 -0.3195 -0.1139
  945TIP3    H224395   6.802   2.899   1.293  1.2666  0.3854  0.0335
  946TIP3   OH224396   3.395   5.839   6.290 -0.2099 -0.0051 -0.4309
  946TIP3    H124397   3.350   5.755   6.295  1.2759 -1.0078 -2.3234
  946TIP3    H224398   3.355   5.883   6.215  0.4422  0.0294 -0.7686
  947TIP3   OH224399   1.182   4.113   0.615  0.5994  0.3459  0.4977
  947TIP3    H124400   1.267   4.071   0.603  0.0744 -0.1594 -1.9940
  947TIP3    H224401   1.146   4.073   0.694  1.5319 -1.4427  0.0583
  948TIP3   OH224402   6.061   1.853   0.595 -0.9643  0.2210 -0.7551
  948TIP3    H124403   6.150   1.879   0.572 -1.2094 -0.0704 -2.1136
  948TIP3    H224404   6.062   1.843   0.690  0.2373  1.0094 -0.6759
  949TIP3   OH224405   2.405   6.853   7.471 -0.1874  0.1228  0.4844
  949TIP3    H124406   2.397   6.884   7.381 -1.5357 -1.0567  0.1483
  949TIP3    H224407   2.353   6.773   7.473  0.0168 -0.0082  2.2558
  950TIP3   OH224408   6.872   1.717   6.360  0.5967  0.8883  0.1026
  950TIP3    H124409   6.876   1.723   6.455  0.6070  0.6808  0.1163
  950TIP3    H224410   6.803   1.778   6.335 -2.2640 -1.9203  0.5649
  951TIP3   OH224411   6.845   6.024   6.263  0.6096 -0.5457  0.7551
  951TIP3    H124412   6.885   6.109   6.244 -0.6028  0.0954  0.9982
  951TIP3    H224413   6.754   6.044   6.283  0.0708 -1.9967 -0.0722
  952TIP3   OH224414   5.265   0.924   0.416 -0.0885  1.0729 -0.1877
  952TIP3    H124415   5.308   0.943   0.332 -1.0794  1.4678 -0.6228
  952TIP3    H224416   5.174   0.907   0.392 -0.1981  0.2980  0.7241
  953TIP3   OH224417   1.388   5.038   1.902  0.0135 -0.0755  0.8190
  953TIP3    H124418   1.466   4.984   1.912  1.6002  1.9933  0.3458
  953TIP3    H224419   1.421   5.128   1.901 -1.9227  0.7997 -3.1900
  954TIP3   OH224420   5.040   6.178   5.954 -0.1563  0.1575 -0.1351
  954TIP3    H124421   5.012   6.265   5.926  0.1681  0.3728  0.1952
  954TIP3    H224422   5.083   6.140   5.878  1.1348  0.9189  0.1993
  955TIP3   OH224423   3.564   4.321   0.227 -0.6238 -0.0585  0.1390
  955TIP3    H124424   3.475   4.346   0.255 -0.9409  1.3546 -1.9059
  955TIP3    H224425   3.565   4.337   0.133  2.3799  1.8003  0.3626
  956TIP3   OH224426   5.608   0.173   1.280 -0.7866  0.3450 -0.0504
  956TIP3    H124427   5.632   0.249   1.228  0.1924 -0.2267 -0.4783
  956TIP3    H224428   5.631   0.098   1.224 -1.8372 -0.2667  0.3065
  957TIP3   OH224429   3.207   2.384   1.182 -0.6063 -0.5213  0.2454
  957TIP3    H124430   3.160   2.433   1.115 -0.7656  1.9578  2.0212
  957TIP3    H224431   3.153   2.394   1.261  0.6967 -1.3525  1.2864
  958TIP3   OH224432   2.643   6.371   0.896  0.0436  0.3442 -0.2488
  958TIP3    H124433   2.625   6.419   0.977 -0.3282  0.9392 -0.6767
  958TIP3    H224434   2.730   6.335   0.909  1.2106  2.7891 -0.6815
  959TIP3   OH224435   6.677   3.979   6.595  0.5506  0.0813 -0.2268
  959TIP3    H124436   6.607   3.951   6.655  0.7066 -0.2872 -0.2190
  959TIP3    H224437   6.652   3.942   6.511  0.8869 -0.2835 -0.1635
  960TIP3   OH224438   0.751   3.976   0.272 -0.2502  0.1704 -0.3697
  960TIP3    H124439   0.693   4.035   0.319  0.5280  2.6694 -2.3197
  960TIP3    H224440   0.695   3.933   0.207 -0.2996  1.1177 -0.9676
  961TIP3   OH224441   3.070   6.529   6.805 -0.0655  0.0379 -0.1633
  961TIP3    H124442   3.059   6.623   6.818  0.4023  0.0619  0.0879
  961TIP3    H224443   2.984   6.492   6.824 -0.3188  0.4367 -0.5121
  962TIP3   OH224444   6.148   0.045   5.907  0.1488  0.1833  0.0172
  962TIP3    H124445   6.241   0.021   5.914  0.6194  0.6122 -3.2163
  962TIP3    H224446   6.114  -0.011   5.837 -2.1171 -0.0472  1.2269
  963TIP3   OH224447   3.571   0.725   0.171  0.1359 -0.2816  0.1673
  963TIP3    H124448   3.599   0.637   0.197  2.1953 -0.0396 -1.0362
  963TIP3    H224449   3.554   0.770   0.253  0.9770 -1.2127  0.8810
  964TIP3   OH224450   0.817   2.250   0.322 -0.1099 -0.9669  1.5192
  964TIP3    H124451   0.800   2.345   0.320 -0.7339 -1.0622 -0.7123
  964TIP3    H224452   0.747   2.214   0.375 -1.0157 -0.3344  0.7946
  965TIP3   OH224453   6.112   0.413   7.623  0.5153  0.5308 -0.1651
  965TIP3    H124454   6.090   0.457   7.705  0.3195  2.1842 -1.0716
  965TIP3    H224455   6.081   0.323   7.636  1.9333  0.2794  2.1631
  966TIP3   OH224456   2.687   1.267   1.412  0.1180  0.1529 -0.0776
  966TIP3    H124457   2.644   1.293   1.493  0.3068  3.2408 -0.8503
  966TIP3    H224458   2.617   1.263   1.347  0.1417 -1.1833 -0.0627
  967TIP3   OH224459   1.033   2.384   1.595  0.0647 -0.6287 -0.5242
  967TIP3    H124460   1.023   2.446   1.668 -0.8241 -0.6891 -0.5860
  967TIP3    H224461   0.954   2.331   1.598 -0.5351  0.0984 -2.2130
  968TIP3   OH224462   3.346   6.158   6.756 -0.1210  0.1241  0.2641
  968TIP3    H124463   3.322   6.200   6.839 -1.7628  0.7345 -0.4641
  968TIP3    H224464   3.269   6.106   6.733  0.1317  0.3329 -1.1033
  969TIP3   OH224465   3.723   0.586   6.730 -0.0487  0.1160 -0.4925
  969TIP3    H124466   3.648   0.530   6.712  0.7935 -1.2610  0.1359
  969TIP3    H224467   3.749   0.620   6.645 -0.6698 -0.3251 -0.8648
  970TIP3   OH224468   6.453   4.282   2.150  0.1079  0.0318  0.4055
  970TIP3    H124469   6.500   4.202   2.125  0.0501 -0.1997  1.0290
  970TIP3    H224470   6.361   4.264   2.128  0.2778  0.4387 -0.6996
  971TIP3   OH224471   4.502   5.489   7.161  0.5949 -0.6145 -0.4082
  971TIP3    H124472   4.560   5.413   7.152  0.0271 -1.3612  1.7436
  971TIP3    H224473   4.415   5.451   7.175 -0.3474  0.4862 -2.7561
  972TIP3   OH224474   2.881   2.298   1.342 -0.5938 -0.0825  0.0448
  972TIP3    H124475   2.908   2.371   1.399  0.6339  0.6236 -1.3857
  972TIP3    H224476   2.891   2.220   1.398 -0.4224  0.6851  1.1265
  973TIP3   OH224477   6.293   3.061   0.880 -0.1503  0.4073  0.3446
  973TIP3    H124478   6.202   3.091   0.888  0.0233  0.7977  0.9493
  973TIP3    H224479   6.293   3.003   0.804 -0.3888  2.4159 -1.2937
  974TIP3   OH224480   2.328   4.694   0.257  0.0121  0.9276 -0.5444
  974TIP3    H124481   2.332   4.788   0.241  1.4689  0.7862 -1.2602
  974TIP3    H224482   2.295   4.657   0.175 -1.4226  0.8588  0.0398
  975TIP3   OH224483   5.874   1.013   7.682  0.1982 -0.0636 -0.5225
  975TIP3    H124484   5.804   1.078   7.679  1.5125  1.4604  0.5725
  975TIP3    H224485   5.838   0.938   7.633 -1.6311  1.1750 -1.2071
  976TIP3   OH224486   0.398   6.614   7.680  0.6867 -0.5030 -0.4520
  976TIP3    H124487   0.415   6.619   7.774  0.1529 -0.1855 -0.3658
  976TIP3    H224488   0.386   6.520   7.663  0.2996 -0.5213 -0.1068
  977TIP3   OH224489   4.545   0.445   6.539 -0.3164 -0.2821  0.3324
  977TIP3    H124490   4.559   0.505   6.466 -0.5253 -0.3573  0.2289
  977TIP3    H224491   4.632   0.431   6.577 -0.3831  0.7746  0.8973
  978TIP3   OH224492   5.740   3.971   7.082  0.1922  0.7580 -0.3994
  978TIP3    H124493   5.647   3.954   7.094  0.6494 -0.9713  1.2997
  978TIP3    H224494   5.757   4.051   7.133 -0.3922  1.2562 -0.9710
  979TIP3   OH224495   6.327   3.601   7.171  0.4569  0.2220  0.3693
  979TIP3    H124496   6.398   3.664   7.168  2.4844 -1.9260 -2.7542
  979TIP3    H224497   6.274   3.619   7.094 -0.4809 -0.2714  0.8658
  980TIP3   OH224498   6.219   0.348   7.174  0.0027  0.1390 -0.0340
  980TIP3    H124499   6.134   0.390   7.163 -0.0700  0.1170  0.4515
  980TIP3    H224500   6.250   0.378   7.259  0.3749 -0.0415 -0.1037
  981TIP3   OH224501   3.291   5.674   0.606  0.2516  0.0266 -0.4140
  981TIP3    H124502   3.380   5.639   0.599  0.7694  1.0836  0.6304
  981TIP3    H224503   3.235   5.596   0.609  1.1632 -0.6574 -0.6380
  982TIP3   OH224504   2.459   5.438   6.849 -0.0971  0.6004  0.4899
  982TIP3    H124505   2.376   5.392   6.837  0.3522 -0.4259  1.1013
  982TIP3    H224506   2.459   5.506   6.783 -1.2030  0.2889  0.1464
  983TIP3   OH224507   6.496   1.993   6.583 -0.5396  0.7775 -0.6574
  983TIP3    H124508   6.512   1.899   6.587  0.4463  0.9489 -0.4588
  983TIP3    H224509   6.400   2.001   6.585 -0.6238 -0.2040 -0.4272
  984TIP3   OH224510   4.526   0.685   7.021  0.5368 -0.1471  0.3092
  984TIP3    H124511   4.559   0.597   7.002 -1.0795 -0.5314 -1.0214
  984TIP3    H224512   4.596   0.727   7.070  1.4813 -2.0718  0.7239
  985TIP3   OH224513   4.476   6.968   0.559  0.0632  0.3141  0.3711
  985TIP3    H124514   4.534   6.946   0.632  0.9598 -1.2618 -0.7429
  985TIP3    H224515   4.410   6.898   0.559  0.4450 -0.0696 -0.6784
  986TIP3   OH224516   5.529   2.144   0.767  0.8355  0.2588 -0.1443
  986TIP3    H124517   5.556   2.130   0.676  0.2487  0.1558 -0.3077
  986TIP3    H224518   5.483   2.227   0.766 -0.2117 -0.3009 -0.1851
  987TIP3   OH224519   2.131   5.186   7.691  0.9113 -0.0803  0.0102
  987TIP3    H124520   2.100   5.276   7.700  1.8978  0.3192 -0.4582
  987TIP3    H224521   2.083   5.150   7.617 -0.0792 -0.2207  0.6940
  988TIP3   OH224522   1.262   5.127   8.030  0.3064  0.7572 -0.1060
  988TIP3    H124523   1.325   5.097   7.965 -0.0326 -1.6112  0.5755
  988TIP3    H224524   1.191   5.166   7.978  0.5255 -0.1200 -1.0992
  989TIP3   OH224525   3.820   5.633   0.708 -0.5630 -0.5966  0.3765
  989TIP3    H124526   3.841   5.544   0.735 -0.7016 -1.5032 -2.2187
  989TIP3    H224527   3.874   5.648   0.631  1.9006  2.8643  2.5001
  990TIP3   OH224528   3.206   2.946   7.303 -0.3641  0.5619  0.4601
  990TIP3    H124529   3.219   3.000   7.225  0.9219 -0.1000  0.1717
  990TIP3    H224530   3.131   2.985   7.348 -1.4877  0.6437 -1.3776
  991TIP3   OH224531   3.237   1.480   0.646  0.2635  0.4798 -0.3467
  991TIP3    H124532   3.291   1.484   0.567  0.4252 -0.9993 -0.3422
  991TIP3    H224533   3.159   1.432   0.620  0.4131 -0.2160  0.4147
  992TIP3   OH224534   0.466   3.951   0.195  0.6423 -0.1533  0.0332
  992TIP3    H124535   0.408   3.881   0.167 -0.7523  1.4963 -1.5075
  992TIP3    H224536   0.449   3.961   0.289  0.2085 -1.2664  0.0879
  993TIP3   OH224537   0.082   2.042   0.922  0.1332  0.2424  0.2027
  993TIP3    H124538   0.161   2.073   0.966 -0.1634 -1.0895  1.7945
  993TIP3    H224539   0.029   2.003   0.992 -1.6922  0.5928 -0.9075
  994TIP3   OH224540   0.969   6.686   7.747  0.6174 -0.0051 -0.3007
  994TIP3    H124541   0.918   6.765   7.766 -1.7530 -1.8542  1.8287
  994TIP3    H224542   0.933   6.652   7.665  0.2593  0.0937 -0.1836
  995TIP3   OH224543   5.019   3.108   0.162 -0.6783 -0.1015  0.3574
  995TIP3    H124544   4.943   3.162   0.181  0.0776  1.0200  0.2855
  995TIP3    H224545   5.093   3.155   0.201  0.4713  0.6209 -2.4700
  996TIP3   OH224546   1.049   0.765   6.762  0.1975  0.9785 -0.1479
  996TIP3    H124547   1.032   0.720   6.844 -1.6816  1.7388 -0.0746
  996TIP3    H224548   0.995   0.720   6.698  1.7728  0.2909 -1.0386
  997TIP3   OH224549   3.489   3.010   0.685 -0.1714  0.6475 -0.4622
  997TIP3    H124550   3.573   3.006   0.638  0.9068  0.5416  1.3706
  997TIP3    H224551   3.437   2.938   0.648  1.4097 -0.7409 -0.1054
  998TIP3   OH224552   4.457   1.493   7.235 -0.1457  0.5507 -0.8338
  998TIP3    H124553   4.431   1.579   7.269 -1.6481  0.2707 -1.1826
  998TIP3    H224554   4.531   1.511   7.177 -0.1612  1.5507 -0.5535
  999TIP3   OH224555   3.772   5.732   5.564  0.0827  0.0684  0.1091
  999TIP3    H124556   3.859   5.773   5.560  0.1947 -0.1980 -0.2430
  999TIP3    H224557   3.713   5.804   5.582  0.5029  0.0875  1.5722
 1000TIP3   OH224558   2.715   0.907   6.447  0.1897 -0.0629 -0.1325
 1000TIP3    H124559   2.718   0.909   6.351 -0.0168  1.1798 -0.1199
 1000TIP3    H224560   2.626   0.881   6.468 -0.7574  2.7343 -0.2952
 1001TIP3   OH224561   1.622   2.275   2.217  0.5513 -0.1710  0.3768
 1001TIP3    H124562   1.588   2.365   2.216  0.4315 -0.1316  2.4218
 1001TIP3    H224563   1.551   2.223   2.256  0.8593 -1.0395 -0.1903
 1002TIP3   OH224564   1.299   2.619   7.865 -0.0321 -0.2323 -0.4938
 1002TIP3    H124565   1.362   2.623   7.937 -0.6375 -3.5077  0.3567
 1002TIP3    H224566   1.350   2.586   7.791 -0.3382 -1.1957 -0.2872
 1003TIP3   OH224567   5.519   2.158   0.442  0.2796  0.6939  0.4091
 1003TIP3    H124568   5.528   2.067   0.471  0.2576 -0.0876 -1.8638
 1003TIP3    H224569   5.528   2.154   0.347  0.3812  3.1011  0.2593
 1004TIP3   OH224570   0.869   4.864   7.289 -0.8855 -0.2485 -0.5315
 1004TIP3    H124571   0.851   4.845   7.381  2.5045 -0.6026  0.2007
 1004TIP3    H224572   0.868   4.960   7.284  0.9155 -0.1349  0.4345
 1005TIP3   OH224573   1.119   1.863   1.818  0.3579  0.4037  0.2315
 1005TIP3    H124574   1.026   1.883   1.812  0.4039  0.2787 -1.3169
 1005TIP3    H224575   1.149   1.910   1.896 -0.8455  1.0405  0.3285
 1006TIP3   OH224576   3.244   3.670   0.977  0.0880  0.8611  0.2433
 1006TIP3    H124577   3.207   3.588   1.009  1.1692 -0.4770 -1.7143
 1006TIP3    H224578   3.179   3.736   1.002 -2.2807 -0.9733 -0.5773
 1007TIP3   OH224579   3.286   2.379   0.202 -0.6749 -0.1689  0.0264
 1007TIP3    H124580   3.292   2.464   0.158 -1.3429 -0.5890 -0.8952
 1007TIP3    H224581   3.193   2.356   0.199 -0.3973 -1.3035 -0.4477
 1008TIP3   OH224582   2.069   6.944   7.499  0.1918  0.1092 -0.4202
 1008TIP3    H124583   2.121   6.869   7.472 -0.5094 -0.3854 -0.4341
 1008TIP3    H224584   2.060   6.934   7.594 -1.2006 -0.6990 -0.6090
 1009TIP3   OH224585   6.896   1.233   0.203  0.4262 -0.3987  0.0042
 1009TIP3    H124586   6.948   1.311   0.219 -0.7764  0.2548  0.9477
 1009TIP3    H224587   6.922   1.204   0.116  0.6369  1.2823 -0.5316
 1010TIP3   OH224588   6.332   2.410   1.838 -0.8158 -0.0737  0.1963
 1010TIP3    H124589   6.415   2.436   1.879 -0.7050  0.3088 -0.2703
 1010TIP3    H224590   6.288   2.358   1.905 -0.6756  0.6245  0.8364
 1011TIP3   OH224591   4.185   4.550   0.547  0.0724  0.2627 -0.3669
 1011TIP3    H124592   4.258   4.611   0.539 -0.3197  0.8582  0.4602
 1011TIP3    H224593   4.159   4.532   0.457 -0.9930  2.7895 -0.6243
 1012TIP3   OH224594   6.470   6.789   6.632 -0.3797 -0.3935 -0.5263
 1012TIP3    H124595   6.495   6.881   6.645 -0.0733 -0.4058 -1.0039
 1012TIP3    H224596   6.388   6.794   6.584 -1.3680 -0.3523  1.0979
 1013TIP3   OH224597   5.371   4.766   6.813  0.2395 -0.7808  0.4461
 1013TIP3    H124598   5.378   4.778   6.908  0.2821 -1.2386  0.5025
 1013TIP3    H224599   5.335   4.849   6.782  0.2745 -0.6055  0.8549
 1014TIP3   OH224600   5.769   5.183   6.757  0.2033  0.4388  0.0745
 1014TIP3    H124601   5.777   5.093   6.725 -0.7747  0.1300  0.6402
 1014TIP3    H224602   5.807   5.237   6.688  0.6145 -0.3929 -0.3652
 1015TIP3   OH224603   1.503   1.954   1.755  0.2831  0.1301  0.6383
 1015TIP3    H124604   1.547   1.987   1.677  0.8170 -0.4347  0.6969
 1015TIP3    H224605   1.481   1.864   1.734 -0.1549  0.1675  0.9054
 1016TIP3   OH224606   5.522   6.564   0.765 -0.3823 -0.3432 -0.0325
 1016TIP3    H124607   5.434   6.586   0.735  0.1636  0.4634 -1.1196
 1016TIP3    H224608   5.517   6.472   0.788 -1.8615  0.0157  1.2702
 1017TIP3   OH224609   5.102   0.654   7.149 -0.1588 -0.1161 -0.3714
 1017TIP3    H124610   5.181   0.641   7.200 -0.3311 -1.7490 -0.4712
 1017TIP3    H224611   5.057   0.727   7.193  2.5882  2.7259 -1.8698
 1018TIP3   OH224612   2.223   0.409   0.228 -0.0620  0.1257  0.4287
 1018TIP3    H124613   2.292   0.371   0.283 -0.5897 -0.4429  0.7163
 1018TIP3    H224614   2.193   0.486   0.276 -1.5667 -1.1960  1.7496
 1019TIP3   OH224615   7.030   6.080   0.684 -0.1704  0.5486 -0.0209
 1019TIP3    H124616   7.044   6.002   0.738  1.2345  1.3199  0.7925
 1019TIP3    H224617   6.952   6.121   0.720 -1.8064 -1.1893 -1.3775
 1020TIP3   OH224618   1.016   0.431   1.397 -0.1777 -0.3205  0.5683
 1020TIP3    H124619   1.003   0.349   1.443 -0.9653  1.0693  2.9942
 1020TIP3    H224620   0.928   0.464   1.380  0.0954 -0.4596 -1.4338
 1021TIP3   OH224621   3.255   4.259   0.050 -0.0192 -0.1095 -0.2932
 1021TIP3    H124622   3.176   4.313   0.049 -0.4550 -0.7300  0.2754
 1021TIP3    H224623   3.315   4.306   0.109 -0.0504  0.2327 -0.5311
 1022TIP3   OH224624   1.862   4.776   6.991  0.0474  0.0626 -0.2613
 1022TIP3    H124625   1.935   4.772   6.929  0.7588  1.9782  0.3885
 1022TIP3    H224626   1.846   4.869   7.004 -0.2726 -0.2693  2.1975
 1023TIP3   OH224627   2.365   3.960   2.370  0.2025  0.5961 -0.1704
 1023TIP3    H124628   2.282   3.987   2.331 -0.8255 -0.8803  0.8815
 1023TIP3    H224629   2.402   4.040   2.407 -1.2330  1.1223  0.1817
 1024TIP3   OH224630   1.549   3.339   0.355  0.2731  0.2383  0.2617
 1024TIP3    H124631   1.566   3.423   0.312 -2.4236  0.4961 -0.4951
 1024TIP3    H224632   1.626   3.286   0.336  0.6109  1.4469 -2.1405
 1025TIP3   OH224633   4.708   3.540   7.046 -0.2391 -0.1223  0.1808
 1025TIP3    H124634   4.728   3.540   7.139 -0.1310  1.4537  0.1827
 1025TIP3    H224635   4.704   3.448   7.022 -0.5072 -0.5455  1.7903
 1026TIP3   OH224636   5.291   1.230   6.553 -0.3247 -0.3156 -0.1350
 1026TIP3    H124637   5.295   1.268   6.466 -3.5300 -0.8956 -0.6597
 1026TIP3    H224638   5.380   1.202   6.572  0.4276 -0.4008 -3.3367
 1027TIP3   OH224639   5.461   1.173   0.836  0.1220 -0.0693  0.4401
 1027TIP3    H124640   5.374   1.210   0.850 -0.9308 -2.2354  0.1410
 1027TIP3    H224641   5.460   1.142   0.746  0.6509 -1.4030  0.8679
 1028TIP3   OH224642   2.145   5.681   6.767 -0.0109  0.1562 -0.5340
 1028TIP3    H124643   2.120   5.740   6.696 -1.0653 -1.5978 -1.7093
 1028TIP3    H224644   2.187   5.606   6.722  0.8782 -0.2105  0.8493
 1029TIP3   OH224645   1.142   3.047   7.521 -0.6973 -0.2534 -0.3239
 1029TIP3    H124646   1.198   3.082   7.591 -0.7319 -0.9369  0.0545
 1029TIP3    H224647   1.150   2.952   7.529 -1.6070 -0.3588 -0.5077
 1030TIP3   OH224648   5.643   0.948   0.883 -0.1313 -0.4538 -0.2082
 1030TIP3    H124649   5.600   0.948   0.969 -1.3383 -1.3348 -0.7944
 1030TIP3    H224650   5.622   1.034   0.846 -2.4500 -1.2996 -0.9743
 1031TIP3   OH224651   2.226   3.419   5.626  0.0122 -0.2373  0.2439
 1031TIP3    H124652   2.272   3.441   5.544  0.0425 -0.1365  0.2883
 1031TIP3    H224653   2.139   3.390   5.597 -0.5542  1.3461  0.2664
 1032TIP3   OH224654   4.506   5.695   5.964  0.6256  0.2367 -0.3985
 1032TIP3    H124655   4.477   5.607   5.989  0.0201  0.5207 -0.0586
 1032TIP3    H224656   4.601   5.692   5.970  0.5387  0.2328  1.8567
 1033TIP3   OH224657   1.786   1.167   6.949  0.0129  0.1779  0.1429
 1033TIP3    H124658   1.717   1.191   6.887  1.0353 -0.7952 -1.4479
 1033TIP3    H224659   1.747   1.180   7.035 -2.2332 -0.5425 -0.7082
 1034TIP3   OH224660   0.051   2.504   0.457  0.5728  0.2296 -0.2555
 1034TIP3    H124661   0.061   2.581   0.513  0.2238 -0.0074  0.1299
 1034TIP3    H224662  -0.012   2.531   0.391  0.4895  0.2890 -0.1516
 1035TIP3   OH224663   6.364   5.321   0.911 -0.2937 -0.5826  0.4807
 1035TIP3    H124664   6.355   5.234   0.872  0.0170 -0.6968  0.6584
 1035TIP3    H224665   6.427   5.309   0.982  0.0811 -0.1251  0.2326
 1036TIP3   OH224666   2.195   6.141   7.631 -0.0372 -0.4662  0.4815
 1036TIP3    H124667   2.248   6.138   7.711  0.5195  1.1840  0.2236
 1036TIP3    H224668   2.105   6.125   7.661  0.1637  0.1239  1.4504
 1037TIP3   OH224669   0.871   1.308   0.476 -0.4301  0.4189  0.5319
 1037TIP3    H124670   0.835   1.396   0.467  1.7015  1.3920  0.7508
 1037TIP3    H224671   0.795   1.251   0.483 -1.8723  2.2913  0.8546
 1038TIP3   OH224672   2.726   3.152   7.462 -0.1799 -0.0077  0.2938
 1038TIP3    H124673   2.664   3.107   7.404 -1.2236  0.8218  0.7312
 1038TIP3    H224674   2.681   3.157   7.546  0.7377  0.0807  0.7901
 1039TIP3   OH224675   4.996   4.056   0.945 -0.2026  0.1585  0.3015
 1039TIP3    H124676   5.021   4.147   0.963  0.9078  0.0343 -0.5098
 1039TIP3    H224677   4.912   4.062   0.900 -1.4718  0.6230  2.5667
 1040TIP3   OH224678   3.775   0.019   0.917 -0.3236 -0.2051 -0.6933
 1040TIP3    H124679   3.750   0.026   0.825  2.5288  1.2997 -1.4920
 1040TIP3    H224680   3.854  -0.035   0.917  0.8433  1.3727  0.5417
 1041TIP3   OH224681   6.293   0.940   0.346  0.3964 -0.1189  0.4056
 1041TIP3    H124682   6.254   0.929   0.433 -0.7548 -0.4712 -0.1333
 1041TIP3    H224683   6.233   1.000   0.301  0.4591 -0.6967 -0.4583
 1042TIP3   OH224684   2.526   1.848   0.345 -0.5692 -0.2894 -0.0507
 1042TIP3    H124685   2.537   1.817   0.255  1.5971 -1.6711  0.6053
 1042TIP3    H224686   2.504   1.940   0.337 -0.4717 -0.3979 -1.9893
 1043TIP3   OH224687   5.698   1.243   7.660  0.2174 -0.1526 -0.3437
 1043TIP3    H124688   5.778   1.268   7.614  0.8515 -0.1098  0.7579
 1043TIP3    H224689   5.631   1.302   7.624  1.3877  2.2560  1.1611
 1044TIP3   OH224690   1.982   5.197   1.057  0.2343  0.2407  0.1779
 1044TIP3    H124691   1.888   5.177   1.056  0.3275 -0.2174 -0.3862
 1044TIP3    H224692   1.987   5.292   1.069 -0.3096  0.3059 -0.0802
 1045TIP3   OH224693   4.403   5.572   0.385  0.6137  0.3329  0.0014
 1045TIP3    H124694   4.408   5.660   0.423 -1.1778  0.0548  1.0288
 1045TIP3    H224695   4.462   5.519   0.439 -1.8982 -0.0581  2.6367
 1046TIP3   OH224696   2.028   1.977   6.235  0.0070  0.1191 -0.1281
 1046TIP3    H124697   2.014   2.051   6.177  2.1649  1.0234  0.4050
 1046TIP3    H224698   1.956   1.981   6.298 -0.4482  1.1787 -0.7007
 1047TIP3   OH224699   7.094   1.186   1.132 -0.2440  0.2302 -0.2733
 1047TIP3    H124700   7.014   1.232   1.107 -0.8062 -0.5185  0.1308
 1047TIP3    H224701   7.158   1.256   1.144 -1.2514  0.9837  0.9606
 1048TIP3   OH224702   0.346   6.081   1.549 -0.2988  0.7429  0.3786
 1048TIP3    H124703   0.342   5.986   1.554 -0.6742  0.5493 -2.1211
 1048TIP3    H224704   0.404   6.107   1.621 -1.4374 -1.1992  2.0895
 1049TIP3   OH224705   3.878   0.708   6.232  0.0125  0.0394  0.0944
 1049TIP3    H124706   3.865   0.745   6.145  1.4664 -1.0734 -0.6320
 1049TIP3    H224707   3.929   0.629   6.218  2.0108  0.8525  2.0860
 1050TIP3   OH224708   0.811   3.512   7.964 -0.0182 -0.0377  0.3113
 1050TIP3    H124709   0.809   3.576   7.892  0.2413 -0.5358 -0.1460
 1050TIP3    H224710   0.720   3.498   7.987 -0.0600  0.9722  0.8492
 1051TIP3   OH224711   3.562   3.709   1.111 -0.7112  0.0372 -0.4397
 1051TIP3    H124712   3.578   3.771   1.039 -2.8630 -1.1149 -2.0278
 1051TIP3    H224713   3.646   3.664   1.122 -0.0679  0.8872 -1.5887
 1052TIP3   OH224714   0.492   2.985   1.922  0.8881 -0.0269 -1.0203
 1052TIP3    H124715   0.442   3.064   1.940 -1.5388 -1.3224 -1.5967
 1052TIP3    H224716   0.522   2.955   2.007  1.2728  1.1165 -0.7307
 1053TIP3   OH224717   5.825   5.538   1.501 -0.1151 -0.4646  0.2719
 1053TIP3    H124718   5.740   5.496   1.488 -1.5050  1.1252  3.1340
 1053TIP3    H224719   5.876   5.474   1.551  0.6682 -1.6485 -1.9359
 1054TIP3   OH224720   3.154   3.192   0.955 -0.4892 -0.0350  0.2769
 1054TIP3    H124721   3.092   3.121   0.937 -0.2437 -0.1509 -0.1121
 1054TIP3    H224722   3.098   3.266   0.979 -0.7169 -0.5940  1.5669
 1055TIP3   OH224723   5.541   2.344   1.029 -0.3131 -0.7265  0.3089
 1055TIP3    H124724   5.475   2.286   1.066  0.4201 -0.9414  1.3069
 1055TIP3    H224725   5.624   2.308   1.059  0.1707  0.6887  0.7495
 1056TIP3   OH224726   5.558   5.602   2.021  0.0302 -0.5086 -0.0194
 1056TIP3    H124727   5.626   5.603   2.089  0.6431 -0.4963 -0.6219
 1056TIP3    H224728   5.568   5.685   1.975  1.1253 -1.4410 -1.5659
 1057TIP3   OH224729   6.783   7.095   6.120 -0.5141 -0.2598 -0.2842
 1057TIP3    H124730   6.712   7.134   6.069 -1.2163  0.9562  1.5246
 1057TIP3    H224731   6.775   7.001   6.104 -2.7045 -0.1824  0.0547
 1058TIP3   OH224732   1.905   4.351   7.919 -0.4220 -0.0368  0.4039
 1058TIP3    H124733   1.992   4.313   7.925 -0.8338 -1.2539 -0.7802
 1058TIP3    H224734   1.910   4.411   7.845 -0.6928 -0.4497  0.0438
 1059TIP3   OH224735   6.751   1.051   6.355 -0.3358 -0.3620  0.1582
 1059TIP3    H124736   6.705   1.051   6.439  1.1977 -0.0598  1.0361
 1059TIP3    H224737   6.822   1.115   6.367  0.4584 -0.9849 -1.0607
 1060TIP3   OH224738   5.159   1.853   7.647  0.4503 -0.0786 -1.1501
 1060TIP3    H124739   5.081   1.906   7.660 -0.6601 -2.0805  1.4560
 1060TIP3    H224740   5.131   1.782   7.590  1.0307  0.3911 -2.0365
 1061TIP3   OH224741   2.985   6.290   0.673  0.9035 -0.4590 -0.0327
 1061TIP3    H124742   3.062   6.237   0.651  0.4152 -0.9113 -0.6852
 1061TIP3    H224743   3.017   6.380   0.671  0.9650 -0.4690 -2.4611
 1062TIP3   OH224744   4.844   2.618   0.797 -0.4155  0.2065 -0.5341
 1062TIP3    H124745   4.824   2.524   0.790 -0.7719  0.3661 -1.8030
 1062TIP3    H224746   4.866   2.645   0.708  1.9105  0.8707  0.1799
 1063TIP3   OH224747   5.878   5.855   5.885 -0.1816 -0.3441  0.4519
 1063TIP3    H124748   5.789   5.825   5.864 -0.0931  1.2080 -2.5279
 1063TIP3    H224749   5.925   5.852   5.802  2.4200 -0.4800  1.8287
 1064TIP3   OH224750   6.656   0.730   1.875  0.0515  0.1716 -0.1529
 1064TIP3    H124751   6.683   0.807   1.826  1.1117 -0.6753 -0.9419
 1064TIP3    H224752   6.650   0.760   1.966  0.8337  1.0918 -0.3952
 1065TIP3   OH224753   5.549   6.902   1.173  0.0202  0.7191 -0.0317
 1065TIP3    H124754   5.557   6.975   1.112  0.8946 -0.5106 -1.4555
 1065TIP3    H224755   5.519   6.829   1.120  1.6151 -0.6211  0.8141
 1066TIP3   OH224756   5.745   4.331   0.585 -0.0070 -0.3367  0.1829
 1066TIP3    H124757   5.794   4.318   0.666  1.5021 -1.4846 -0.8546
 1066TIP3    H224758   5.687   4.255   0.579 -0.4442 -0.0239  0.3938
 1067TIP3   OH224759   4.827   2.306   0.696 -0.2124 -0.0487 -0.6005
 1067TIP3    H124760   4.769   2.254   0.752 -1.6428  1.4668 -0.6055
 1067TIP3    H224761   4.842   2.251   0.619 -1.6874 -0.4792 -0.6116
 1068TIP3   OH224762   2.269   7.133   7.431 -0.1600 -0.4694  0.4551
 1068TIP3    H124763   2.234   7.205   7.379 -0.6911 -1.7478 -1.0295
 1068TIP3    H224764   2.191   7.085   7.461  0.1902 -0.5007  1.3626
 1069TIP3   OH224765   1.962   4.936   7.638 -0.4388 -0.6011  0.2309
 1069TIP3    H124766   2.025   4.985   7.587  2.2608  0.6044  4.2641
 1069TIP3    H224767   1.886   4.994   7.644 -1.4380 -1.3110 -3.1486
 1070TIP3   OH224768   6.535   2.169   1.442  0.4013  0.0047  0.2102
 1070TIP3    H124769   6.627   2.186   1.420  0.4299  1.1534  1.1724
 1070TIP3    H224770   6.486   2.235   1.394 -0.1341 -1.7198 -1.7779
 1071TIP3   OH224771   3.404   6.801   1.300 -0.5117 -0.5772 -0.4830
 1071TIP3    H124772   3.364   6.743   1.235 -2.8428  0.5561 -0.1808
 1071TIP3    H224773   3.428   6.879   1.250 -0.7346 -0.3720 -0.2684
 1072TIP3   OH224774   4.508   4.660   6.043 -0.4183  0.5455 -0.0384
 1072TIP3    H124775   4.447   4.654   5.970 -1.0101 -0.0554  0.4872
 1072TIP3    H224776   4.452   4.669   6.120  0.1941  1.1709  0.3456
 1073TIP3   OH224777   0.917   3.041   6.929  0.7170  0.3436 -0.1211
 1073TIP3    H124778   0.892   3.005   7.014 -0.2350 -1.1537 -1.0066
 1073TIP3    H224779   1.013   3.033   6.927  0.6757 -0.3664  0.4909
 1074TIP3   OH224780   4.417   6.323   7.938 -0.2986 -0.0005  0.2383
 1074TIP3    H124781   4.356   6.264   7.983 -0.1574 -0.6755 -0.4234
 1074TIP3    H224782   4.497   6.271   7.928 -0.1548  0.3208 -0.3151
 1075TIP3   OH224783   4.024   3.586   6.423  0.0314  0.2271 -0.4465
 1075TIP3    H124784   4.093   3.645   6.452 -1.2096  1.1279  0.7515
 1075TIP3    H224785   4.071   3.505   6.401  1.8533  1.7519 -2.7208
 1076TIP3   OH224786   1.798   4.974   0.104 -0.7841 -0.4537 -0.0117
 1076TIP3    H124787   1.717   4.954   0.152 -0.9571  0.1041 -0.0607
 1076TIP3    H224788   1.844   5.037   0.160 -0.1773 -1.0872  0.2154
 1077TIP3   OH224789   0.760   4.685   7.965  0.3051 -0.0982  0.0308
 1077TIP3    H124790   0.767   4.740   8.042  0.7453  0.8292 -0.6523
 1077TIP3    H224791   0.679   4.713   7.922  0.3819 -0.1747 -0.1662
 1078TIP3   OH224792   5.402   2.577   7.675 -0.7068  0.0823  0.1301
 1078TIP3    H124793   5.354   2.614   7.602  0.2591  1.4615  0.1697
 1078TIP3    H224794   5.448   2.651   7.714 -1.8920 -0.4145  2.7094
 1079TIP3   OH224795   2.417   3.069   0.499 -0.1378 -0.5956 -0.3943
 1079TIP3    H124796   2.383   2.980   0.487 -1.4417 -0.1826  0.0979
 1079TIP3    H224797   2.443   3.073   0.591  1.3194 -0.9032 -0.7597
 1080TIP3   OH224798   3.904   2.756   7.959  0.1986  0.0439 -0.4603
 1080TIP3    H124799   3.906   2.807   8.040  0.8706 -0.5920 -0.0606
 1080TIP3    H224800   3.901   2.665   7.988 -0.8025 -0.1594 -1.1626
 1081TIP3   OH224801   4.481   5.889   6.172  0.5550  0.2604 -0.1509
 1081TIP3    H124802   4.417   5.935   6.118  0.4039  0.0735 -0.1351
 1081TIP3    H224803   4.499   5.808   6.124  1.0473  0.4740 -0.3272
 1082TIP3   OH224804   0.578   7.088   7.063  0.7672 -0.3086 -0.0937
 1082TIP3    H124805   0.538   7.010   7.025 -1.9383  1.5377 -1.3430
 1082TIP3    H224806   0.610   7.060   7.148  2.5301 -3.4032 -1.5960
 1083TIP3   OH224807   5.005   4.203   6.854  0.2089  0.2916 -0.1398
 1083TIP3    H124808   4.966   4.202   6.766 -0.0184 -1.8853 -0.0587
 1083TIP3    H224809   5.098   4.217   6.839  0.1024  0.4418 -0.6853
 1084TIP3   OH224810   0.269   4.891   0.442  0.6363 -0.2706 -0.3174
 1084TIP3    H124811   0.313   4.807   0.433  1.1447 -0.2954  1.8160
 1084TIP3    H224812   0.273   4.910   0.536 -1.4926  1.0495 -0.4405
 1085TIP3   OH224813   3.849   3.298   7.755 -0.9915  0.3711  0.2872
 1085TIP3    H124814   3.759   3.299   7.788 -0.9070  1.2007  0.4880
 1085TIP3    H224815   3.840   3.309   7.660 -1.0794  0.8853  0.3556
 1086TIP3   OH224816   2.882   1.568   7.754  0.2198 -0.0041 -0.1295
 1086TIP3    H124817   2.925   1.488   7.723 -0.6544 -0.1975 -0.8809
 1086TIP3    H224818   2.870   1.621   7.676  0.8295  0.8971  0.3713
 1087TIP3   OH224819   4.658   1.785   6.243 -0.3382  0.3865 -0.3191
 1087TIP3    H124820   4.637   1.860   6.187 -1.7131  0.5454  0.3591
 1087TIP3    H224821   4.640   1.817   6.332  0.1884 -0.3861  0.0668
 1088TIP3   OH224822   6.727   2.720   0.104 -0.5514  0.3386 -0.0891
 1088TIP3    H124823   6.702   2.628   0.111 -0.9213  0.5269  1.9901
 1088TIP3    H224824   6.669   2.756   0.037  0.9591 -1.3090 -2.4390
 1089TIP3   OH224825   4.000   4.476   1.512  0.7089 -0.1337  0.4308
 1089TIP3    H124826   3.956   4.529   1.578 -4.2390 -0.1276 -2.3689
 1089TIP3    H224827   4.034   4.539   1.449  2.3979 -0.2455  1.1669
 1090TIP3   OH224828   1.479   6.110   7.417  0.2756 -0.3480 -0.0492
 1090TIP3    H124829   1.457   6.053   7.343  0.1667  0.5126 -0.6901
 1090TIP3    H224830   1.482   6.051   7.492 -0.6836 -1.0681 -0.5516
 1091TIP3   OH224831   0.572   4.354   6.361  0.2383 -0.3589 -0.2916
 1091TIP3    H124832   0.666   4.370   6.352 -0.0761  1.8510 -0.3120
 1091TIP3    H224833   0.536   4.371   6.274 -0.1897 -1.1045 -0.2656
 1092TIP3   OH224834   4.831   1.395   7.295  0.1318  0.2065  0.1287
 1092TIP3    H124835   4.774   1.441   7.356  0.3213  0.5991  0.0144
 1092TIP3    H224836   4.842   1.308   7.333 -1.5970 -0.3279 -0.5018
 1093TIP3   OH224837   0.893   3.144   5.589 -0.2199 -0.8329  0.0055
 1093TIP3    H124838   0.932   3.225   5.621 -3.1799  0.4416  0.6944
 1093TIP3    H224839   0.913   3.079   5.656  0.8979 -0.3323  0.1787
 1094TIP3   OH224840   4.378   3.873   2.109 -0.1766 -0.0165 -0.3308
 1094TIP3    H124841   4.340   3.947   2.062 -0.6348  0.3091  0.5166
 1094TIP3    H224842   4.333   3.874   2.193  2.5279  1.1409  1.2466
 1095TIP3   OH224843   0.401   3.681   7.789  0.3854  0.0542  0.4058
 1095TIP3    H124844   0.432   3.669   7.699 -1.0997 -0.0283 -0.1309
 1095TIP3    H224845   0.372   3.773   7.791  0.2212 -0.0050  0.7330
 1096TIP3   OH224846   6.829   3.791   7.945 -0.3386  0.0563 -0.1722
 1096TIP3    H124847   6.738   3.791   7.914 -0.8200  0.0322  1.1767
 1096TIP3    H224848   6.822   3.777   8.039  1.0667  0.2245 -0.0254
 1097TIP3   OH224849   4.669   0.214   7.202  0.1677 -0.4998  0.1470
 1097TIP3    H124850   4.753   0.173   7.222  1.0765  1.9215  1.7396
 1097TIP3    H224851   4.635   0.163   7.128  4.9097  0.7035 -3.4091
 1098TIP3   OH224852   2.048   6.560   0.779  0.0177 -0.7463 -0.1332
 1098TIP3    H124853   2.090   6.642   0.754  2.0679 -1.9548 -0.9306
 1098TIP3    H224854   1.963   6.561   0.734 -0.3700  1.2589  0.5673
 1099TIP3   OH224855   2.332   1.658   0.480 -0.0783 -0.2592  0.3031
 1099TIP3    H124856   2.327   1.667   0.575  2.8343 -2.6666  0.8247
 1099TIP3    H224857   2.390   1.730   0.452 -0.2609 -0.0500  0.4673
 1100TIP3   OH224858   4.824   3.130   0.673  0.2591  0.3689 -0.4317
 1100TIP3    H124859   4.749   3.183   0.650 -1.1389 -1.4212 -0.2548
 1100TIP3    H224860   4.880   3.132   0.596 -0.3574  1.0655 -0.8738
 1101TIP3   OH224861   4.295   5.945   7.133  0.2965 -0.3285  0.5412
 1101TIP3    H124862   4.285   6.030   7.176 -3.2240  0.2631 -1.1239
 1101TIP3    H224863   4.282   5.964   7.040  0.2749 -2.5990  0.0353
 1102TIP3   OH224864   0.213   6.819   7.861 -0.1311  0.3701 -0.5313
 1102TIP3    H124865   0.222   6.753   7.792 -2.6239  1.3737 -1.9674
 1102TIP3    H224866   0.203   6.901   7.814  0.8400  1.5016  1.1558
 1103TIP3   OH224867   0.059   2.875   6.161  0.1071 -0.2036  0.4405
 1103TIP3    H124868   0.101   2.933   6.098 -0.1583 -1.1639 -0.6769
 1103TIP3    H224869  -0.017   2.840   6.114  0.8686 -2.2876  0.6297
 1104TIP3   OH224870   4.997   3.111   0.443  0.0422 -0.0188 -0.2351
 1104TIP3    H124871   4.929   3.155   0.392 -0.2147  0.1163  0.2152
 1104TIP3    H224872   4.999   3.022   0.408  0.1674  0.1842 -0.7639
 1105TIP3   OH224873   5.022   1.320   5.873  0.0413 -0.4021  0.1201
 1105TIP3    H124874   5.039   1.231   5.840  0.0625 -0.9827  1.5990
 1105TIP3    H224875   4.936   1.314   5.913 -0.4705  0.5775 -0.7915
 1106TIP3   OH224876   2.433   2.497   1.437 -0.0372 -0.1584  0.3441
 1106TIP3    H124877   2.363   2.558   1.461 -0.8934 -0.8780 -0.2477
 1106TIP3    H224878   2.501   2.512   1.502 -0.0092  1.7656 -0.0517
 1107TIP3   OH224879   1.561   0.515   6.149  0.1911  0.0198  0.3343
 1107TIP3    H124880   1.653   0.542   6.148  0.4618 -0.7889  1.1999
 1107TIP3    H224881   1.559   0.435   6.096 -0.0322  0.1036  0.2179
 1108TIP3   OH224882   1.307   2.440   1.981 -0.0863 -0.2415 -0.0571
 1108TIP3    H124883   1.280   2.380   2.050 -1.6657 -1.4138 -1.6143
 1108TIP3    H224884   1.263   2.522   2.002 -0.3545 -0.5156  0.4628
 1109TIP3   OH224885   4.880   3.985   7.009  0.4559  0.5886 -0.0235
 1109TIP3    H124886   4.890   4.024   7.095  2.4160  1.4348 -0.5743
 1109TIP3    H224887   4.936   4.037   6.952  0.4436 -0.9128 -1.5002
 1110TIP3   OH224888   4.620   3.179   1.702  0.2912 -0.1991 -0.0317
 1110TIP3    H124889   4.611   3.098   1.652 -0.1790  1.5064 -2.9118
 1110TIP3    H224890   4.531   3.210   1.714  0.5576  0.9630 -0.9025
 1111TIP3   OH224891   3.917   4.215   0.380  0.1908  0.5241 -0.5598
 1111TIP3    H124892   3.866   4.295   0.395  1.7291  1.3221  0.6187
 1111TIP3    H224893   4.008   4.242   0.391  0.7344 -1.4639  0.1926
 1112TIP3   OH224894   4.549   6.655   7.278 -0.5724  0.0640  0.3728
 1112TIP3    H124895   4.582   6.613   7.358  1.6401  0.6155 -0.1785
 1112TIP3    H224896   4.501   6.731   7.310 -0.9989 -0.5483  1.2227
 1113TIP3   OH224897   3.940   5.486   6.193  0.1559 -0.4311  0.3559
 1113TIP3    H124898   4.026   5.511   6.159 -0.4844  2.0247  0.3875
 1113TIP3    H224899   3.911   5.562   6.244 -1.0059 -2.1447  2.4043
 1114TIP3   OH224900   7.082   5.576   6.559  0.0224  0.5910  0.3357
 1114TIP3    H124901   7.017   5.516   6.595  0.0439  0.6498  0.4735
 1114TIP3    H224902   7.166   5.533   6.575  0.0367  0.6476  0.4187
 1115TIP3   OH224903   5.039   2.872   8.034 -0.0592 -0.0357 -0.7108
 1115TIP3    H124904   5.118   2.877   7.981  0.3431 -1.0403 -0.2501
 1115TIP3    H224905   5.044   2.948   8.092  0.8751 -0.3662 -0.3157
 1116TIP3   OH224906   6.891   5.487   7.093  0.1071  0.6787  0.4718
 1116TIP3    H124907   6.899   5.392   7.079  0.2064  0.8262 -0.5781
 1116TIP3    H224908   6.811   5.511   7.045  0.4209  1.2172  0.2143
 1117TIP3   OH224909   0.049   4.830   0.680  0.3254  0.5428 -0.6604
 1117TIP3    H124910   0.130   4.838   0.729  1.3066 -0.6339 -1.9869
 1117TIP3    H224911   0.029   4.918   0.650 -0.4078  1.3367  1.8928
 1118TIP3   OH224912   6.359   0.320   0.391  0.2481  0.9370 -0.2334
 1118TIP3    H124913   6.306   0.378   0.446 -0.2329  0.8291 -0.5881
 1118TIP3    H224914   6.388   0.376   0.319 -1.0739  0.4941 -1.1418
 1119TIP3   OH224915   5.563   5.298   0.977  0.5712  0.2592 -0.2663
 1119TIP3    H124916   5.500   5.229   1.000  0.7953  0.1776  0.1001
 1119TIP3    H224917   5.638   5.251   0.940  0.3659  0.3652 -0.8329
 1120TIP3   OH224918   4.889   1.180   1.065 -0.3889  0.2417  0.0762
 1120TIP3    H124919   4.872   1.092   1.100 -0.1332  0.3969  0.6035
 1120TIP3    H224920   4.926   1.228   1.139  0.9123  0.3394 -0.6107
 1121TIP3   OH224921   3.883   5.810   6.234 -0.7527  0.0574 -0.1845
 1121TIP3    H124922   3.891   5.896   6.193  0.4850  0.1828  0.2716
 1121TIP3    H224923   3.952   5.809   6.301 -1.4899 -0.8564  0.5915
 1122TIP3   OH224924   2.153   0.983   0.859 -0.5280 -0.6217 -0.5465
 1122TIP3    H124925   2.236   1.026   0.836  0.3087 -2.0166 -0.2773
 1122TIP3    H224926   2.086   1.036   0.816  0.5624  0.1267 -1.3860
 1123TIP3   OH224927   4.703   0.383   0.518  0.2063  0.2210 -0.0142
 1123TIP3    H124928   4.720   0.454   0.579 -0.0307  0.0241  0.2837
 1123TIP3    H224929   4.721   0.303   0.567 -0.7440  0.0373  0.0525
 1124TIP3   OH224930   5.216   3.377   0.827 -0.6779 -0.0897 -0.0684
 1124TIP3    H124931   5.156   3.445   0.857 -0.9880 -0.2726 -0.2713
 1124TIP3    H224932   5.299   3.397   0.870 -1.1427 -0.4250  1.0106
 1125TIP3   OH224933   4.660   6.149   1.178  0.3459 -0.3616  0.4974
 1125TIP3    H124934   4.684   6.231   1.221  1.1528 -0.1639 -0.3174
 1125TIP3    H224935   4.646   6.172   1.087  1.2165 -1.2304  0.1218
 1126TIP3   OH224936   3.949   5.361   7.997 -0.2242 -0.2887 -0.6808
 1126TIP3    H124937   4.026   5.379   7.943  0.9217 -2.0298  0.2752
 1126TIP3    H224938   3.944   5.265   8.001 -1.9816 -0.2176 -0.0569
 1127TIP3   OH224939   0.827   1.025   1.377  0.2343 -0.2628  0.4722
 1127TIP3    H124940   0.804   1.077   1.300 -2.7733 -1.7327  0.2089
 1127TIP3    H224941   0.811   1.083   1.452  1.6064  0.6540  0.0890
 1128TIP3   OH224942   5.968   1.362   0.277  0.3418 -0.1703 -0.0629
 1128TIP3    H124943   5.945   1.440   0.227  1.3390  0.6626  0.7335
 1128TIP3    H224944   5.918   1.291   0.236  1.1338  0.4624 -2.2246
 1129TIP3   OH224945   3.277   2.287   6.113  0.2906 -0.6921 -0.2357
 1129TIP3    H124946   3.350   2.311   6.055 -0.9703  0.2291 -1.5125
 1129TIP3    H224947   3.274   2.192   6.109  1.3868 -0.7370 -0.2095
 1130TIP3   OH224948   3.721   0.276   5.420  0.3849 -0.2237 -0.2178
 1130TIP3    H124949   3.768   0.282   5.503 -0.5903 -2.0392  0.5314
 1130TIP3    H224950   3.789   0.267   5.354  1.1964  1.7536  0.2819
 1131TIP3   OH224951   1.921   1.535   1.651  0.4495  0.1549  0.4441
 1131TIP3    H124952   1.906   1.628   1.637  0.2665  0.2414  1.2004
 1131TIP3    H224953   1.859   1.510   1.720 -0.2165 -0.7525 -0.4473
 1132TIP3   OH224954   2.457   0.860   6.494  0.8089 -0.1794  0.3095
 1132TIP3    H124955   2.444   0.770   6.465 -0.0250  0.5552 -1.7343
 1132TIP3    H224956   2.399   0.912   6.439 -0.9887  1.3775  3.3722
 1133TIP3   OH224957   4.645   7.122   6.985  0.0168 -0.4751  0.2148
 1133TIP3    H124958   4.600   7.187   6.929  1.1566 -0.6293 -0.9300
 1133TIP3    H224959   4.737   7.131   6.962  0.5366 -0.5829  2.0896
 1134TIP3   OH224960   0.024   2.539   5.952  0.3966  0.0161  0.0252
 1134TIP3    H124961   0.051   2.499   5.869  3.5393  1.9491 -0.0381
 1134TIP3    H224962  -0.035   2.609   5.926 -1.4301 -1.5220 -0.2072
 1135TIP3   OH224963   2.601   0.470   7.956 -0.2042 -0.2481  0.2895
 1135TIP3    H124964   2.514   0.437   7.978  0.0072 -1.7158 -0.9097
 1135TIP3    H224965   2.590   0.565   7.950 -1.4954 -0.3324  1.0500
 1136TIP3   OH224966   1.235   3.685   0.281  0.1983 -0.1562  0.8282
 1136TIP3    H124967   1.214   3.660   0.191 -1.1937 -2.2159  1.6474
 1136TIP3    H224968   1.153   3.719   0.316  0.6603  0.3888  1.4164
 1137TIP3   OH224969   4.733   5.342   7.364  0.0959  0.1412  0.0104
 1137TIP3    H124970   4.637   5.350   7.357 -0.0485 -0.9966  0.3752
 1137TIP3    H224971   4.746   5.251   7.392  1.2894  0.2970 -0.0295
 1138TIP3   OH224972   2.724   4.604   6.478  0.2192 -0.4411  0.1417
 1138TIP3    H124973   2.712   4.628   6.386  0.6164 -0.5309  0.0664
 1138TIP3    H224974   2.720   4.509   6.479  0.7378 -0.4654  0.1411
 1139TIP3   OH224975   5.397   3.847   1.649  0.1056 -0.1485  1.2867
 1139TIP3    H124976   5.444   3.772   1.686 -0.5792 -0.3490  1.7642
 1139TIP3    H224977   5.311   3.844   1.690 -0.0700  0.6600  0.9906
 1140TIP3   OH224978   2.786   6.929   6.818 -0.1442  0.1469 -0.0441
 1140TIP3    H124979   2.739   6.946   6.737  0.7234 -2.2502 -1.1484
 1140TIP3    H224980   2.873   6.966   6.803  0.2192 -0.8597 -0.5034
 1141TIP3   OH224981   3.941   6.090   6.382 -0.9307 -0.3588 -0.8917
 1141TIP3    H124982   3.963   6.180   6.357  0.1015 -0.3159  0.1204
 1141TIP3    H224983   4.026   6.049   6.400 -1.5636 -0.2846  2.8804
 1142TIP3   OH224984   5.143   6.560   2.385 -0.3926  0.2877 -0.3209
 1142TIP3    H124985   5.165   6.469   2.406 -0.9188 -0.4751 -2.7363
 1142TIP3    H224986   5.072   6.554   2.322  1.5090  2.1930 -2.9032
 1143TIP3   OH224987   3.365   2.140   0.965 -0.7403  0.7936  0.4398
 1143TIP3    H124988   3.363   2.064   1.023  0.4900  0.5027  0.1247
 1143TIP3    H224989   3.415   2.206   1.014  1.7257  0.0052 -0.8650
 1144TIP3   OH224990   0.280   6.566   7.083 -0.0081 -0.0376  0.9366
 1144TIP3    H124991   0.287   6.574   7.178  1.9231  0.6393  0.7916
 1144TIP3    H224992   0.259   6.655   7.053  0.3392 -0.0407  0.6768
 1145TIP3   OH224993   1.623   7.018   0.262  0.0791 -0.1012  0.1929
 1145TIP3    H124994   1.650   6.988   0.176 -1.1901  0.1696 -0.3270
 1145TIP3    H224995   1.697   7.070   0.294  0.4167  0.0972 -0.8824
 1146TIP3   OH224996   1.779   1.367   6.336  0.0217 -0.0495 -0.3981
 1146TIP3    H124997   1.773   1.461   6.321 -0.1447 -0.0513 -0.3464
 1146TIP3    H224998   1.873   1.348   6.335  0.0084 -0.1693 -2.1178
 1147TIP3   OH224999   4.485   6.394   7.332  0.3662  0.1262  0.3167
 1147TIP3    H125000   4.470   6.479   7.290  0.6066  0.2098  0.4023
 1147TIP3    H225001   4.527   6.415   7.415 -1.1442  0.0370  1.1347
 1148TIP3   OH225002   3.445   3.575   0.815  0.6965 -0.0077  0.0090
 1148TIP3    H125003   3.425   3.605   0.727 -2.8506 -2.9666 -0.4423
 1148TIP3    H225004   3.376   3.614   0.870 -0.2085 -2.0472  0.4494
 1149TIP3   OH225005   6.696   5.875   7.373 -0.1246 -0.0992 -0.0697
 1149TIP3    H125006   6.614   5.914   7.343 -0.8801 -0.8896  0.8802
 1149TIP3    H225007   6.681   5.780   7.366  1.2818 -0.2635 -1.3517
 1150TIP3   OH225008   5.230   5.253   1.686  0.1875  0.1215  0.3830
 1150TIP3    H125009   5.155   5.258   1.627 -0.6113  0.8475  1.4092
 1150TIP3    H225010   5.197   5.287   1.770  1.5794  0.1851  0.9425
 1151TIP3   OH225011   1.599   4.903   6.304 -0.2136  0.0233  0.1446
 1151TIP3    H125012   1.575   4.844   6.375  0.5289  2.2853  2.4260
 1151TIP3    H225013   1.692   4.887   6.290 -0.2050  0.0532  0.1663
 1152TIP3   OH225014   6.498   6.034   6.964 -0.1623 -0.5343 -0.2691
 1152TIP3    H125015   6.554   6.063   6.892  0.4616 -0.3124  0.2929
 1152TIP3    H225016   6.431   6.102   6.970  1.2782  0.8583  1.0262
 1153TIP3   OH225017   0.283   6.114   0.186 -0.3656 -0.3348  0.3719
 1153TIP3    H125018   0.191   6.141   0.176 -0.0353  0.9603  0.6731
 1153TIP3    H225019   0.291   6.093   0.279  0.0258  1.1509  0.7040
 1154TIP3   OH225020   2.447   2.134   0.134  0.1603  0.6577 -0.0879
 1154TIP3    H125021   2.456   2.194   0.208 -0.5770  2.1782 -1.1724
 1154TIP3    H225022   2.354   2.136   0.113  0.0077 -1.3711  0.2022
 1155TIP3   OH225023   5.361   3.829   6.410 -0.6610  0.4009  0.0907
 1155TIP3    H125024   5.284   3.772   6.407  0.5842 -1.4852  1.1976
 1155TIP3    H225025   5.436   3.768   6.407  0.7561  2.0006  0.9597
 1156TIP3   OH225026   6.010   5.083   5.734  0.2762 -0.1469 -0.8660
 1156TIP3    H125027   6.054   5.048   5.812 -0.2677  0.6527 -0.1923
 1156TIP3    H225028   6.019   5.014   5.669  0.1086 -1.1293  0.1268
 1157TIP3   OH225029   6.536   5.685   7.851  0.4871  0.6693 -0.4216
 1157TIP3    H125030   6.583   5.655   7.929  0.3271  2.5067  0.4327
 1157TIP3    H225031   6.592   5.658   7.778  1.3765  0.1901  0.4024
 1158TIP3   OH225032   0.480   2.989   0.280 -0.1075  0.6703 -0.6424
 1158TIP3    H125033   0.457   2.898   0.300  0.4135  0.5656 -0.4941
 1158TIP3    H225034   0.509   2.987   0.189  1.5499  0.3549 -0.1366
 1159TIP3   OH225035   6.485   3.099   6.631 -0.0266 -0.0524 -0.2098
 1159TIP3    H125036   6.423   3.158   6.588 -0.7166  0.1867  1.0677
 1159TIP3    H225037   6.449   3.086   6.718  1.0980 -0.8917  0.1487
 1160TIP3   OH225038   5.210   0.313   0.828  0.0256  0.2103 -0.1011
 1160TIP3    H125039   5.180   0.361   0.751  1.1681  1.0661 -0.0355
 1160TIP3    H225040   5.176   0.362   0.902 -2.6736 -1.6331  0.0133
 1161TIP3   OH225041   7.098   3.153   6.331  0.7048  0.2704 -0.2002
 1161TIP3    H125042   7.164   3.162   6.262  1.2068 -0.3130  0.1881
 1161TIP3    H225043   7.119   3.069   6.373 -0.7513 -0.2913 -0.5479
 1162TIP3   OH225044   0.590   5.694   6.627  0.0312 -0.3704  0.2194
 1162TIP3    H125045   0.530   5.620   6.640 -0.5337  0.2523  1.2358
 1162TIP3    H225046   0.612   5.690   6.533 -0.1466 -1.6910  0.2101
 1163TIP3   OH225047   0.425   0.762   1.837  0.3044  0.6181  0.4445
 1163TIP3    H125048   0.423   0.667   1.822 -1.8430  0.9088 -1.7682
 1163TIP3    H225049   0.334   0.785   1.855  0.5959  2.4110 -0.1678
 1164TIP3   OH225050   3.632   4.902   1.850  0.1895  0.2043 -0.2102
 1164TIP3    H125051   3.568   4.959   1.808 -0.8244 -1.5131 -1.0762
 1164TIP3    H225052   3.597   4.887   1.938 -1.2730 -1.6560 -1.0532
 1165TIP3   OH225053   1.109   2.172   1.075 -1.1000 -0.4124  0.0528
 1165TIP3    H125054   1.096   2.077   1.070 -1.1397 -0.3549 -1.3825
 1165TIP3    H225055   1.049   2.201   1.144  0.1602 -1.6203  1.7584
 1166TIP3   OH225056   1.255   0.363   7.938 -0.0749 -0.4900  0.2290
 1166TIP3    H125057   1.318   0.426   7.903  2.3477 -1.1009  3.0994
 1166TIP3    H225058   1.307   0.305   7.994 -3.1984 -0.9110  3.0003
 1167TIP3   OH225059   5.438   1.865   6.465  0.2605  0.0894  0.0659
 1167TIP3    H125060   5.462   1.905   6.381 -1.3299 -0.7899 -0.8604
 1167TIP3    H225061   5.522   1.844   6.506  1.0759  0.8059 -1.1693
 1168TIP3   OH225062   3.802   2.469   7.628 -0.4627  0.3005 -0.0032
 1168TIP3    H125063   3.811   2.559   7.597 -0.7532  0.6636  0.9529
 1168TIP3    H225064   3.783   2.419   7.548 -0.8420  1.1600 -0.4703
 1169TIP3   OH225065   3.092   4.399   1.987 -0.3723 -0.1864 -0.7183
 1169TIP3    H125066   3.058   4.402   1.897 -1.7792  1.3956 -0.1735
 1169TIP3    H225067   3.018   4.425   2.042  1.2646  1.9003  0.6491
 1170TIP3   OH225068   0.927   1.762   2.030  0.3100 -0.2141  0.0853
 1170TIP3    H125069   0.911   1.804   1.946 -0.6894 -1.6616 -0.4917
 1170TIP3    H225070   0.912   1.669   2.014 -1.5267 -0.3900  2.1975
 1171TIP3   OH225071   2.508   0.757   7.301 -0.3991  0.1972  0.4594
 1171TIP3    H125072   2.415   0.747   7.280 -0.2760 -3.9031  1.1648
 1171TIP3    H225073   2.553   0.743   7.218 -0.3416  0.1882  0.4924
 1172TIP3   OH225074   2.484   5.078   1.215 -1.1739 -0.2899  0.7786
 1172TIP3    H125075   2.499   5.107   1.305  1.0865  1.1184  0.0295
 1172TIP3    H225076   2.431   5.148   1.176  0.0192  0.3944  0.3458
 1173TIP3   OH225077   5.961   1.714   6.213 -0.1711 -0.1953  0.1363
 1173TIP3    H125078   5.883   1.663   6.235 -0.1497 -0.6316 -0.7567
 1173TIP3    H225079   5.976   1.696   6.120  0.0033  1.2107 -0.1282
 1174TIP3   OH225080   3.433   0.652   1.438  0.0963 -0.1547 -0.0478
 1174TIP3    H125081   3.525   0.650   1.411  0.5884  0.1318  1.5227
 1174TIP3    H225082   3.432   0.704   1.518 -1.4736 -0.0250 -0.1084
 1175TIP3   OH225083   7.131   4.199   1.612  0.2052 -0.0584  0.3404
 1175TIP3    H125084   7.188   4.263   1.653  2.2669 -1.3607 -0.2931
 1175TIP3    H225085   7.158   4.115   1.650 -1.5727 -0.7023  0.2696
 1176TIP3   OH225086   3.528   1.829   6.651 -0.0523  0.1154 -0.2411
 1176TIP3    H125087   3.608   1.779   6.633 -0.3007 -0.5252  0.3667
 1176TIP3    H225088   3.460   1.762   6.659 -0.7917  0.6841 -1.3887
 1177TIP3   OH225089   4.144   1.502   7.563 -0.1029  0.2016  0.0125
 1177TIP3    H125090   4.160   1.461   7.648  1.5420 -0.8970 -0.7650
 1177TIP3    H225091   4.196   1.450   7.501 -2.2474  0.1696 -1.8939
 1178TIP3   OH225092   2.579   3.290   7.038  0.0794 -0.4549  0.1003
 1178TIP3    H125093   2.619   3.373   7.011  0.1484 -0.4642  0.1723
 1178TIP3    H225094   2.495   3.288   6.993  0.2090 -0.4877 -0.1393
 1179TIP3   OH225095   3.067   4.939   2.020 -0.2557 -0.1235  0.3323
 1179TIP3    H125096   3.067   4.850   1.986 -2.2589 -0.2397  0.5355
 1179TIP3    H225097   3.107   4.992   1.950 -0.0218 -1.0128 -0.2160
 1180TIP3   OH225098   6.179   3.523   7.392  0.5843  0.0357  0.4372
 1180TIP3    H125099   6.246   3.537   7.326 -0.2648  0.7356 -0.2963
 1180TIP3    H225100   6.125   3.603   7.390 -1.3806 -1.2413 -0.3092
 1181TIP3   OH225101   6.685   0.463   1.935 -0.2413 -0.0926  0.0698
 1181TIP3    H125102   6.721   0.473   2.023  0.1213 -1.6586  0.1272
 1181TIP3    H225103   6.656   0.551   1.911 -0.2916  0.3783  1.7238
 1182TIP3   OH225104   6.842   4.838   6.283  0.2936  0.7170 -0.1634
 1182TIP3    H125105   6.910   4.789   6.329 -0.6791 -0.9266 -0.3787
 1182TIP3    H225106   6.880   4.925   6.268  1.5586  0.4968  1.5050
 1183TIP3   OH225107   6.687   3.719   7.358 -0.2238 -0.3864 -0.7487
 1183TIP3    H125108   6.754   3.746   7.421  0.4618 -1.2563 -1.0952
 1183TIP3    H225109   6.666   3.629   7.382 -1.6246  0.0183 -0.3520
 1184TIP3   OH225110   5.620   3.242   7.319 -0.6991  0.0866 -0.3284
 1184TIP3    H125111   5.559   3.315   7.320  0.9405  1.5263  0.0832
 1184TIP3    H225112   5.651   3.237   7.228 -0.1681  0.4864 -0.1745
 1185TIP3   OH225113   1.737   5.173   7.660 -0.2671 -0.6161  0.4842
 1185TIP3    H125114   1.659   5.188   7.608 -0.5339  1.9020  1.4289
 1185TIP3    H225115   1.710   5.190   7.751  0.8485 -1.9912  1.1220
 1186TIP3   OH225116   1.144   0.135   0.146  0.0966  0.0022 -0.2805
 1186TIP3    H125117   1.232   0.128   0.182  0.5395 -0.3164 -1.3798
 1186TIP3    H225118   1.105   0.210   0.191  0.8878  0.0810  0.2920
 1187TIP3   OH225119   6.012   2.798   1.447  0.0911  0.2402 -0.2287
 1187TIP3    H125120   5.975   2.717   1.409  0.5005  0.0675 -0.2639
 1187TIP3    H225121   5.977   2.868   1.392 -1.7638  0.2726  0.8964
 1188TIP3   OH225122   4.114   5.885   0.910  0.2852 -0.0453 -0.1928
 1188TIP3    H125123   4.146   5.806   0.866 -2.2572 -0.2749 -1.8257
 1188TIP3    H225124   4.022   5.890   0.885 -0.3362  1.9216  2.1701
 1189TIP3   OH225125   4.220   4.447   1.155 -0.0775  0.1354 -0.8766
 1189TIP3    H125126   4.180   4.529   1.184 -0.0221 -0.5420  1.3549
 1189TIP3    H225127   4.146   4.392   1.130 -0.2018  0.4808 -1.2692
 1190TIP3   OH225128   0.705   6.449   7.791 -0.2797  0.0217 -0.8235
 1190TIP3    H125129   0.759   6.459   7.870 -0.7258  2.3650 -0.7357
 1190TIP3    H225130   0.621   6.416   7.824  0.5063 -2.0530 -0.7614
 1191TIP3   OH225131   5.989   4.116   0.719 -0.1648 -0.3199  0.6949
 1191TIP3    H125132   5.950   4.078   0.640  0.2411  0.4869  0.0844
 1191TIP3    H225133   5.927   4.183   0.747  0.8020  1.0848 -0.3782
 1192TIP3   OH225134   6.738   3.015   6.730  0.3717 -0.3328 -0.1755
 1192TIP3    H125135   6.666   3.065   6.691  0.0625 -1.7655 -1.5573
 1192TIP3    H225136   6.697   2.958   6.795  0.7267  1.1525  1.4167
 1193TIP3   OH225137   1.152   5.224   0.908 -0.2376  0.5299  0.3429
 1193TIP3    H125138   1.201   5.277   0.970 -0.2007  1.5176 -0.5088
 1193TIP3    H225139   1.209   5.218   0.831  1.0310 -3.1040  1.3381
 1194TIP3   OH225140   3.954   6.330   0.950  0.1041 -0.1737 -0.0006
 1194TIP3    H125141   3.900   6.289   1.017  0.8590 -1.6160 -0.2348
 1194TIP3    H225142   4.043   6.302   0.971  0.4339 -0.0674 -1.2069
 1195TIP3   OH225143   5.253   0.101   0.493 -0.5807 -0.5569 -0.0936
 1195TIP3    H125144   5.295   0.172   0.444  0.8591 -0.8719  0.6135
 1195TIP3    H225145   5.281   0.021   0.448 -0.7338 -0.7581  0.1659
 1196TIP3   OH225146   1.551   2.979   0.097  0.3201  0.2543  0.1354
 1196TIP3    H125147   1.547   3.018   0.184 -1.1471  0.6086 -0.0729
 1196TIP3    H225148   1.544   2.884   0.114 -2.2693  0.3970  0.3424
 1197TIP3   OH225149   1.519   6.261   6.068 -0.0261  0.1001  0.0951
 1197TIP3    H125150   1.555   6.331   6.013  0.0434  0.0831  0.1192
 1197TIP3    H225151   1.510   6.301   6.155 -2.1146  0.7971 -0.3750
 1198TIP3   OH225152   4.040   3.466   6.689 -0.5105 -0.4614 -0.2025
 1198TIP3    H125153   4.069   3.437   6.776  1.1516 -2.2442 -1.2710
 1198TIP3    H225154   4.078   3.402   6.629 -0.4858  1.4788 -2.3848
 1199TIP3   OH225155   6.749   4.931   7.346  0.3934 -0.0492 -0.1086
 1199TIP3    H125156   6.747   4.838   7.368  2.1549 -0.0785  0.0351
 1199TIP3    H225157   6.842   4.953   7.340  0.0117  1.6500 -0.3943
 1200TIP3   OH225158   5.230   1.489   0.147  0.4036  0.1880  0.1798
 1200TIP3    H125159   5.234   1.416   0.085  2.2861  0.8276 -0.5210
 1200TIP3    H225160   5.259   1.565   0.096 -1.2232  1.3916  0.9705
 1201TIP3   OH225161   2.644   6.490   6.908 -0.0754 -0.7003 -0.6506
 1201TIP3    H125162   2.605   6.575   6.926 -1.2424 -1.0013 -1.6322
 1201TIP3    H225163   2.585   6.427   6.950 -0.2957 -1.1227 -1.5758
 1202TIP3   OH225164   0.482   5.850   0.383 -0.1115 -0.4068  0.0828
 1202TIP3    H125165   0.518   5.869   0.296 -1.1945 -1.9756 -0.7748
 1202TIP3    H225166   0.463   5.936   0.421 -0.1615  0.3125 -1.4831
 1203TIP3   OH225167   3.491   2.108   7.982  0.0414 -0.5710 -0.4892
 1203TIP3    H125168   3.458   2.106   7.893 -1.4039  0.1118 -0.0014
 1203TIP3    H225169   3.541   2.189   7.988  0.1312 -0.6129 -0.6764
 1204TIP3   OH225170   0.336   6.411   1.988 -0.6149 -0.8228 -0.1648
 1204TIP3    H125171   0.283   6.490   1.986 -0.5305 -0.7016  1.4112
 1204TIP3    H225172   0.322   6.370   1.903 -0.3764  1.0631 -1.1644
 1205TIP3   OH225173   2.172   5.640   7.239  0.0344 -0.1175 -0.4249
 1205TIP3    H125174   2.190   5.581   7.313 -1.5846  0.1138  0.1943
 1205TIP3    H225175   2.255   5.644   7.191  1.2198 -0.0728  1.5142
 1206TIP3   OH225176   6.343   4.412   6.276  0.6427  0.0146  0.4718
 1206TIP3    H125177   6.340   4.507   6.270 -0.9642 -0.0718 -0.7411
 1206TIP3    H225178   6.273   4.389   6.336  0.6306 -0.4271  0.2984
 1207TIP3   OH225179   2.350   1.032   6.279 -0.0871 -0.0840  0.3836
 1207TIP3    H125180   2.381   1.063   6.194  1.7468 -1.0130  0.6447
 1207TIP3    H225181   2.374   1.102   6.340  1.4102 -0.6858  0.5437
 1208TIP3   OH225182   6.714   4.295   6.442  0.5640  0.0152 -0.4452
 1208TIP3    H125183   6.636   4.275   6.390 -0.3757  1.0890  0.4979
 1208TIP3    H225184   6.786   4.293   6.379 -0.4811  0.8322 -1.7233
 1209TIP3   OH225185   0.485   0.700   0.921  0.2686  0.9114  0.3624
 1209TIP3    H125186   0.451   0.787   0.942 -0.0784  1.5122 -2.2477
 1209TIP3    H225187   0.574   0.717   0.889  0.4721  0.2007  0.5286
 1210TIP3   OH225188   3.957   2.176   7.707 -0.6246  0.4243  0.5294
 1210TIP3    H125189   3.906   2.103   7.744  0.1840 -1.7308 -2.2584
 1210TIP3    H225190   4.040   2.173   7.753 -0.5824 -0.4715  0.4085
 1211TIP3   OH225191   0.713   1.684   6.020  0.2029 -1.2462  0.4484
 1211TIP3    H125192   0.755   1.598   6.027  0.3035 -1.1092  1.8545
 1211TIP3    H225193   0.650   1.686   6.093 -1.4581 -1.0006 -0.9370
 1212TIP3   OH225194   1.270   5.637   0.785  0.0668 -0.4304  0.2969
 1212TIP3    H125195   1.349   5.595   0.818 -0.6525 -1.6741  0.4930
 1212TIP3    H225196   1.274   5.625   0.690  1.2038  1.5060  0.0416
 1213TIP3   OH225197   4.646   0.192   1.449  0.3694  0.0212  0.0015
 1213TIP3    H125198   4.630   0.285   1.463 -0.9302 -0.5017  2.7544
 1213TIP3    H225199   4.741   0.184   1.444  0.4628  1.5831 -1.4315
 1214TIP3   OH225200   6.938   3.586   7.696  0.2527 -0.6859  0.7279
 1214TIP3    H125201   6.850   3.573   7.733 -0.1437 -1.9106 -0.5398
 1214TIP3    H225202   6.934   3.671   7.654 -0.1818 -0.5324  1.0731
 1215TIP3   OH225203   1.992   1.578   7.631 -0.4625 -0.3382 -0.1500
 1215TIP3    H125204   2.035   1.497   7.656  0.0241  0.4482  1.7295
 1215TIP3    H225205   2.057   1.625   7.579 -1.0061 -1.4172 -1.8893
 1216TIP3   OH225206   1.670   4.498   6.280 -0.2898 -0.7753 -0.0947
 1216TIP3    H125207   1.618   4.428   6.240  0.5423 -1.3907 -0.1062
 1216TIP3    H225208   1.743   4.511   6.220 -0.0639 -0.3789  0.2642
 1217TIP3   OH225209   4.066   1.246   7.256  0.3118 -0.3148  0.2556
 1217TIP3    H125210   4.029   1.180   7.197 -0.0649  0.4210 -0.3539
 1217TIP3    H225211   4.002   1.254   7.326 -0.1678  0.1639 -0.2270
 1218TIP3   OH225212   3.638   6.469   1.948  0.0893  0.1172  1.2707
 1218TIP3    H125213   3.662   6.396   1.892  2.2795  1.4543  0.3265
 1218TIP3    H225214   3.608   6.537   1.888  0.8411  0.9712  1.8291
 1219TIP3   OH225215   4.473   6.104   7.677 -0.2408  0.3329 -0.2858
 1219TIP3    H125216   4.467   6.032   7.614  0.1439  0.7249 -0.7739
 1219TIP3    H225217   4.533   6.166   7.637  1.7636 -0.3898  1.4202
 1220TIP3   OH225218   4.594   2.147   7.486 -0.2228  0.4376 -0.8142
 1220TIP3    H125219   4.607   2.242   7.493  0.0837  0.3043  0.8555
 1220TIP3    H225220   4.590   2.117   7.577 -1.6467 -0.9866 -1.3115
 1221TIP3   OH225221   0.181   1.382   7.665  0.0174 -0.1532 -0.7093
 1221TIP3    H125222   0.190   1.305   7.721 -3.4473  0.3416  0.7704
 1221TIP3    H225223   0.126   1.353   7.593 -1.0080  0.8084 -0.3372
 1222TIP3   OH225224   2.688   5.480   7.445  0.2612 -0.0289 -0.1895
 1222TIP3    H125225   2.709   5.522   7.361  1.9725  1.7067  1.0444
 1222TIP3    H225226   2.610   5.526   7.476 -0.2141 -0.4922 -0.6595
 1223TIP3   OH225227   5.175   1.839   0.594 -0.0652  0.0732  1.0824
 1223TIP3    H125228   5.163   1.791   0.512  0.0288  1.4227  0.2458
 1223TIP3    H225229   5.112   1.798   0.654 -1.5956  0.3445 -0.2507
 1224TIP3   OH225230   3.681   3.673   0.167  0.0335 -0.1910 -0.6855
 1224TIP3    H125231   3.706   3.644   0.254 -0.6429  0.5569 -0.2370
 1224TIP3    H225232   3.739   3.747   0.148 -1.9449  1.7922  0.5096
 1225TIP3   OH225233   2.104   5.076   0.078  0.1856 -0.5223 -0.3841
 1225TIP3    H125234   2.155   5.151   0.110  0.9714 -0.9245 -0.6617
 1225TIP3    H225235   2.078   5.029   0.157  0.7620 -0.6398 -0.2588
 1226TIP3   OH225236   2.675   2.525   0.040  0.7378 -0.4524  0.6469
 1226TIP3    H125237   2.647   2.499   0.128  1.6353  0.0131  1.0777
 1226TIP3    H225238   2.762   2.562   0.052  0.9218 -0.4947 -0.4623
 1227TIP3   OH225239   3.238   5.374   5.950  0.0307 -0.2477  0.0532
 1227TIP3    H125240   3.187   5.454   5.939 -0.4893 -0.5128  0.4653
 1227TIP3    H225241   3.226   5.326   5.868 -1.6084 -0.9829  0.6798
 1228TIP3   OH225242   5.488   3.423   7.035 -0.2699 -0.1179  0.5383
 1228TIP3    H125243   5.467   3.331   7.017  0.7427 -0.3603  0.5184
 1228TIP3    H225244   5.450   3.471   6.962 -0.4542 -0.5743  0.3336
 1229TIP3   OH225245   2.454   1.067   0.624 -0.6677  0.0300  0.7221
 1229TIP3    H125246   2.517   1.139   0.630  0.5393 -0.8552 -0.6913
 1229TIP3    H225247   2.467   1.017   0.705  1.0584 -0.5867  0.1095
 1230TIP3   OH225248   5.487   6.738   0.521 -0.4986  0.2275 -0.2269
 1230TIP3    H125249   5.464   6.658   0.568  0.2097 -1.3667 -2.4478
 1230TIP3    H225250   5.465   6.720   0.430 -1.2953  2.9877 -0.6939
 1231TIP3   OH225251   6.123   4.389   6.815 -0.2174 -0.6437  0.3092
 1231TIP3    H125252   6.208   4.361   6.780  1.1378 -1.0683  3.5166
 1231TIP3    H225253   6.058   4.343   6.762  1.7312 -3.8686  0.4540
 1232TIP3   OH225254   0.998   5.102   7.593 -0.0142 -0.0475  0.2911
 1232TIP3    H125255   0.947   5.172   7.633  0.5621 -0.3222  1.5868
 1232TIP3    H225256   1.060   5.146   7.536 -0.6053  0.3940 -0.0114
 1233TIP3   OH225257   6.596   6.267   6.367 -0.5793 -0.3913  0.2710
 1233TIP3    H125258   6.571   6.223   6.286 -1.1269 -1.2031  0.8696
 1233TIP3    H225259   6.647   6.343   6.338 -1.3107 -0.3057 -0.8532
 1234TIP3   OH225260   2.603   5.099   0.546  0.0256 -0.2059 -0.3009
 1234TIP3    H125261   2.598   5.194   0.555  0.9188 -0.1682 -0.1076
 1234TIP3    H225262   2.664   5.085   0.473 -0.6499 -0.6283 -0.7977
 1235TIP3   OH225263   3.091   1.797   6.211 -0.1970 -0.0661  0.1158
 1235TIP3    H125264   3.152   1.723   6.211  0.7964  0.7433 -0.2375
 1235TIP3    H225265   3.051   1.796   6.124 -0.1670 -0.1741  0.1035
 1236TIP3   OH225266   7.135   6.997   1.576 -0.0331 -0.1562  0.3463
 1236TIP3    H125267   7.068   6.936   1.606 -0.2946  1.5873  3.7653
 1236TIP3    H225268   7.212   6.977   1.630  0.7247  0.8115 -0.3383
 1237TIP3   OH225269   4.542   3.501   5.991  0.2625 -0.1124  0.1206
 1237TIP3    H125270   4.566   3.409   5.989  0.9101 -0.0063  1.7768
 1237TIP3    H225271   4.446   3.501   5.995  0.2358 -0.6849 -0.4402
 1238TIP3   OH225272   6.084   5.314   0.573  0.0698 -0.2345  0.0417
 1238TIP3    H125273   6.063   5.247   0.638 -0.3346 -0.2127 -0.0656
 1238TIP3    H225274   6.020   5.383   0.589 -0.2251 -0.3570 -0.5767
 1239TIP3   OH225275   6.848   4.234   1.108 -0.1590 -0.0670 -0.0922
 1239TIP3    H125276   6.772   4.261   1.160  0.1858  2.2219 -0.6328
 1239TIP3    H225277   6.818   4.239   1.017  0.5291  0.6161 -0.3000
 1240TIP3   OH225278   0.803   6.941   6.871 -0.0075 -0.0169  0.3175
 1240TIP3    H125279   0.758   6.886   6.935  2.1728 -0.6122  1.4148
 1240TIP3    H225280   0.861   6.882   6.825  0.0987  0.8330 -0.6677
 1241TIP3   OH225281   5.261   4.312   0.577  0.0002  0.1498  0.0551
 1241TIP3    H125282   5.288   4.392   0.531  1.3587  0.8487  1.9198
 1241TIP3    H225283   5.196   4.341   0.641  2.0477  0.2607  2.2293
 1242TIP3   OH225284   2.497   2.961   1.252 -0.4933 -0.1666 -0.1501
 1242TIP3    H125285   2.524   2.932   1.165 -0.1626 -1.0231  0.2247
 1242TIP3    H225286   2.552   3.038   1.269  0.2051 -0.6189 -0.2827
 1243TIP3   OH225287   5.069   3.272   1.887 -0.1099 -0.0596 -0.2947
 1243TIP3    H125288   5.162   3.274   1.910 -0.2179  2.0546  0.1030
 1243TIP3    H225289   5.067   3.239   1.798  1.2206  1.6258 -1.0033
 1244TIP3   OH225290   0.960   6.465   0.764 -0.5360  0.5238 -0.2780
 1244TIP3    H125291   0.976   6.439   0.855  0.2225 -2.4106 -1.1504
 1244TIP3    H225292   1.040   6.511   0.738 -1.1645  2.3185  0.7712
 1245TIP3   OH225293   1.080   4.827   0.827 -0.2362 -0.0235 -0.0319
 1245TIP3    H125294   1.092   4.858   0.917 -1.0389 -1.1761  0.5104
 1245TIP3    H225295   1.067   4.733   0.837 -0.7098 -0.1054 -1.3239
 1246TIP3   OH225296   3.498   2.558   6.066 -0.3022  0.3892  0.3889
 1246TIP3    H125297   3.545   2.634   6.032 -0.2212 -0.8820 -2.6768
 1246TIP3    H225298   3.413   2.561   6.022 -0.9238 -0.4384  1.4819
 1247TIP3   OH225299   0.163   4.083   0.213 -0.1252  0.2301  0.3219
 1247TIP3    H125300   0.228   4.013   0.220  0.6053  0.9522  1.0428
 1247TIP3    H225301   0.212   4.163   0.234 -0.7316  1.0810 -1.3678
 1248TIP3   OH225302   2.342   1.226   6.905  0.2241 -0.1803 -0.0592
 1248TIP3    H125303   2.314   1.145   6.946  0.8115 -0.6585 -0.5773
 1248TIP3    H225304   2.409   1.199   6.841 -1.3552  0.3885 -2.0511
 1249TIP3   OH225305   2.293   1.846   5.715 -0.0955 -0.1863  0.7134
 1249TIP3    H125306   2.244   1.925   5.739 -0.0470 -0.3797  1.4831
 1249TIP3    H225307   2.385   1.872   5.720 -0.0635 -0.4251  1.4870
 1250TIP3   OH225308   6.232   2.126   0.442 -0.1016 -0.0187  0.5580
 1250TIP3    H125309   6.178   2.196   0.405  0.7014 -1.4359 -3.9086
 1250TIP3    H225310   6.315   2.169   0.462  0.0910  0.5792 -1.2848
 1251TIP3   OH225311   2.863   2.953   1.205  0.0330  0.3220  0.0897
 1251TIP3    H125312   2.923   2.952   1.130 -0.1909  1.9335 -0.1383
 1251TIP3    H225313   2.860   2.862   1.234  1.2650 -0.0820 -0.9500
 1252TIP3   OH225314   5.119   7.142   7.328 -0.1061 -0.7014 -0.5186
 1252TIP3    H125315   5.176   7.215   7.302 -1.3855  0.0926 -1.1494
 1252TIP3    H225316   5.180   7.073   7.356  1.1414  0.7839  0.6327
 1253TIP3   OH225317   3.668   6.956   1.145 -0.2636  0.0309  0.5968
 1253TIP3    H125318   3.752   6.976   1.186 -0.4700 -0.9344  1.5665
 1253TIP3    H225319   3.605   7.011   1.191 -0.2208  0.4458  0.1607
 1254TIP3   OH225320   5.017   0.854   6.163 -0.3184  0.1368 -0.3076
 1254TIP3    H125321   4.969   0.774   6.185 -0.4986 -0.1626 -1.6915
 1254TIP3    H225322   5.018   0.856   6.067  2.3620  0.1765 -0.3620
 1255TIP3   OH225323   6.769   3.604   5.922  0.3048 -0.0767  0.5778
 1255TIP3    H125324   6.761   3.666   5.994  0.5368 -0.7704  1.2213
 1255TIP3    H225325   6.697   3.542   5.934  1.0109 -0.8661  0.9084
 1256TIP3   OH225326   5.320   4.357   1.010 -0.1551  0.4792 -0.2994
 1256TIP3    H125327   5.320   4.446   1.044 -0.6618  0.1587  0.5739
 1256TIP3    H225328   5.337   4.302   1.086 -0.9235 -0.2323 -0.6175
 1257TIP3   OH225329   1.412   0.649   6.330  0.0775 -1.1026 -0.3460
 1257TIP3    H125330   1.439   0.606   6.250  0.9618 -0.5634 -0.3537
 1257TIP3    H225331   1.414   0.580   6.397  0.9063 -1.2169 -0.4743
 1258TIP3   OH225332   2.812   6.667   6.146 -0.2775  0.2877  0.5402
 1258TIP3    H125333   2.859   6.624   6.074 -0.8510 -0.4476  0.5828
 1258TIP3    H225334   2.862   6.747   6.164 -0.3359  0.6656 -0.9126
 1259TIP3   OH225335   2.518   5.655   7.574  0.7835 -0.2894  0.9958
 1259TIP3    H125336   2.563   5.734   7.544  1.9982 -0.9925  0.9273
 1259TIP3    H225337   2.564   5.630   7.654 -0.8150  0.1328  2.0961
 1260TIP3   OH225338   2.517   6.756   7.928 -0.6468  0.0998 -0.1179
 1260TIP3    H125339   2.580   6.697   7.970 -0.3215  0.3887 -0.1949
 1260TIP3    H225340   2.515   6.727   7.836 -2.2123 -1.2723  0.3054
 1261TIP3   OH225341   6.125   2.060   7.528 -0.7558  0.4551 -0.1495
 1261TIP3    H125342   6.169   2.140   7.500 -0.7823  1.2067  1.8171
 1261TIP3    H225343   6.193   1.992   7.524 -0.3174  0.8976 -0.3167
 1262TIP3   OH225344   3.304   0.486   0.016 -0.0012  0.1772 -0.4122
 1262TIP3    H125345   3.212   0.481   0.041  0.3926  0.4460  1.2009
 1262TIP3    H225346   3.332   0.395   0.012 -0.0762  0.1232  0.1765
 1263TIP3   OH225347   4.445   5.989   6.589  0.2718 -0.1702 -0.1566
 1263TIP3    H125348   4.428   6.081   6.607  1.7339  0.2713 -0.8481
 1263TIP3    H225349   4.462   5.950   6.674  1.7619  0.6912 -0.0335
 1264TIP3   OH225350   2.842   3.870   5.892 -0.5496  0.3611 -0.1380
 1264TIP3    H125351   2.874   3.936   5.954 -0.4360 -0.6129  0.8492
 1264TIP3    H225352   2.911   3.866   5.825 -1.2167  2.2687 -1.0259
 1265TIP3   OH225353   0.910   5.312   1.357  0.7223  0.0711 -0.3077
 1265TIP3    H125354   0.952   5.366   1.424 -1.3710  0.0222  1.1409
 1265TIP3    H225355   0.910   5.224   1.394 -0.5145  0.0544 -0.3153
 1266TIP3   OH225356   6.259   3.575   0.408 -0.1158 -0.5366  0.7902
 1266TIP3    H125357   6.228   3.628   0.335  2.0536 -0.1627  0.0684
 1266TIP3    H225358   6.181   3.533   0.443 -1.4440  0.6911 -0.6037
 1267TIP3   OH225359   0.814   6.843   6.480  0.5446 -0.4789 -0.2587
 1267TIP3    H125360   0.756   6.818   6.408  0.7449 -0.1706 -0.5355
 1267TIP3    H225361   0.898   6.859   6.437  0.8321 -0.9177  0.1381
 1268TIP3   OH225362   6.016   3.753   7.371 -0.6398  0.1862 -0.3900
 1268TIP3    H125363   6.037   3.775   7.280 -0.9230 -1.4427 -0.8737
 1268TIP3    H225364   5.929   3.714   7.367 -1.9733  2.7153  1.0073
 1269TIP3   OH225365   4.953   0.960   6.811  0.3355 -0.0432  0.2536
 1269TIP3    H125366   4.878   1.012   6.785  1.2953  1.0827 -0.3342
 1269TIP3    H225367   4.983   1.000   6.893 -0.2460 -1.0703  0.9917
 1270TIP3   OH225368   0.365   5.560   1.793 -0.0178 -0.7218 -0.2679
 1270TIP3    H125369   0.300   5.522   1.852 -0.0169 -2.0394 -1.0711
 1270TIP3    H225370   0.428   5.602   1.852  0.3360 -2.5471  0.7629
 1271TIP3   OH225371   1.627   3.187   1.578  0.4442  0.2086 -0.1548
 1271TIP3    H125372   1.715   3.155   1.557 -0.8979 -2.7885 -1.8041
 1271TIP3    H225373   1.601   3.135   1.655 -0.5366 -0.2531 -0.7926
 1272TIP3   OH225374   6.659   5.922   2.457  0.7184  0.8382 -0.5640
 1272TIP3    H125375   6.748   5.954   2.467  0.4546  1.6832 -0.7939
 1272TIP3    H225376   6.640   5.931   2.364  0.6873 -0.1759 -0.6705
 1273TIP3   OH225377   0.018   2.626   1.765 -0.0645 -0.3225  0.1363
 1273TIP3    H125378   0.078   2.636   1.839  0.0670  0.5117 -0.0748
 1273TIP3    H225379  -0.064   2.596   1.805 -0.5272  1.7537  0.8765
 1274TIP3   OH225380   3.558   0.494   0.299 -0.1827  0.2221 -0.3754
 1274TIP3    H125381   3.572   0.425   0.364  0.0029 -0.9043 -1.5685
 1274TIP3    H225382   3.600   0.461   0.220  0.3999  1.9665 -0.8347
 1275TIP3   OH225383   4.162   1.725   0.296  0.1644 -0.0245 -0.0183
 1275TIP3    H125384   4.077   1.740   0.254  0.5032 -1.1481 -1.1440
 1275TIP3    H225385   4.206   1.662   0.240  1.9721  0.9149  0.2886
 1276TIP3   OH225386   4.640   1.977   6.935  0.4013  0.4790 -0.0674
 1276TIP3    H125387   4.730   1.991   6.905  0.9429  0.5848  1.5375
 1276TIP3    H225388   4.642   1.996   7.029 -0.4539 -3.1450  0.8502
 1277TIP3   OH225389   3.962   1.944   7.051 -0.4275 -0.5202  0.3523
 1277TIP3    H125390   3.991   1.854   7.068  0.3191 -0.3386  0.0637
 1277TIP3    H225391   3.872   1.935   7.018  0.1422 -1.2624 -1.0668
 1278TIP3   OH225392   0.524   2.716   5.976 -0.0281  0.4951  0.2664
 1278TIP3    H125393   0.474   2.644   6.015  0.4611 -0.2644 -0.4767
 1278TIP3    H225394   0.457   2.778   5.947 -0.7085 -1.1473 -2.0113
 1279TIP3   OH225395   4.784   2.553   8.011  0.2107 -0.1903  0.1252
 1279TIP3    H125396   4.878   2.538   7.997  0.1133  0.4460 -1.3165
 1279TIP3    H225397   4.763   2.628   7.955 -1.6627 -1.8443 -1.5148
 1280TIP3   OH225398   2.580   6.984   0.070 -0.5345  0.3415  0.2140
 1280TIP3    H125399   2.595   7.066   0.023  0.2993 -0.5169 -1.0672
 1280TIP3    H225400   2.540   6.926   0.006 -0.4509 -0.4834  0.8896
 1281TIP3   OH225401   0.151   4.077   6.857  0.1316  0.4839  0.5397
 1281TIP3    H125402   0.072   4.112   6.898 -0.8415 -0.7208 -0.2548
 1281TIP3    H225403   0.174   4.001   6.910 -0.4576 -0.3872 -0.4150
 1282TIP3   OH225404   3.628   0.328   6.216 -0.3626 -0.3681  0.1682
 1282TIP3    H125405   3.549   0.360   6.173  1.0272  0.5521 -1.8218
 1282TIP3    H225406   3.604   0.322   6.309 -2.8847 -0.5899 -0.4334
 1283TIP3   OH225407   3.508   2.678   7.633 -0.9076  0.2061  0.2571
 1283TIP3    H125408   3.601   2.695   7.644 -0.9491  0.3569  0.3764
 1283TIP3    H225409   3.470   2.763   7.609 -1.1027  0.2705  0.7847
 1284TIP3   OH225410   6.305   2.201   2.031  0.5603  0.6184 -0.4438
 1284TIP3    H125411   6.362   2.132   1.997 -0.8906 -0.4591 -0.7303
 1284TIP3    H225412   6.272   2.168   2.115 -2.1884 -0.2425 -1.7607
 1285TIP3   OH225413   6.177   6.884   6.256 -0.1593  0.4336 -0.7923
 1285TIP3    H125414   6.160   6.793   6.232  0.4117  0.2370 -0.4429
 1285TIP3    H225415   6.187   6.883   6.351  1.4789  0.5859 -0.9344
 1286TIP3   OH225416   1.325   5.465   6.424 -0.4209 -0.5354 -0.0541
 1286TIP3    H125417   1.320   5.374   6.452  2.1701 -1.2528 -1.6044
 1286TIP3    H225418   1.343   5.461   6.330 -1.2616  1.6049 -0.3719
 1287TIP3   OH225419   5.015   3.524   0.916 -0.1527 -0.8506 -0.2195
 1287TIP3    H125420   4.986   3.437   0.946 -2.9024  0.8815  2.7680
 1287TIP3    H225421   4.935   3.566   0.884  1.3492  0.2605 -2.9244
 1288TIP3   OH225422   1.469   1.693   6.302  0.4599  0.0431 -0.2293
 1288TIP3    H125423   1.514   1.729   6.378 -1.1338 -0.6854  1.1048
 1288TIP3    H225424   1.511   1.736   6.227  2.6969  0.0913  0.9691
 1289TIP3   OH225425   5.193   4.993   7.291  0.6395  0.4193  0.0241
 1289TIP3    H125426   5.100   5.016   7.290  0.1887 -1.2626  0.8297
 1289TIP3    H225427   5.226   5.030   7.373  0.8191  1.4141 -0.4764
 1290TIP3   OH225428   1.704   2.915   1.505 -0.0041 -0.4865 -0.2306
 1290TIP3    H125429   1.794   2.884   1.514  0.4124  0.8970  0.6533
 1290TIP3    H225430   1.655   2.867   1.572 -0.1285 -1.8049 -1.2055
 1291TIP3   OH225431   2.045   2.847   7.300 -0.1275  0.6466  0.3122
 1291TIP3    H125432   2.024   2.755   7.311 -1.3465  1.0294  1.3530
 1291TIP3    H225433   2.022   2.888   7.383  1.0315  1.7894  0.1143
 1292TIP3   OH225434   0.238   3.406   7.150 -0.2032  0.1275  0.0500
 1292TIP3    H125435   0.170   3.468   7.124 -0.6193 -0.5113 -0.4201
 1292TIP3    H225436   0.276   3.376   7.067  0.1195 -0.1100  0.2817
 1293TIP3   OH225437   4.355   0.728   6.482 -0.0928 -0.0264  0.1277
 1293TIP3    H125438   4.324   0.754   6.395 -1.4446 -1.3810  0.1505
 1293TIP3    H225439   4.363   0.633   6.477 -0.0230 -0.1131  1.4343
 1294TIP3   OH225440   5.493   0.081   1.814 -0.2203 -0.3528 -0.0718
 1294TIP3    H125441   5.477   0.088   1.720 -0.1817 -0.4678 -0.0875
 1294TIP3    H225442   5.563   0.144   1.831 -0.7578  0.2318  0.0171
 1295TIP3   OH225443   2.294   0.405   7.462 -0.1110 -0.4674  0.4946
 1295TIP3    H125444   2.369   0.385   7.406 -0.5915  0.6704 -0.5999
 1295TIP3    H225445   2.330   0.463   7.529 -0.3812  2.1027 -1.4188
 1296TIP3   OH225446   0.421   6.887   0.643  0.6747 -0.5593 -0.3583
 1296TIP3    H125447   0.460   6.836   0.714  2.0796 -0.5932 -1.1101
 1296TIP3    H225448   0.381   6.962   0.687  0.0123 -1.4432  0.6049
 1297TIP3   OH225449   1.234   3.766   6.905 -0.6427  0.1012 -0.2842
 1297TIP3    H125450   1.206   3.677   6.927 -0.4125  0.2018  0.4527
 1297TIP3    H225451   1.321   3.755   6.867 -0.0617  0.1061  0.9959
 1298TIP3   OH225452   2.052   1.708   6.219 -0.2355  0.3261  0.5504
 1298TIP3    H125453   1.959   1.697   6.237 -0.5265  0.7260 -0.6424
 1298TIP3    H225454   2.076   1.790   6.262 -0.0085 -0.6301  2.3317
 1299TIP3   OH225455   3.081   0.287   5.517 -0.0251 -0.2342 -1.1446
 1299TIP3    H125456   3.149   0.247   5.571  0.1583 -1.1932 -2.0548
 1299TIP3    H225457   3.039   0.350   5.575  0.2053 -1.1827  0.1052
 1300TIP3   OH225458   5.692   1.786   6.564 -0.4665 -0.2272 -0.5021
 1300TIP3    H125459   5.749   1.827   6.498 -0.8686  0.7370 -0.2735
 1300TIP3    H225460   5.726   1.697   6.573  0.5479  0.0955 -0.9041
 1301TIP3   OH225461   6.222   2.813   7.201  0.0740 -0.4708  0.3379
 1301TIP3    H125462   6.267   2.896   7.216 -2.0024  1.1992 -1.7728
 1301TIP3    H225463   6.134   2.839   7.172 -0.8522 -3.4435  0.1656
 1302TIP3   OH225464   6.948   3.154   7.194  0.5914  0.1760 -0.2993
 1302TIP3    H125465   7.042   3.158   7.179  0.5455  1.7705 -0.3732
 1302TIP3    H225466   6.914   3.236   7.156 -0.2726  1.6964  3.2882
 1303TIP3   OH225467   5.339   2.219   8.011 -0.2614 -0.0416 -0.4140
 1303TIP3    H125468   5.301   2.205   8.098  3.0904 -0.3549  1.1486
 1303TIP3    H225469   5.293   2.296   7.977 -0.8393  0.8605  2.1818
 1304TIP3   OH225470   2.946   6.651   1.317 -0.2958 -0.1574  0.0675
 1304TIP3    H125471   2.913   6.675   1.404 -0.5067  0.5701 -0.2023
 1304TIP3    H225472   2.970   6.735   1.277  0.4117 -0.5470 -0.3324
 1305TIP3   OH225473   6.838   1.164   7.051  0.0283  0.0631 -0.3914
 1305TIP3    H125474   6.755   1.197   7.086  0.6611  2.3416 -0.8267
 1305TIP3    H225475   6.905   1.201   7.108  0.7900 -1.2273 -0.4172
 1306TIP3   OH225476   4.447   2.808   7.234 -0.1821 -0.2812 -0.2627
 1306TIP3    H125477   4.444   2.785   7.327  0.7560 -1.0330 -0.4043
 1306TIP3    H225478   4.363   2.779   7.199  0.0940 -1.5041  0.0280
 1307TIP3   OH225479   5.470   6.977   6.446 -0.4210  0.3025  0.5743
 1307TIP3    H125480   5.407   6.993   6.376  0.2124  0.3645  0.0118
 1307TIP3    H225481   5.533   7.049   6.439 -0.4635  0.4297  1.3438
 1308TIP3   OH225482   6.097   6.423   0.058  0.1653 -0.2204  0.1311
 1308TIP3    H125483   6.153   6.355   0.019 -0.2891 -0.5945  0.1243
 1308TIP3    H225484   6.154   6.466   0.122 -0.4023 -2.7459  2.5274
 1309TIP3   OH225485   5.686   0.083   0.764  0.2052  0.8114 -0.8337
 1309TIP3    H125486   5.604   0.035   0.754  0.8338 -0.2680 -1.0062
 1309TIP3    H225487   5.670   0.167   0.722 -0.5566  0.3002 -1.6029
 1310TIP3   OH225488   4.516   6.633   0.983  0.2849  0.2547  0.7957
 1310TIP3    H125489   4.513   6.676   0.897  2.0114 -1.0327  0.0294
 1310TIP3    H225490   4.593   6.670   1.026 -0.0462  0.2187  1.4332
 1311TIP3   OH225491   4.110   0.043   6.275  0.5574 -0.0799  0.7097
 1311TIP3    H125492   4.020   0.075   6.266  0.0779 -0.9970  1.9655
 1311TIP3    H225493   4.133   0.062   6.366  1.2616 -0.7841  0.6817
 1312TIP3   OH225494   5.698   5.981   7.858  0.5295 -0.8559  0.2103
 1312TIP3    H125495   5.763   6.052   7.854  0.1825 -0.5618 -0.4133
 1312TIP3    H225496   5.739   5.914   7.913  1.0423 -0.3518  0.4522
 1313TIP3   OH225497   0.440   5.448   7.424 -0.1154 -0.4154  0.0125
 1313TIP3    H125498   0.395   5.449   7.509 -0.2313  0.1883 -0.0489
 1313TIP3    H225499   0.412   5.366   7.383 -1.3362  0.0318 -0.1012
 1314TIP3   OH225500   2.693   4.297   5.864  0.0672 -0.0680 -0.0048
 1314TIP3    H125501   2.597   4.291   5.857 -0.1156  2.2733 -0.3088
 1314TIP3    H225502   2.714   4.382   5.828  2.3030 -0.5215  0.1124
 1315TIP3   OH225503   0.904   3.217   0.485 -0.0026 -0.2309 -0.2647
 1315TIP3    H125504   0.878   3.248   0.398  1.0431 -2.0118 -1.2645
 1315TIP3    H225505   0.999   3.228   0.486  0.0772 -0.9266  0.3537
 1316TIP3   OH225506   3.675   1.037   6.460 -1.3151  0.6796 -0.2379
 1316TIP3    H125507   3.661   1.119   6.507 -1.7601  0.5253 -0.0984
 1316TIP3    H225508   3.770   1.030   6.452 -1.2789  1.2759 -0.3735
 1317TIP3   OH225509   3.266   5.179   6.620  0.0541 -0.3941 -0.1477
 1317TIP3    H125510   3.327   5.169   6.694 -1.2228 -0.7614  0.8906
 1317TIP3    H225511   3.313   5.234   6.558  1.1697 -0.0739  0.9383
 1318TIP3   OH225512   4.121   3.934   6.332  0.2100 -0.0372  0.2172
 1318TIP3    H125513   4.170   3.852   6.321 -1.1293 -1.7969  4.8649
 1318TIP3    H225514   4.188   4.002   6.332  1.9751 -1.6891  0.8368
 1319TIP3   OH225515   5.255   4.972   6.704  0.4276  0.2785 -0.2084
 1319TIP3    H125516   5.294   5.021   6.632  1.7534 -1.7857 -0.9876
 1319TIP3    H225517   5.161   4.981   6.692  0.6394  0.7134 -1.6652
 1320TIP3   OH225518   2.862   2.123   6.720  0.3316  0.3853 -0.3464
 1320TIP3    H125519   2.906   2.157   6.642 -1.2869  0.6548 -1.1835
 1320TIP3    H225520   2.822   2.200   6.761  2.0242  0.4315  1.4073
 1321TIP3   OH225521   2.244   5.318   0.112  0.0021  0.0048 -0.2241
 1321TIP3    H125522   2.265   5.315   0.205  1.7035  1.3746 -0.5286
 1321TIP3    H225523   2.326   5.297   0.068 -1.0313 -1.8160 -1.4701
 1322TIP3   OH225524   2.793   3.854   1.419  0.3210 -1.1333 -0.4948
 1322TIP3    H125525   2.839   3.914   1.477  0.1544 -1.4541 -0.0236
 1322TIP3    H225526   2.862   3.802   1.377  0.4429 -0.8658 -0.6304
 1323TIP3   OH225527   1.270   2.334   6.746 -0.0838 -0.0327  0.1499
 1323TIP3    H125528   1.210   2.330   6.821  0.0396  1.2214  0.3364
 1323TIP3    H225529   1.351   2.368   6.782  0.0568  0.3425 -0.5090
 1324TIP3   OH225530   7.129   2.694   6.737  0.1377  0.1794  0.8100
 1324TIP3    H125531   7.185   2.637   6.684  0.1235  2.0580 -1.4300
 1324TIP3    H225532   7.059   2.637   6.768  2.3127 -1.8653  2.2954
 1325TIP3   OH225533   0.189   3.145   7.858 -0.3753 -0.0408  0.1539
 1325TIP3    H125534   0.139   3.148   7.940 -1.6734 -0.8877 -0.5685
 1325TIP3    H225535   0.264   3.090   7.879 -0.7331 -0.3149  0.7701
 1326TIP3   OH225536   5.447   7.053   6.180 -0.0570  0.1766  0.5230
 1326TIP3    H125537   5.534   7.068   6.144 -0.0597 -1.2699 -0.1277
 1326TIP3    H225538   5.402   6.999   6.114 -0.9368 -0.3470  1.5182
 1327TIP3   OH225539   1.748   3.657   7.511  0.9908 -0.4104  0.1259
 1327TIP3    H125540   1.725   3.718   7.581  0.9853 -2.6804  2.2897
 1327TIP3    H225541   1.667   3.644   7.462  1.2521  2.0273 -1.0830
 1328TIP3   OH225542   4.548   4.517   0.170 -0.4026 -0.5096 -0.2149
 1328TIP3    H125543   4.638   4.507   0.201  0.1963  0.0127 -1.7150
 1328TIP3    H225544   4.516   4.595   0.216 -1.1470 -2.2959  2.5578
 1329TIP3   OH225545   5.074   5.443   7.627 -0.1350 -0.0322 -0.2970
 1329TIP3    H125546   5.135   5.417   7.697  1.0443 -1.4990 -1.7768
 1329TIP3    H225547   5.016   5.506   7.668 -0.6654 -2.1537  2.5601
 1330TIP3   OH225548   3.093   3.485   1.166  0.4608 -0.0413 -0.2197
 1330TIP3    H125549   3.070   3.426   1.238 -0.3074 -0.8074 -1.0645
 1330TIP3    H225550   3.015   3.486   1.110  1.3790 -0.2340 -1.5537
 1331TIP3   OH225551   3.298   6.353   7.178  0.0813 -0.2029 -0.7894
 1331TIP3    H125552   3.283   6.318   7.090 -2.2665 -1.5859  0.0777
 1331TIP3    H225553   3.360   6.292   7.218  1.6722  0.7885 -1.6256
 1332TIP3   OH225554   4.139   0.110   6.556 -0.5761  0.7492  0.3329
 1332TIP3    H125555   4.189   0.099   6.637  1.4059  1.2154 -0.7774
 1332TIP3    H225556   4.188   0.175   6.506 -2.1090  0.9339 -0.9923
 1333TIP3   OH225557   4.720   5.761   7.489  0.2553  0.2519  0.1192
 1333TIP3    H125558   4.664   5.722   7.423  0.7906 -1.1022  0.4295
 1333TIP3    H225559   4.805   5.717   7.478  0.8779  1.3103  0.5113
 1334TIP3   OH225560   5.802   1.525   6.658  0.6424  0.5127  0.3420
 1334TIP3    H125561   5.779   1.467   6.585  0.1460  0.3038  0.6590
 1334TIP3    H225562   5.883   1.568   6.630 -0.7253  2.1392 -1.3149
 1335TIP3   OH225563   4.754   6.631   0.263  0.1374  0.2231 -0.4029
 1335TIP3    H125564   4.753   6.707   0.204 -0.2736  1.6101  1.3028
 1335TIP3    H225565   4.661   6.609   0.274  0.2695 -3.1520 -3.9423
 1336TIP3   OH225566   2.279   0.380   1.403  0.4317 -0.0171 -0.0364
 1336TIP3    H125567   2.195   0.344   1.433  0.2588 -0.9407 -1.5482
 1336TIP3    H225568   2.264   0.474   1.399 -0.5007 -0.1564 -0.1672
 1337TIP3   OH225569   0.220   2.628   1.496 -0.0092  0.8102  0.3247
 1337TIP3    H125570   0.174   2.590   1.421 -0.3715 -0.0154  0.9544
 1337TIP3    H225571   0.211   2.563   1.566  0.7357  1.3542  0.9449
 1338TIP3   OH225572   1.931   1.920   1.891 -0.2024  0.6146  0.2220
 1338TIP3    H125573   2.020   1.936   1.861  0.0525 -0.0809  0.6027
 1338TIP3    H225574   1.929   1.828   1.915 -1.1152  0.5501 -0.0767
 1339TIP3   OH225575   6.670   6.268   7.190  0.2130  0.1626 -0.4874
 1339TIP3    H125576   6.637   6.280   7.101  2.4591 -0.6039 -1.4826
 1339TIP3    H225577   6.740   6.203   7.182  0.4058 -0.0124  1.8614
 1340TIP3   OH225578   4.175   6.822   6.933 -0.2304  0.4426 -0.1893
 1340TIP3    H125579   4.185   6.916   6.948  2.6929 -0.0834  1.9711
 1340TIP3    H225580   4.265   6.787   6.935 -1.2427 -2.4898 -0.3989
 1341TIP3   OH225581   2.844   5.999   6.018 -0.0009  0.2044 -0.3158
 1341TIP3    H125582   2.754   6.009   5.990  0.8963  2.0482 -2.9131
 1341TIP3    H225583   2.893   5.982   5.937  1.8812 -1.9776  1.1328
 1342TIP3   OH225584   6.224   6.617   7.946  0.1780 -0.2503 -0.2018
 1342TIP3    H125585   6.165   6.545   7.924  0.1921 -0.1991 -0.4096
 1342TIP3    H225586   6.275   6.585   8.021  0.2333 -0.4827 -0.3384
 1343TIP3   OH225587   5.992   1.820   2.133 -0.0601 -0.8694 -0.0363
 1343TIP3    H125588   6.013   1.727   2.127  1.0217 -0.6060 -0.5337
 1343TIP3    H225589   5.921   1.833   2.069 -0.7383 -1.4796  0.5694
 1344TIP3   OH225590   6.155   3.222   0.414 -0.0494 -0.1991  0.0374
 1344TIP3    H125591   6.228   3.189   0.361 -0.5029  0.0631 -0.7543
 1344TIP3    H225592   6.188   3.218   0.504  0.9232 -0.1356 -0.3046
 1345TIP3   OH225593   1.308   3.847   1.431 -0.6733 -0.1959  0.0106
 1345TIP3    H125594   1.372   3.780   1.457  0.3809  0.7031 -0.1864
 1345TIP3    H225595   1.358   3.928   1.431 -1.8009  0.5119 -0.3035
 1346TIP3   OH225596   0.281   1.729   6.104  0.2650  0.0577  0.0513
 1346TIP3    H125597   0.231   1.672   6.046 -0.1990 -1.9548  2.2626
 1346TIP3    H225598   0.252   1.705   6.192  1.3290  2.5610  1.1819
 1347TIP3   OH225599   3.400   4.129   6.602 -0.3131  0.2574  1.1659
 1347TIP3    H125600   3.443   4.208   6.569 -2.1957  0.9859  0.2615
 1347TIP3    H225601   3.319   4.161   6.641 -1.0155 -1.2057  0.9689
 1348TIP3   OH225602   0.467   3.263   1.051 -0.4161  0.2171 -0.3455
 1348TIP3    H125603   0.408   3.204   1.097 -0.4303  0.0376 -0.5943
 1348TIP3    H225604   0.448   3.249   0.959  0.1893 -0.0231 -0.4374
 1349TIP3   OH225605   2.287   7.042   0.942  0.1357  0.5746  0.3698
 1349TIP3    H125606   2.267   7.002   0.857  2.4999 -0.6605  0.3103
 1349TIP3    H225607   2.214   7.015   0.999  0.0254 -1.1181 -0.5167
 1350TIP3   OH225608   2.850   6.694   1.574 -0.2026  0.2832  0.1026
 1350TIP3    H125609   2.929   6.744   1.596  0.0405 -0.0203 -0.0790
 1350TIP3    H225610   2.856   6.616   1.629 -1.5024  1.2927  1.7647
 1351TIP3   OH225611   5.124   0.130   1.480  0.0597  0.1155 -0.3642
 1351TIP3    H125612   5.133   0.119   1.386  1.6910  2.3427 -0.5286
 1351TIP3    H225613   5.193   0.074   1.517  1.9575  2.0749 -0.7393
 1352TIP3   OH225614   2.844   1.576   6.443  0.1661 -0.0715 -0.6087
 1352TIP3    H125615   2.893   1.657   6.451 -1.4199  0.9179 -0.5830
 1352TIP3    H225616   2.823   1.569   6.350 -1.4767  0.6636 -0.3253
 1353TIP3   OH225617   5.330   3.438   7.865 -0.1117 -0.4285  0.0517
 1353TIP3    H125618   5.348   3.441   7.771  1.0218 -0.8741  0.2451
 1353TIP3    H225619   5.246   3.484   7.874  2.0331  4.0942 -0.5591
 1354TIP3   OH225620   3.237   6.883   7.606  0.0417  0.3780 -0.0802
 1354TIP3    H125621   3.280   6.955   7.652  0.5010  0.9659 -1.3647
 1354TIP3    H225622   3.294   6.808   7.620  0.2035  0.5597  0.2532
 1355TIP3   OH225623   4.076   2.537   7.674 -0.6240 -0.6392  0.1337
 1355TIP3    H125624   4.008   2.477   7.643 -1.7267  1.8671 -2.7349
 1355TIP3    H225625   4.140   2.540   7.603  1.2485 -1.0107  1.7273
 1356TIP3   OH225626   0.886   5.580   6.342  0.0807 -0.6348 -0.7408
 1356TIP3    H125627   0.810   5.538   6.303 -0.5733 -0.8380  0.6884
 1356TIP3    H225628   0.927   5.513   6.397  1.7201 -0.7368 -2.0186
 1357TIP3   OH225629   5.952   0.521   6.995  0.5562  0.1225  0.0301
 1357TIP3    H125630   5.864   0.544   6.966  0.8830  1.2240 -0.1336
 1357TIP3    H225631   5.938   0.456   7.065 -0.3831  0.3672  0.0813
 1358TIP3   OH225632   4.543   2.554   1.133  0.1701  0.1830  0.0517
 1358TIP3    H125633   4.592   2.605   1.197  0.7062 -0.6358  0.3023
 1358TIP3    H225634   4.535   2.612   1.057  0.1881  0.8795  0.5784
 1359TIP3   OH225635   4.199   2.090   6.964  0.3447 -0.2987  0.4333
 1359TIP3    H125636   4.243   2.027   6.907 -1.8023  1.5916 -3.7453
 1359TIP3    H225637   4.123   2.043   6.997 -0.0894 -0.5509 -0.8860
 1360TIP3   OH225638   1.028   6.854   0.772 -0.1264  0.3000 -0.0184
 1360TIP3    H125639   1.055   6.788   0.708  1.0105  1.4878 -0.8151
 1360TIP3    H225640   0.933   6.861   0.760 -0.0212  0.0359 -1.1308
 1361TIP3   OH225641   0.289   4.145   0.641  0.2867  0.2768 -0.6801
 1361TIP3    H125642   0.237   4.208   0.690 -0.2776  0.8497 -1.9944
 1361TIP3    H225643   0.324   4.086   0.709  0.0950  1.4357  0.4760
 1362TIP3   OH225644   6.139   5.205   6.523  0.0567 -0.3660  0.4838
 1362TIP3    H125645   6.210   5.141   6.512 -0.5192 -0.9332  0.0009
 1362TIP3    H225646   6.059   5.153   6.521 -0.4324  0.3777 -0.0330
 1363TIP3   OH225647   4.904   3.884   5.711 -0.0338  0.8169  0.3952
 1363TIP3    H125648   4.915   3.977   5.731 -2.2421  0.9393  1.3016
 1363TIP3    H225649   4.870   3.846   5.792  2.2608 -1.1338  0.5488
 1364TIP3   OH225650   0.813   1.905   6.906 -0.4652  0.0651 -0.3179
 1364TIP3    H125651   0.831   1.881   6.815  3.1034 -0.0393  0.2698
 1364TIP3    H225652   0.811   2.001   6.906  0.4074  0.0897 -0.3965
 1365TIP3   OH225653   1.178   1.678   7.975  0.4080  0.7056  0.2279
 1365TIP3    H125654   1.212   1.670   7.886 -0.5434  0.2537 -0.1112
 1365TIP3    H225655   1.134   1.763   7.976 -0.6555  0.1765 -0.1286
 1366TIP3   OH225656   1.752   6.154   7.439 -0.1260  0.1180 -0.3230
 1366TIP3    H125657   1.661   6.126   7.428  0.1767 -0.9606 -0.2145
 1366TIP3    H225658   1.796   6.077   7.476  0.9961  0.3643 -1.0964
 1367TIP3   OH225659   1.542   4.910   7.613 -0.0554 -0.2613 -0.4468
 1367TIP3    H125660   1.512   4.988   7.566 -1.0481 -1.0566 -1.1640
 1367TIP3    H225661   1.614   4.876   7.560 -2.0011 -1.8911 -2.1854
 1368TIP3   OH225662   6.408   2.837   7.656  0.6575 -0.1248 -0.0026
 1368TIP3    H125663   6.331   2.782   7.641  1.3126 -1.0152 -0.1434
 1368TIP3    H225664   6.374   2.927   7.656 -0.0942 -0.3652 -2.0577
 1369TIP3   OH225665   6.991   1.486   6.148 -0.0508  0.0888 -0.5456
 1369TIP3    H125666   7.072   1.448   6.180  0.5137  0.0890 -1.8988
 1369TIP3    H225667   6.959   1.540   6.220 -0.7277 -2.6319  1.3542
 1370TIP3   OH225668   7.032   2.968   0.847 -0.6089  0.3450 -0.7028
 1370TIP3    H125669   7.010   3.044   0.901 -2.9000 -0.8292  0.1289
 1370TIP3    H225670   7.029   3.000   0.757 -0.2771  1.5072 -0.3205
 1371TIP3   OH225671   7.076   4.698   1.391  0.2096  0.6493 -0.3569
 1371TIP3    H125672   7.097   4.773   1.335  0.0513  0.9845  0.0295
 1371TIP3    H225673   7.000   4.726   1.442  2.2408  1.6360  2.4198
 1372TIP3   OH225674   6.425   0.681   1.711  0.6251  0.5717 -0.7583
 1372TIP3    H125675   6.387   0.765   1.734 -2.0255 -0.8705  0.5289
 1372TIP3    H225676   6.492   0.665   1.778  0.4246  1.1976 -0.4084
 1373TIP3   OH225677   2.988   0.979   0.406 -0.1000 -0.0725 -0.3337
 1373TIP3    H125678   3.028   0.965   0.492 -0.1488  2.3735  0.1531
 1373TIP3    H225679   3.036   0.920   0.348  1.0063 -0.6392  1.0839
 1374TIP3   OH225680   3.023   5.202   7.905 -0.4661 -0.4487  0.2125
 1374TIP3    H125681   3.000   5.119   7.948  0.0383 -1.0084 -0.5731
 1374TIP3    H225682   2.978   5.198   7.820 -2.4926  1.2042  1.1296
 1375TIP3   OH225683   6.455   6.037   1.200  0.4533 -0.0401 -0.0289
 1375TIP3    H125684   6.498   5.991   1.273  2.3847  2.7390  0.7443
 1375TIP3    H225685   6.394   6.097   1.242 -0.2085 -0.0861 -0.8895
 1376TIP3   OH225686   1.756   4.244   1.079 -0.2801 -0.0383 -0.4400
 1376TIP3    H125687   1.697   4.277   1.011 -1.5363  1.8467  1.4218
 1376TIP3    H225688   1.790   4.323   1.121  0.8891 -1.1361  0.7750
 1377TIP3   OH225689   1.001   6.292   7.592  0.1214  0.3382 -0.7764
 1377TIP3    H125690   0.970   6.219   7.645  0.8082  0.3696 -0.3179
 1377TIP3    H225691   0.938   6.297   7.520 -0.1177 -0.4961 -0.6419
 1378TIP3   OH225692   5.044   6.511   0.233 -0.1878  0.7525 -0.5582
 1378TIP3    H125693   4.991   6.586   0.205 -0.0949  0.4176 -1.6564
 1378TIP3    H225694   5.010   6.437   0.182  0.5609  0.2922 -0.4015
 1379TIP3   OH225695   0.451   0.170   6.215  0.4633  0.1719 -0.2870
 1379TIP3    H125696   0.512   0.170   6.289  2.0731  0.5491 -1.5391
 1379TIP3    H225697   0.415   0.259   6.214 -0.0111 -0.0025  0.3584
 1380TIP3   OH225698   2.496   4.396   6.748 -0.2233 -0.5413 -0.2997
 1380TIP3    H125699   2.443   4.422   6.673  0.7557  3.0744  0.0288
 1380TIP3    H225700   2.580   4.369   6.711 -0.5590 -1.1763 -0.5980
 1381TIP3   OH225701   1.999   2.086   0.827 -0.0613 -0.5266 -0.4206
 1381TIP3    H125702   2.065   2.018   0.843  0.4759 -0.0675 -0.6726
 1381TIP3    H225703   2.005   2.104   0.734 -0.1924 -0.1231 -0.3515
 1382TIP3   OH225704   0.780   4.841   0.164  0.4752  0.7508 -0.3837
 1382TIP3    H125705   0.792   4.895   0.242  4.2628  0.5442 -0.6366
 1382TIP3    H225706   0.788   4.903   0.091  2.3355  0.3104 -0.6156
 1383TIP3   OH225707   0.605   6.793   6.309 -0.1998 -0.2968 -0.0902
 1383TIP3    H125708   0.541   6.723   6.323  0.3884 -1.0317 -0.9436
 1383TIP3    H225709   0.571   6.842   6.235 -0.0450 -0.3773 -0.2168
 1384TIP3   OH225710   0.595   2.108   7.452 -0.0645  0.3416 -0.1745
 1384TIP3    H125711   0.528   2.040   7.444  0.6442 -0.4725  0.5309
 1384TIP3    H225712   0.676   2.060   7.467  0.1809  1.3428  2.2748
 1385TIP3   OH225713   2.739   5.634   0.523 -0.6641 -0.3606  0.2955
 1385TIP3    H125714   2.778   5.697   0.462  1.0898 -0.6698  1.0226
 1385TIP3    H225715   2.715   5.685   0.600  0.3707 -0.4853  0.7174
 1386TIP3   OH225716   4.124   1.649   1.836 -0.1692  0.5119  0.1062
 1386TIP3    H125717   4.163   1.564   1.854 -1.1639 -0.3846 -1.7330
 1386TIP3    H225718   4.163   1.676   1.753 -2.5281  0.0834 -1.2399
 1387TIP3   OH225719   5.028   5.632   6.822 -0.1021  0.6631  0.7006
 1387TIP3    H125720   5.094   5.692   6.857 -1.7674  2.2425  1.3257
 1387TIP3    H225721   4.980   5.684   6.758 -0.6837 -0.4729  0.1953
 1388TIP3   OH225722   0.786   2.513   6.342  0.3216 -0.0007 -0.0310
 1388TIP3    H125723   0.782   2.609   6.339 -0.6764  0.0618  2.0572
 1388TIP3    H225724   0.809   2.493   6.432 -1.3126 -1.7649  0.0422
 1389TIP3   OH225725   0.010   6.858   0.077  0.0785  0.6070 -0.0644
 1389TIP3    H125726   0.007   6.774   0.122 -2.5670  0.4712 -0.3032
 1389TIP3    H225727   0.092   6.857   0.029 -0.1184 -2.0783 -0.5016
 1390TIP3   OH225728   3.122   1.289   0.887 -0.5721 -0.1338  0.9573
 1390TIP3    H125729   3.183   1.273   0.814 -1.1786  1.7169 -0.0081
 1390TIP3    H225730   3.109   1.383   0.888 -2.7166 -0.3795  1.7301
 1391TIP3   OH225731   0.557   6.886   6.040  0.3654 -0.9662 -0.3570
 1391TIP3    H125732   0.468   6.912   6.019  1.4442  2.3852 -1.3708
 1391TIP3    H225733   0.601   6.876   5.956  1.0216 -2.4522  0.1226
 1392TIP3   OH225734   2.039   6.211   7.412 -0.4493  0.0581  0.1866
 1392TIP3    H125735   2.092   6.194   7.490 -1.0319  1.4960  0.9323
 1392TIP3    H225736   1.950   6.191   7.439 -0.4820 -0.9277 -0.6083
 1393TIP3   OH225737   5.300   0.014   1.025  0.1130 -0.1345 -0.4584
 1393TIP3    H125738   5.324   0.045   0.938 -1.3307  0.1970 -0.7747
 1393TIP3    H225739   5.299  -0.081   1.018 -1.7886 -0.1012 -1.3817
 1394TIP3   OH225740   1.321   6.217   1.709 -0.0205  0.1377  0.1996
 1394TIP3    H125741   1.331   6.259   1.794 -3.9093 -0.3815  1.1340
 1394TIP3    H225742   1.256   6.270   1.663 -1.1095 -1.8347 -0.7045
 1395TIP3   OH225743   2.695   2.494   6.235  0.6386  0.0372 -0.5593
 1395TIP3    H125744   2.748   2.557   6.186  1.1688 -0.0200 -0.0578
 1395TIP3    H225745   2.744   2.412   6.231  1.2383  0.2912  0.9896
 1396TIP3   OH225746   2.682   5.348   7.000  0.1694 -0.2795  0.6761
 1396TIP3    H125747   2.684   5.273   6.941 -0.1757  1.4015 -1.5748
 1396TIP3    H225748   2.602   5.395   6.978  1.4408  1.9181  0.4901
 1397TIP3   OH225749   5.378   7.092   1.333  0.7442  0.2532  0.1533
 1397TIP3    H125750   5.465   7.057   1.316  0.6633 -0.5765  1.3320
 1397TIP3    H225751   5.377   7.177   1.289  1.4233 -0.6035 -1.6145
 1398TIP3   OH225752   5.105   3.696   7.003  0.2145  0.1953  0.9477
 1398TIP3    H125753   5.061   3.754   7.066 -0.4908  0.9372 -0.1888
 1398TIP3    H225754   5.040   3.682   6.934  1.7085  1.2752 -0.7656
 1399TIP3   OH225755   0.595   5.585   7.229  0.7502 -0.2653 -0.5359
 1399TIP3    H125756   0.542   5.529   7.172  1.4727 -2.4271  0.8110
 1399TIP3    H225757   0.555   5.576   7.316  1.5835  0.4181 -0.0560
 1400TIP3   OH225758   5.127   1.358   6.702 -0.5600 -0.1825 -0.2596
 1400TIP3    H125759   5.208   1.317   6.674 -0.5866 -0.9342  0.7119
 1400TIP3    H225760   5.148   1.398   6.787 -0.8676  0.7478 -0.6071
 1401TIP3   OH225761   3.350   0.562   6.513  1.0091 -0.2886  0.2601
 1401TIP3    H125762   3.405   0.638   6.534  1.0115 -0.6592  1.6532
 1401TIP3    H225763   3.304   0.588   6.433  0.4923  1.4737  1.0781
 1402TIP3   OH225764   4.577   4.476   1.380  0.0598 -0.4682  0.3582
 1402TIP3    H125765   4.527   4.525   1.445 -1.0912 -2.3988  1.0171
 1402TIP3    H225766   4.653   4.442   1.429  0.4804  0.0564  0.0795
 1403TIP3   OH225767   4.708   0.938   7.295  0.0141 -0.5246 -0.1865
 1403TIP3    H125768   4.755   0.993   7.358  0.5302 -0.5118 -0.5727
 1403TIP3    H225769   4.615   0.952   7.314  0.1535  0.0864  0.0536
 1404TIP3   OH225770   6.600   0.013   1.399 -0.5683  0.0483  0.0018
 1404TIP3    H125771   6.656   0.089   1.389 -0.2379  0.0421  1.5105
 1404TIP3    H225772   6.614  -0.038   1.320  0.1082  0.9737 -0.4961
 1405TIP3   OH225773   0.655   0.799   1.173  0.1626  0.1482  0.4982
 1405TIP3    H125774   0.667   0.885   1.133  0.9265 -1.0193 -2.0232
 1405TIP3    H225775   0.734   0.751   1.149 -0.6977 -1.5747  0.9678
 1406TIP3   OH225776   0.465   2.844   6.538 -0.4617 -0.0380 -0.2774
 1406TIP3    H125777   0.536   2.900   6.568 -0.7938 -0.5548  1.5524
 1406TIP3    H225778   0.497   2.755   6.551 -1.8697 -0.2987  1.7668
 1407TIP3   OH225779   0.412   3.604   1.295  0.1538 -0.4457 -0.3363
 1407TIP3    H125780   0.456   3.686   1.316 -0.3881  0.0186 -0.9805
 1407TIP3    H225781   0.444   3.581   1.207 -0.3190 -0.4886 -0.5025
 1408TIP3   OH225782   2.024   1.300   7.125 -0.3428 -0.0779 -0.0190
 1408TIP3    H125783   1.941   1.256   7.107 -0.6267 -1.4399  3.7030
 1408TIP3    H225784   2.074   1.236   7.175  0.8886  2.4324  2.1902
 1409TIP3   OH225785   4.886   3.363   6.722  0.0015  0.2877  0.2749
 1409TIP3    H125786   4.925   3.325   6.800  0.8738  1.0373  0.2120
 1409TIP3    H225787   4.815   3.418   6.755 -0.4945 -0.4232  0.4369
 1410TIP3   OH225788   1.911   0.809   0.403 -0.0834  0.6205  0.1110
 1410TIP3    H125789   1.907   0.831   0.496  0.1727  1.0214  0.0270
 1410TIP3    H225790   1.969   0.732   0.400  0.1240  0.7703  0.2528
 1411TIP3   OH225791   5.233   2.859   0.961 -0.3372  0.3583 -0.5236
 1411TIP3    H125792   5.233   2.796   0.889 -0.8647 -0.1684 -0.0639
 1411TIP3    H225793   5.301   2.828   1.021 -0.2278  0.5310 -0.5557
 1412TIP3   OH225794   4.936   2.865   7.636 -0.3413  0.1095  0.0286
 1412TIP3    H125795   4.897   2.946   7.671 -0.3753  0.3018 -0.4419
 1412TIP3    H225796   5.022   2.860   7.677 -0.1126  0.6877 -0.3657
 1413TIP3   OH225797   5.614   2.028   1.840  0.3831  0.2327  0.0821
 1413TIP3    H125798   5.556   1.952   1.846  1.1099 -0.1928  2.5255
 1413TIP3    H225799   5.599   2.076   1.921  0.1889  2.5749 -1.2523
 1414TIP3   OH225800   1.361   2.531   1.070 -0.8455 -0.4288 -0.5723
 1414TIP3    H125801   1.355   2.439   1.096 -2.0046 -0.3926 -0.6551
 1414TIP3    H225802   1.314   2.536   0.987  1.5637 -0.2540 -2.0304
 1415TIP3   OH225803   5.637   5.087   6.994 -0.0456 -0.4257 -0.3206
 1415TIP3    H125804   5.638   4.991   6.990 -0.4464 -0.4074 -1.3664
 1415TIP3    H225805   5.660   5.114   6.905  0.6006  0.4609  0.1009
 1416TIP3   OH225806   6.462   0.108   1.677 -0.4142  0.4760  0.1601
 1416TIP3    H125807   6.502   0.194   1.663 -1.1377  0.7052 -0.4988
 1416TIP3    H225808   6.390   0.125   1.737 -1.5105  0.5938 -1.1513
 1417TIP3   OH225809   4.096   2.813   7.760  0.0398 -0.5933 -0.4352
 1417TIP3    H125810   4.081   2.736   7.705  0.2230 -0.2315 -0.9996
 1417TIP3    H225811   4.055   2.791   7.843  0.5001 -1.4960 -0.4267
 1418TIP3   OH225812   0.804   5.731   1.479 -0.5224  0.3977 -0.2853
 1418TIP3    H125813   0.733   5.722   1.416 -1.2881 -0.5360  0.6876
 1418TIP3    H225814   0.761   5.731   1.564  0.7320 -2.3244  0.4584
 1419TIP3   OH225815   2.342   6.333   1.055 -0.2215 -0.1066  0.5812
 1419TIP3    H125816   2.304   6.372   1.134 -1.3500 -0.1660  0.0823
 1419TIP3    H225817   2.426   6.297   1.084 -0.8395 -0.5676  1.8681
 1420TIP3   OH225818   2.075   0.888   7.903  0.4481  0.1168 -0.4768
 1420TIP3    H125819   2.048   0.967   7.856  0.7039 -0.1347 -1.0438
 1420TIP3    H225820   1.993   0.848   7.932  0.2808  0.1095 -0.9641
 1421TIP3   OH225821   0.361   0.682   6.829 -0.1302  0.3925  0.2795
 1421TIP3    H125822   0.336   0.710   6.917  1.6502 -1.3782  1.4311
 1421TIP3    H225823   0.279   0.680   6.780 -1.2562  0.8399  2.0686
 1422TIP3   OH225824   2.076   2.331   5.809 -0.0324  0.4586  0.2241
 1422TIP3    H125825   2.056   2.416   5.849 -0.8496  0.4206 -0.0837
 1422TIP3    H225826   2.117   2.353   5.726 -5.1533  0.8044 -2.5947
 1423TIP3   OH225827   0.883   4.172   6.053  0.3222 -0.0446  0.2027
 1423TIP3    H125828   0.826   4.200   6.124 -0.0059 -0.4624  0.1081
 1423TIP3    H225829   0.967   4.214   6.072  0.0927  0.2636  0.5509
 1424TIP3   OH225830   0.240   1.293   6.575 -0.2388  0.2601  0.3351
 1424TIP3    H125831   0.228   1.264   6.665  2.2911  0.1909  0.7266
 1424TIP3    H225832   0.317   1.350   6.578 -0.5770  0.9058 -1.6645
 1425TIP3   OH225833   5.256   2.694   7.348  0.1144 -0.4400  0.5402
 1425TIP3    H125834   5.219   2.704   7.260  1.8751 -0.8528 -0.3003
 1425TIP3    H225835   5.183   2.664   7.402 -0.8479 -0.8341 -0.9225
 1426TIP3   OH225836   0.242   4.537   7.551 -0.2945 -0.3207 -0.0086
 1426TIP3    H125837   0.320   4.559   7.602 -0.0661 -0.0604 -0.4696
 1426TIP3    H225838   0.274   4.528   7.461 -0.5171 -1.7357  0.0310
 1427TIP3   OH225839   5.716   1.610   1.128  0.1959  0.7818  0.7949
 1427TIP3    H125840   5.647   1.659   1.083  0.8325  0.4421 -0.5761
 1427TIP3    H225841   5.676   1.586   1.212 -1.1029  1.2028  0.3288
 1428TIP3   OH225842   0.295   0.978   1.511 -0.4408 -0.5039 -0.5102
 1428TIP3    H125843   0.377   0.962   1.464 -0.7988  0.7137 -1.6067
 1428TIP3    H225844   0.246   0.896   1.503  0.8773 -1.4532  0.6663
 1429TIP3   OH225845   0.962   3.051   7.745 -0.2151 -0.7830  0.6066
 1429TIP3    H125846   0.994   2.968   7.782  0.1778 -0.2944  1.3868
 1429TIP3    H225847   1.002   3.056   7.659  0.3214 -1.0772  0.8335
 1430TIP3   OH225848   0.078   4.272   0.855  0.5720  0.5696  0.5738
 1430TIP3    H125849   0.008   4.333   0.876 -1.2963 -1.7052  1.4169
 1430TIP3    H225850   0.107   4.238   0.939 -0.7095 -1.9939  0.0905
 1431TIP3   OH225851   2.320   5.270   1.116  0.8431  0.1910 -0.0034
 1431TIP3    H125852   2.275   5.276   1.031 -0.2089  1.0985  0.6017
 1431TIP3    H225853   2.251   5.285   1.181  1.8306  0.5654  0.9852
 1432TIP3   OH225854   3.833   4.075   2.047 -0.0656 -0.3881 -0.2978
 1432TIP3    H125855   3.874   4.070   2.134  2.0332  1.7195 -1.0452
 1432TIP3    H225856   3.881   4.010   1.995 -0.5489 -0.8556 -0.1625
 1433TIP3   OH225857   6.332   0.994   7.414 -0.3300  0.0977 -0.6825
 1433TIP3    H125858   6.328   0.915   7.468  0.6519  0.3538 -0.2335
 1433TIP3    H225859   6.413   0.985   7.364 -0.7451  0.3246 -1.4133
 1434TIP3   OH225860   4.051   3.252   6.119  0.3846  0.4509 -0.2490
 1434TIP3    H125861   4.040   3.255   6.024  0.7276 -1.0980 -0.3590
 1434TIP3    H225862   4.143   3.230   6.133 -0.1761 -1.7152  0.3606
 1435TIP3   OH225863   0.556   3.367   7.577  0.4819  0.4919 -0.8880
 1435TIP3    H125864   0.487   3.424   7.543  0.3470  1.6073  1.0999
 1435TIP3    H225865   0.516   3.319   7.649  1.3540 -0.0330 -0.7283
 1436TIP3   OH225866   0.377   5.041   5.809  0.1204  0.6521 -0.2546
 1436TIP3    H125867   0.301   5.087   5.774  0.3952  2.1897  1.0404
 1436TIP3    H225868   0.448   5.106   5.807  0.8042 -0.0372  0.6100
 1437TIP3   OH225869   1.578   1.330   1.446  0.3070 -0.6576  0.6105
 1437TIP3    H125870   1.614   1.329   1.535 -0.4880 -1.1793  0.9382
 1437TIP3    H225871   1.598   1.243   1.411  1.1824 -0.2395  0.0284
 1438TIP3   OH225872   1.463   0.677   0.028 -0.1625 -0.2582  0.0196
 1438TIP3    H125873   1.370   0.662   0.046 -0.3107 -2.7806 -2.0988
 1438TIP3    H225874   1.464   0.732  -0.050  0.0118 -1.4190 -0.8352
 1439TIP3   OH225875   3.294   3.806   1.555  0.0676  0.3733  0.2628
 1439TIP3    H125876   3.297   3.879   1.494 -1.9617  1.4415  1.3345
 1439TIP3    H225877   3.238   3.741   1.512  1.7670 -0.5451 -0.6339
 1440TIP3   OH225878   0.379   1.750   0.406 -0.0741  0.3436  0.0636
 1440TIP3    H125879   0.427   1.667   0.413  0.7133  0.6402 -1.3764
 1440TIP3    H225880   0.369   1.779   0.496 -0.7745 -1.5327  0.6454
 1441TIP3   OH225881   6.702   5.923   6.674 -0.3373  0.1281 -0.3355
 1441TIP3    H125882   6.791   5.912   6.640 -0.2342 -2.4489  0.6020
 1441TIP3    H225883   6.651   5.948   6.598  1.3175  2.8706 -0.6923
 1442TIP3   OH225884   1.620   6.925   8.028  0.2091  0.6627 -0.0752
 1442TIP3    H125885   1.581   6.839   8.018  0.0126  0.6643  0.6231
 1442TIP3    H225886   1.556   6.985   7.990 -0.1004  0.5906  0.3309
 1443TIP3   OH225887   0.402   5.441   5.770 -0.0532  0.3162 -0.1309
 1443TIP3    H125888   0.335   5.418   5.706  0.5328  2.5772 -1.6563
 1443TIP3    H225889   0.472   5.377   5.755 -1.3892 -1.4250  0.7896
 1444TIP3   OH225890   2.472   6.311   7.043 -0.4168 -0.2052 -0.3043
 1444TIP3    H125891   2.546   6.304   7.103  0.0074 -0.2748 -0.8251
 1444TIP3    H225892   2.436   6.223   7.038 -0.1608 -0.2978 -0.5165
 1445TIP3   OH225893   6.766   0.758   2.112 -0.1015 -0.0867  0.3025
 1445TIP3    H125894   6.785   0.680   2.164  1.2896  0.4720  0.6792
 1445TIP3    H225895   6.849   0.804   2.107 -1.0837  1.8913  0.9281
 1446TIP3   OH225896   3.665   4.241   1.460 -0.2771  0.0468 -0.1679
 1446TIP3    H125897   3.743   4.206   1.418  1.0702  1.7058  0.8150
 1446TIP3    H225898   3.662   4.197   1.545 -1.6426 -1.5352 -0.9756
 1447TIP3   OH225899   2.975   0.155   0.989 -0.0526  0.1384  0.1768
 1447TIP3    H125900   2.972   0.242   1.028 -0.2487  0.2136 -0.0016
 1447TIP3    H225901   3.021   0.167   0.906  0.8865 -0.1300  0.6504
 1448TIP3   OH225902   2.047   3.303   0.454 -0.1224  0.1321  0.0534
 1448TIP3    H125903   2.042   3.396   0.433  1.1805  0.0366 -0.8233
 1448TIP3    H225904   2.083   3.300   0.542  0.6507  0.4674 -0.2379
 1449TIP3   OH225905   6.738   3.972   7.126  0.3451 -0.3124 -0.1462
 1449TIP3    H125906   6.740   3.960   7.031  0.7812  0.4752 -0.2460
 1449TIP3    H225907   6.823   3.943   7.157  1.0050  1.3607 -0.2666
 1450TIP3   OH225908   5.990   3.132   0.911  0.4057 -0.5624  0.0679
 1450TIP3    H125909   6.051   3.108   0.980  0.2911 -0.8196  0.0824
 1450TIP3    H225910   5.968   3.223   0.928 -1.1171 -1.1706  1.4977
 1451TIP3   OH225911   2.772   3.087   7.948  0.3258 -0.2184  0.2965
 1451TIP3    H125912   2.726   3.003   7.956  0.9987 -0.8540 -1.6801
 1451TIP3    H225913   2.858   3.071   7.988 -0.3203  0.2569  1.9303
 1452TIP3   OH225914   6.630   5.486   6.961 -0.2199  0.4123  0.4989
 1452TIP3    H125915   6.604   5.565   7.009  0.1414  1.0718 -0.3613
 1452TIP3    H225916   6.549   5.438   6.947 -0.4015  0.4728  1.2931
 1453TIP3   OH225917   3.325   0.516   7.342  0.0626  0.2129 -0.1113
 1453TIP3    H125918   3.241   0.547   7.307 -1.1029 -0.9225  1.5334
 1453TIP3    H225919   3.371   0.482   7.265 -1.5305 -0.2981 -0.8954
 1454TIP3   OH225920   3.063   5.726   6.535  0.9628  0.3800  0.1426
 1454TIP3    H125921   3.054   5.786   6.461 -1.3429 -0.5503 -0.3886
 1454TIP3    H225922   3.156   5.704   6.536  1.2838  1.4413 -1.6323
 1455TIP3   OH225923   4.293   4.501   1.881 -0.1060  0.1966  0.5603
 1455TIP3    H125924   4.359   4.569   1.890 -2.6925  2.8366  0.9197
 1455TIP3    H225925   4.262   4.485   1.970 -0.8020 -0.0710  0.2765
 1456TIP3   OH225926   0.897   5.844   7.919  0.2715  0.0834  0.6522
 1456TIP3    H125927   0.924   5.881   8.003  0.2858  2.4785 -0.3119
 1456TIP3    H225928   0.968   5.867   7.859 -0.6406  0.1905 -0.4136
 1457TIP3   OH225929   3.824   0.219   0.178  0.3873  0.0542 -0.8512
 1457TIP3    H125930   3.785   0.306   0.188  1.2773  0.2403  2.0518
 1457TIP3    H225931   3.918   0.236   0.172  0.7641 -0.6584  1.6736
 1458TIP3   OH225932   6.180   5.552   1.453  0.5505  0.1524 -0.4534
 1458TIP3    H125933   6.134   5.478   1.494  3.4783  0.0156  3.0504
 1458TIP3    H225934   6.135   5.629   1.487 -0.5378  0.0672 -1.6152
 1459TIP3   OH225935   3.756   4.636   1.888  0.4073  0.3435 -0.3659
 1459TIP3    H125936   3.730   4.718   1.846 -1.7197 -0.2537 -0.3370
 1459TIP3    H225937   3.706   4.634   1.969  0.3749 -1.0120 -0.4002
 1460TIP3   OH225938   2.325   2.270   6.514 -0.4182  0.5586 -0.3078
 1460TIP3    H125939   2.285   2.336   6.572 -0.5507 -0.5387  0.9159
 1460TIP3    H225940   2.265   2.195   6.519 -1.0966  0.8329 -2.8914
 1461TIP3   OH225941   5.944   4.921   1.654  0.1651 -0.1253 -0.5864
 1461TIP3    H125942   6.036   4.897   1.664 -0.2954 -1.6448  0.3537
 1461TIP3    H225943   5.914   4.939   1.743 -0.4452  0.4154 -0.8933
 1462TIP3   OH225944   1.454   4.171   0.947 -0.2368  0.7174  0.1989
 1462TIP3    H125945   1.453   4.220   0.864  1.4434 -1.5555 -1.2899
 1462TIP3    H225946   1.373   4.198   0.992 -0.8530  2.5615 -1.8384
 1463TIP3   OH225947   2.951   2.495   7.589  0.6333  0.4663 -0.0131
 1463TIP3    H125948   2.941   2.561   7.521 -0.7857  1.8026  1.4011
 1463TIP3    H225949   3.046   2.485   7.599  0.8739  1.8018 -0.7312
 1464TIP3   OH225950   4.854   6.118   1.404 -0.0505 -0.0574 -0.4993
 1464TIP3    H125951   4.944   6.136   1.377 -0.7423  1.8509 -1.7640
 1464TIP3    H225952   4.803   6.120   1.323 -1.3402 -0.4565  0.2570
 1465TIP3   OH225953   4.263   6.287   1.357  0.8199 -0.4499 -0.2137
 1465TIP3    H125954   4.299   6.375   1.365 -1.1677  0.4058 -0.0310
 1465TIP3    H225955   4.317   6.233   1.414  0.5701  1.1504  1.6335
 1466TIP3   OH225956   4.738   5.814   7.749 -0.0778 -0.3547 -0.1430
 1466TIP3    H125957   4.758   5.908   7.747  1.3910 -0.5393  1.9289
 1466TIP3    H225958   4.741   5.786   7.658  2.8452  1.0031 -0.5907
 1467TIP3   OH225959   5.151   6.352   7.736 -0.0126  0.2955 -0.0527
 1467TIP3    H125960   5.225   6.296   7.710 -0.8975 -0.5985 -0.7190
 1467TIP3    H225961   5.133   6.404   7.658 -1.5119 -1.1009 -0.6909
 1468TIP3   OH225962   3.706   3.242   7.307  0.5088  0.1124 -0.4474
 1468TIP3    H125963   3.629   3.188   7.320 -0.9471  1.9374 -1.0775
 1468TIP3    H225964   3.733   3.225   7.217  0.7457 -0.3755 -0.2895
 1469TIP3   OH225965   3.591   3.300   7.845  0.6422 -0.5376  0.1651
 1469TIP3    H125966   3.538   3.326   7.769  0.9848 -0.9231 -0.2138
 1469TIP3    H225967   3.547   3.339   7.920  0.9824  0.9062 -0.3453
 1470TIP3   OH225968   6.832   1.271   1.070 -0.2166 -0.1944 -0.2910
 1470TIP3    H125969   6.802   1.211   1.139  2.1021 -1.7747 -0.5515
 1470TIP3    H225970   6.772   1.345   1.075 -0.6891 -0.6704  2.8069
 1471TIP3   OH225971   3.264   4.096   7.094  0.1452 -1.0613  0.1796
 1471TIP3    H125972   3.221   4.181   7.083 -1.7655 -2.1185 -1.1452
 1471TIP3    H225973   3.284   4.091   7.187 -1.5000  0.0447  0.6297
 1472TIP3   OH225974   0.901   3.781   5.803 -0.0190 -0.2346  0.1089
 1472TIP3    H125975   0.957   3.858   5.792 -2.1112  1.3675  0.0440
 1472TIP3    H225976   0.833   3.792   5.736 -0.0595 -2.4834 -0.2864
 1473TIP3   OH225977   5.704   0.963   0.248 -0.1047 -0.0413 -0.3128
 1473TIP3    H125978   5.728   0.890   0.191 -0.4161 -0.6334  0.3031
 1473TIP3    H225979   5.610   0.972   0.237 -0.6997 -2.0752  2.2533
 1474TIP3   OH225980   0.544   4.795   7.824 -0.4314  0.2330 -0.0678
 1474TIP3    H125981   0.590   4.873   7.795 -0.2524  0.3274  0.4603
 1474TIP3    H225982   0.516   4.815   7.914 -1.1257  0.0130 -0.2327
 1475TIP3   OH225983   4.660   6.858   7.918 -0.4660 -0.0137  0.3494
 1475TIP3    H125984   4.737   6.832   7.968 -1.7564 -1.3973  1.6945
 1475TIP3    H225985   4.685   6.844   7.826  1.2155  0.5696  0.6945
 1476TIP3   OH225986   1.194   1.668   7.705  0.2086 -0.2639 -0.0317
 1476TIP3    H125987   1.107   1.641   7.673 -0.0267 -0.1046  0.4648
 1476TIP3    H225988   1.228   1.724   7.636  0.6646 -1.7109 -1.0423
 1477TIP3   OH225989   6.031   5.622   2.352 -0.5986  0.0944  0.2726
 1477TIP3    H125990   6.121   5.602   2.381 -0.3791  0.6583 -0.0011
 1477TIP3    H225991   5.985   5.646   2.432  0.2459  2.5505  0.1102
 1478TIP3   OH225992   1.646   0.614   0.882  0.3889  0.5247 -0.4924
 1478TIP3    H125993   1.609   0.692   0.925 -1.3847 -0.5117 -0.0427
 1478TIP3    H225994   1.583   0.592   0.814 -1.3698 -2.7783  1.9172
 1479TIP3   OH225995   2.006   3.217   7.922 -0.3026  0.1263 -0.6172
 1479TIP3    H125996   1.988   3.263   8.004 -1.5175 -0.3479 -0.5951
 1479TIP3    H225997   2.101   3.225   7.910  0.0094 -0.3809  1.1846
 1480TIP3   OH225998   4.715   6.514   7.849  0.4909  0.3201 -0.0051
 1480TIP3    H125999   4.624   6.532   7.870  0.4695 -0.4416  0.5888
 1480TIP3    H226000   4.743   6.588   7.795  0.4448  2.1425  2.3481
 1481TIP3   OH226001   6.417   6.155   0.956  0.0930 -0.5455  0.1692
 1481TIP3    H126002   6.431   6.098   1.031 -1.8407 -1.7641 -0.3227
 1481TIP3    H226003   6.366   6.228   0.990 -1.2986 -1.3917 -0.0071
 1482TIP3   OH226004   3.433   4.887   1.154 -0.0046 -0.5313 -0.4422
 1482TIP3    H126005   3.465   4.853   1.071 -0.5574  0.2949 -1.0118
 1482TIP3    H226006   3.441   4.982   1.146 -3.3679 -0.1551 -1.0185
 1483TIP3   OH226007   2.329   4.948   0.827 -0.2162 -0.2119 -0.4873
 1483TIP3    H126008   2.287   4.880   0.776 -0.4563  0.2927 -0.9647
 1483TIP3    H226009   2.265   4.971   0.894 -1.4965  1.8441 -2.3149
 1484TIP3   OH226010   1.800   6.886   0.484 -0.0015  0.5417  0.3249
 1484TIP3    H126011   1.812   6.791   0.491 -1.2891  0.3491  0.1169
 1484TIP3    H226012   1.887   6.922   0.503  1.5706 -0.8047 -3.3713
 1485TIP3   OH226013   3.560   2.219   1.505  0.1607 -1.0313 -0.4866
 1485TIP3    H126014   3.498   2.231   1.577  1.0256  0.6149  0.0394
 1485TIP3    H226015   3.565   2.124   1.493 -0.7333 -1.2942  0.9574
 1486TIP3   OH226016   5.901   1.143   0.118 -0.4349  0.5755  0.0134
 1486TIP3    H126017   5.916   1.145   0.023  1.9206  1.1564  0.3227
 1486TIP3    H226018   5.906   1.050   0.141  0.2092  0.5300 -0.2897
 1487TIP3   OH226019   1.788   6.502   7.496  0.2081  0.3231 -0.0943
 1487TIP3    H126020   1.721   6.511   7.564 -1.3231  0.4461 -1.5712
 1487TIP3    H226021   1.867   6.477   7.544 -1.3979 -2.0963  1.4898
 1488TIP3   OH226022   5.673   0.012   6.382  0.5056 -0.1093  0.5125
 1488TIP3    H126023   5.641   0.058   6.304 -0.5763 -1.0042  0.4124
 1488TIP3    H226024   5.767   0.002   6.367  0.4583  0.5280 -0.2602
 1489TIP3   OH226025   4.602   4.319   1.717 -0.2919  0.1110  0.1293
 1489TIP3    H126026   4.637   4.406   1.739 -0.9185  0.3260  0.2843
 1489TIP3    H226027   4.596   4.273   1.801 -0.5870  0.1543  0.1340
 1490TIP3   OH226028   0.078   2.576   7.074 -0.4723  0.1241 -0.3198
 1490TIP3    H126029   0.072   2.660   7.030  0.2606 -1.0988 -2.9954
 1490TIP3    H226030  -0.013   2.547   7.083 -0.6303  0.0549 -1.8697
 1491TIP3   OH226031   6.745   2.781   1.053 -0.3345  0.4225  0.2798
 1491TIP3    H126032   6.699   2.700   1.076 -0.0344  0.4038  0.8381
 1491TIP3    H226033   6.690   2.822   0.986 -0.6503 -0.0845  0.2228
 1492TIP3   OH226034   4.660   1.325   0.706  0.1735  0.1154 -0.1095
 1492TIP3    H126035   4.718   1.327   0.630 -1.3390 -0.4315 -1.3309
 1492TIP3    H226036   4.585   1.379   0.680 -0.3785 -0.0916  1.0084
 1493TIP3   OH226037   2.468   1.266   7.158  0.2385 -0.0882 -0.3226
 1493TIP3    H126038   2.405   1.202   7.193 -0.9314  1.6334  0.8488
 1493TIP3    H226039   2.449   1.269   7.064  1.3130 -2.4865 -0.6935
 1494TIP3   OH226040   1.459   4.410   6.533  0.1523 -0.0343 -0.4834
 1494TIP3    H126041   1.406   4.330   6.526  3.1028 -2.3531  1.0380
 1494TIP3    H226042   1.505   4.415   6.449  2.5540 -2.1309  0.5676
 1495TIP3   OH226043   3.293   1.379   5.744 -0.7322 -0.2760 -0.5853
 1495TIP3    H126044   3.380   1.421   5.744 -0.6461 -0.4116 -1.6880
 1495TIP3    H226045   3.235   1.445   5.782 -0.3278  0.2467 -0.8486
 1496TIP3   OH226046   3.324   6.239   7.834  0.2362 -0.0673 -0.0044
 1496TIP3    H126047   3.294   6.316   7.883  0.3243 -0.0293 -0.0099
 1496TIP3    H226048   3.356   6.179   7.901  2.1286  0.7483 -0.1243
 1497TIP3   OH226049   5.335   0.736   6.185 -0.5891 -0.7113  0.3086
 1497TIP3    H126050   5.426   0.765   6.173 -1.0192  0.1276 -1.1719
 1497TIP3    H226051   5.299   0.733   6.097 -1.9389 -1.2953  0.8529
 1498TIP3   OH226052   2.605   0.272   5.818 -0.7252 -0.1086  0.4282
 1498TIP3    H126053   2.536   0.331   5.787 -0.9226  0.3980  1.7477
 1498TIP3    H226054   2.570   0.235   5.899 -1.1864 -3.1636 -1.0392
 1499TIP3   OH226055   6.382   0.922   1.332 -0.0391 -0.1129  0.0198
 1499TIP3    H126056   6.420   0.849   1.283 -0.7303 -1.2026  1.0690
 1499TIP3    H226057   6.330   0.969   1.267  1.2793  0.1125 -0.9199
 1500TIP3   OH226058   2.282   0.296   1.111 -0.4041 -0.0593  0.0067
 1500TIP3    H126059   2.321   0.208   1.104 -0.1306  0.0939 -0.4697
 1500TIP3    H226060   2.273   0.311   1.205 -4.3942 -2.3078  0.1950
 1501TIP3   OH226061   0.855   3.317   7.181  0.4053 -0.5304  0.0118
 1501TIP3    H126062   0.941   3.276   7.185 -0.2774 -1.9329  2.0598
 1501TIP3    H226063   0.824   3.316   7.272 -0.9749  1.7557 -0.3432
 1502TIP3   OH226064   2.312   5.899   5.766  0.4035  0.0862  0.0415
 1502TIP3    H126065   2.396   5.881   5.724 -0.4153 -1.6398 -0.9707
 1502TIP3    H226066   2.283   5.814   5.800 -0.9178  0.6431  0.3916
 1503TIP3   OH226067   0.177   3.199   1.466  0.3362 -0.5350  0.4525
 1503TIP3    H126068   0.228   3.142   1.524 -3.1590 -2.0300  2.4117
 1503TIP3    H226069   0.091   3.157   1.462 -1.2055  2.4678 -1.4971
 1504TIP3   OH226070   1.792   3.023   1.803 -0.1345  0.3082  0.3954
 1504TIP3    H126071   1.876   2.995   1.766 -0.3783  0.5769 -0.3911
 1504TIP3    H226072   1.734   2.948   1.789 -0.3114  0.5270 -0.0748
 1505TIP3   OH226073   6.880   4.294   1.748  0.5163  0.3417 -0.0447
 1505TIP3    H126074   6.960   4.291   1.696 -0.4678 -1.5528 -1.5605
 1505TIP3    H226075   6.910   4.306   1.838  2.4880 -0.1996 -0.5885
 1506TIP3   OH226076   1.129   4.934   0.193 -0.5358  0.1452 -0.3770
 1506TIP3    H126077   1.085   4.959   0.274 -2.5329  1.2696 -1.7312
 1506TIP3    H226078   1.170   5.015   0.163  1.6336 -0.6326  0.2740
 1507TIP3   OH226079   1.276   0.349   7.562 -0.2782 -0.0730 -0.7891
 1507TIP3    H126080   1.350   0.351   7.501 -1.6113  0.6468 -2.4720
 1507TIP3    H226081   1.266   0.440   7.591  0.5387 -0.4622  0.7931
 1508TIP3   OH226082   1.411   3.069   1.116  0.0073  0.1804  0.1199
 1508TIP3    H126083   1.388   2.976   1.117  0.5858  0.0070  2.5844
 1508TIP3    H226084   1.501   3.071   1.150 -0.6768  1.7515  1.9719
 1509TIP3   OH226085   3.190   2.942   0.472 -0.2720 -0.2641 -0.1373
 1509TIP3    H126086   3.145   2.989   0.542 -1.0146  0.5118 -1.1035
 1509TIP3    H226087   3.145   2.857   0.467  0.5372 -0.7903  1.0670
 1510TIP3   OH226088   5.817   6.881   6.369 -0.4271 -0.0360  0.4130
 1510TIP3    H126089   5.867   6.863   6.448  2.8907  3.5311 -0.5770
 1510TIP3    H226090   5.810   6.977   6.365 -1.0873 -0.0720 -3.1986
 1511TIP3   OH226091   4.165   2.547   5.831 -0.1573  0.0234 -0.2358
 1511TIP3    H126092   4.143   2.585   5.917 -1.3362 -0.1504 -0.4356
 1511TIP3    H226093   4.128   2.608   5.768 -0.8020 -0.7051 -0.5826
 1512TIP3   OH226094   6.976   1.582   0.555  0.4525 -0.3358  0.0824
 1512TIP3    H126095   7.067   1.559   0.542  0.9506  1.3568  0.3244
 1512TIP3    H226096   6.975   1.632   0.637 -0.0969  2.4461 -1.4719
 1513TIP3   OH226097   1.423   1.512   0.504  0.2901 -0.9640 -0.6134
 1513TIP3    H126098   1.411   1.439   0.566  0.9604  0.4746  1.3190
 1513TIP3    H226099   1.481   1.476   0.436 -0.9491 -2.7816 -0.7903
 1514TIP3   OH226100   6.107   5.760   6.751 -0.0504 -0.0528  0.0838
 1514TIP3    H126101   6.067   5.709   6.821  0.1432  2.1415  1.9116
 1514TIP3    H226102   6.196   5.777   6.782 -0.3134  1.8950 -0.1255
 1515TIP3   OH226103   5.184   1.716   2.066  0.3759 -0.1640  0.4819
 1515TIP3    H126104   5.135   1.673   1.996  0.0006  1.6462 -0.4112
 1515TIP3    H226105   5.117   1.737   2.131  0.3946  0.0397  0.4331
 1516TIP3   OH226106   5.807   0.507   6.290  0.6075 -0.4640 -0.2191
 1516TIP3    H126107   5.746   0.485   6.360 -1.4963  0.1204 -1.7841
 1516TIP3    H226108   5.813   0.427   6.238  2.4696 -1.0223  0.7707
 1517TIP3   OH226109   3.630   4.491   0.665  0.8435  0.0060  0.7441
 1517TIP3    H126110   3.672   4.576   0.677  0.1590  0.4951 -0.1922
 1517TIP3    H226111   3.624   4.480   0.570  0.8421 -1.0511  0.8519
 1518TIP3   OH226112   5.880   2.469   7.547 -0.1921 -0.4745 -0.4268
 1518TIP3    H126113   5.799   2.418   7.552 -0.4338 -0.0577 -0.0271
 1518TIP3    H226114   5.853   2.559   7.564  0.5997 -0.5635  1.4724
 1519TIP3   OH226115   5.247   5.835   7.895 -0.0030 -0.3735  0.2122
 1519TIP3    H126116   5.175   5.896   7.911  0.4585  0.9976 -2.2995
 1519TIP3    H226117   5.324   5.879   7.930  0.1891  0.1264 -0.7870
 1520TIP3   OH226118   6.690   4.032   1.730  1.0903  0.1049 -0.7119
 1520TIP3    H126119   6.673   4.098   1.798  0.2707  0.0570 -0.8514
 1520TIP3    H226120   6.779   4.050   1.700  0.5003  1.8906 -1.5363
 1521TIP3   OH226121   5.412   1.844   1.892  0.0393 -0.6148 -0.1644
 1521TIP3    H126122   5.389   1.873   1.980  0.3504  0.0810 -0.3054
 1521TIP3    H226123   5.332   1.855   1.841  0.5645  1.6277 -0.6096
 1522TIP3   OH226124   5.442   1.606   0.677 -0.0104 -0.4662 -0.2350
 1522TIP3    H126125   5.411   1.528   0.632 -0.2709 -0.1068 -0.6775
 1522TIP3    H226126   5.531   1.584   0.704 -0.7842 -1.7204  1.5408
 1523TIP3   OH226127   5.244   3.538   6.002  0.0002 -0.1485  0.1000
 1523TIP3    H126128   5.278   3.453   6.030 -0.5224 -0.1457  0.7531
 1523TIP3    H226129   5.319   3.597   6.009  0.7670 -0.8313 -1.7650
 1524TIP3   OH226130   1.936   6.668   5.750  0.6481 -0.2510  0.3716
 1524TIP3    H126131   2.026   6.697   5.766  0.6777  0.9114 -1.5542
 1524TIP3    H226132   1.912   6.711   5.668 -1.9918  0.1614  1.2878
 1525TIP3   OH226133   2.140   2.647   7.654 -0.0453  0.2873  0.2744
 1525TIP3    H126134   2.188   2.631   7.573  0.5513  0.1177  0.6493
 1525TIP3    H226135   2.057   2.684   7.626  0.9652  2.2368 -0.3353
 1526TIP3   OH226136   0.559   4.969   6.939  0.4560 -0.2687 -0.2477
 1526TIP3    H126137   0.644   4.966   6.984  0.5441 -1.6945 -0.4818
 1526TIP3    H226138   0.568   4.907   6.867 -0.7119 -0.2662 -0.4087
 1527TIP3   OH226139   3.251   3.318   6.541 -0.3111  1.1259 -0.0063
 1527TIP3    H126140   3.266   3.362   6.457 -1.3150  1.0160 -0.2593
 1527TIP3    H226141   3.272   3.384   6.607  1.1100  1.0132 -0.3122
 1528TIP3   OH226142   6.670   2.674   5.620 -0.3700  0.2922  0.6046
 1528TIP3    H126143   6.647   2.734   5.549  0.4975 -1.4255 -1.2552
 1528TIP3    H226144   6.709   2.730   5.687 -1.1125  1.9855 -0.3086
 1529TIP3   OH226145   2.921   4.678   6.819 -0.0797 -0.0886  0.1590
 1529TIP3    H126146   2.829   4.695   6.843  0.5109  0.8804  1.9019
 1529TIP3    H226147   2.956   4.629   6.893  0.4114 -1.9869 -1.2553
 1530TIP3   OH226148   4.746   6.833   7.151  0.0734 -0.5744  0.7093
 1530TIP3    H126149   4.709   6.753   7.188  0.2775 -0.8081  0.4086
 1530TIP3    H226150   4.690   6.903   7.185 -0.8915 -0.9588 -0.0575
 1531TIP3   OH226151   0.282   5.229   7.637 -0.2832  0.0555  0.5621
 1531TIP3    H126152   0.305   5.142   7.670  0.0124  0.5841  1.8411
 1531TIP3    H226153   0.269   5.217   7.543  1.8994 -0.9574  0.3170
 1532TIP3   OH226154   5.712   5.126   0.175  0.3181  0.6019  0.1949
 1532TIP3    H126155   5.633   5.131   0.122  0.3882  0.3638  0.0673
 1532TIP3    H226156   5.694   5.182   0.250  0.3415  1.1858 -0.2330
 1533TIP3   OH226157   6.596   1.814   6.318 -0.3050 -0.1095 -0.3540
 1533TIP3    H126158   6.534   1.808   6.391  1.0646 -0.5725  0.8234
 1533TIP3    H226159   6.561   1.755   6.252 -1.8952  0.7685 -0.3531
 1534TIP3   OH226160   5.138   6.687   7.056  0.2873 -0.4598 -0.0369
 1534TIP3    H126161   5.071   6.630   7.092 -1.4764  2.4825  1.7448
 1534TIP3    H226162   5.095   6.773   7.047  2.5155  0.5401 -3.2466
 1535TIP3   OH226163   1.621   1.256   6.738 -0.2692 -0.2097  0.2539
 1535TIP3    H126164   1.689   1.323   6.735 -1.4480  1.0478  0.8433
 1535TIP3    H226165   1.591   1.248   6.648 -0.0122 -0.0654  0.1543
 1536TIP3   OH226166   0.237   4.705   5.870 -0.1815 -0.2308 -0.2657
 1536TIP3    H126167   0.246   4.611   5.852 -3.4027 -0.3998 -1.6494
 1536TIP3    H226168   0.243   4.747   5.785 -2.9439  0.2892 -0.3063
 1537TIP3   OH226169   2.622   6.840   1.581 -0.1311  0.0897  0.1551
 1537TIP3    H126170   2.640   6.915   1.638 -0.6951 -0.3605  0.9440
 1537TIP3    H226171   2.707   6.795   1.575 -0.2825 -0.4529  1.5463
 1538TIP3   OH226172   0.839   6.620   1.127 -0.0587 -0.8606  0.2852
 1538TIP3    H126173   0.806   6.617   1.036  0.3417 -3.9262  0.1415
 1538TIP3    H226174   0.934   6.613   1.118 -0.1482 -3.5635  0.9335
 1539TIP3   OH226175   3.844   3.978   1.731  0.1607 -0.1551 -0.7838
 1539TIP3    H126176   3.882   4.066   1.729  1.0617 -0.5098  0.0041
 1539TIP3    H226177   3.752   3.992   1.708 -0.2323  1.2923  1.3403
 1540TIP3   OH226178   3.915   1.534   7.829 -0.1029  0.5810 -0.3943
 1540TIP3    H126179   3.889   1.490   7.910  0.5957  0.0382 -0.4642
 1540TIP3    H226180   3.950   1.619   7.859 -2.0378  1.4046 -0.3063
 1541TIP3   OH226181   0.083   0.818   0.269 -0.5046  0.2257 -0.7988
 1541TIP3    H126182   0.001   0.772   0.287 -1.2144  1.2057 -1.4659
 1541TIP3    H226183   0.148   0.747   0.261 -1.6424 -0.7275 -2.1992
 1542TIP3   OH226184   4.268   1.289   0.072  0.2726  0.2003  0.4415
 1542TIP3    H126185   4.292   1.263   0.160  1.2012 -0.6906 -0.0583
 1542TIP3    H226186   4.228   1.211   0.033  0.5232  0.3639 -0.1569
 1543TIP3   OH226187   6.902   1.878   7.821  0.0911 -0.0468 -0.1988
 1543TIP3    H126188   6.835   1.881   7.890  0.4893  0.6190  0.1741
 1543TIP3    H226189   6.981   1.914   7.863  0.3757  0.2458 -0.9631
 1544TIP3   OH226190   1.874   0.811   7.493 -0.5063 -0.0322 -0.5275
 1544TIP3    H126191   1.962   0.796   7.527 -1.2126  1.8213  2.4346
 1544TIP3    H226192   1.887   0.824   7.399  2.7099  2.1491  0.0474
 1545TIP3   OH226193   5.927   4.377   7.166  0.3344 -0.6187 -0.7915
 1545TIP3    H126194   5.860   4.382   7.098 -0.8573 -1.4965  0.2567
 1545TIP3    H226195   5.878   4.371   7.248  1.6912  2.4928  0.4143
 1546TIP3   OH226196   5.156   4.589   1.359  0.0429  0.2415 -0.2583
 1546TIP3    H126197   5.077   4.626   1.399  0.1650  0.5234 -0.2776
 1546TIP3    H226198   5.195   4.536   1.428  0.5720  1.1973  0.2052
 1547TIP3   OH226199   2.585   2.676   5.883  0.4927  0.2151  0.1172
 1547TIP3    H126200   2.509   2.626   5.913  1.1387 -0.9945 -0.2084
 1547TIP3    H226201   2.605   2.640   5.796  0.8924  1.1475 -0.1934
 1548TIP3   OH226202   1.163   5.553   0.013  0.0141  0.3087  0.2672
 1548TIP3    H126203   1.190   5.595  -0.069  0.3927 -1.8731 -0.7901
 1548TIP3    H226204   1.068   5.543   0.004  0.1547 -0.5946 -0.2396
 1549TIP3   OH226205   2.293   5.729   0.494  0.2671 -0.5338  0.6413
 1549TIP3    H126206   2.308   5.640   0.527  0.8025 -0.8516 -0.4230
 1549TIP3    H226207   2.331   5.786   0.561  0.2951 -1.1129  1.1312
 1550TIP3   OH226208   4.536   1.075   7.694 -0.0848  0.2902  0.1830
 1550TIP3    H126209   4.513   1.081   7.602  1.0353  1.2674 -0.0673
 1550TIP3    H226210   4.561   1.164   7.719 -0.4632  0.0679  1.4594
 1551TIP3   OH226211   1.729   5.987   0.846 -0.4984 -0.5901  0.3669
 1551TIP3    H126212   1.782   6.040   0.787 -0.2052  0.1172  1.2266
 1551TIP3    H226213   1.726   6.038   0.927 -0.1843 -1.9014  1.2436
 1552TIP3   OH226214   6.219   0.618   0.916  0.0174 -0.4032  0.2801
 1552TIP3    H126215   6.221   0.647   1.007  1.6114 -1.2242  0.5458
 1552TIP3    H226216   6.178   0.532   0.919 -2.9305  0.8625 -0.2588
 1553TIP3   OH226217   1.697   6.189   6.814 -0.2056  0.2273 -0.2503
 1553TIP3    H126218   1.644   6.254   6.860 -0.6932 -1.6540  2.0649
 1553TIP3    H226219   1.637   6.117   6.795  0.7344 -0.4131 -0.9022
 1554TIP3   OH226220   3.674   3.654   1.405 -0.0706 -0.1328  0.4531
 1554TIP3    H126221   3.752   3.639   1.457  0.2664 -1.0398 -0.2881
 1554TIP3    H226222   3.671   3.749   1.392  1.8697 -0.1905 -0.9187
 1555TIP3   OH226223   0.679   0.391   0.588  0.0839 -0.9143  0.6682
 1555TIP3    H126224   0.642   0.363   0.671  2.8311 -0.5535  2.1361
 1555TIP3    H226225   0.674   0.487   0.590  1.1100 -0.8467  0.9673
 1556TIP3   OH226226   3.033   2.439   6.184 -0.6287  0.0859 -0.3214
 1556TIP3    H126227   3.116   2.398   6.160  0.2171  1.8101 -0.5062
 1556TIP3    H226228   2.970   2.367   6.185  0.7892 -1.2093 -0.5144
 1557TIP3   OH226229   4.048   2.463   0.459 -0.3332 -0.1819  0.5029
 1557TIP3    H126230   3.972   2.410   0.436  1.5002 -2.4836 -0.7317
 1557TIP3    H226231   4.078   2.427   0.542  0.1456 -0.1642  0.3398
 1558TIP3   OH226232   6.553   6.434   0.795  0.3902 -0.3696  0.2576
 1558TIP3    H126233   6.561   6.354   0.743 -0.9865 -1.4631  1.6286
 1558TIP3    H226234   6.459   6.452   0.798  0.5864  0.6699  0.8897
 1559TIP3   OH226235   0.438   1.872   7.490  0.1775  0.0052  0.1532
 1559TIP3    H126236   0.399   1.925   7.560  0.4910 -0.6079  0.8059
 1559TIP3    H226237   0.482   1.800   7.536  1.7379  0.4477 -0.5552
 1560TIP3   OH226238   7.000   6.382   0.416 -0.6744  0.1447  0.3839
 1560TIP3    H126239   7.058   6.309   0.435 -1.3942 -0.3829  0.5772
 1560TIP3    H226240   7.006   6.394   0.321 -1.0332 -0.5695  0.2709
 1561TIP3   OH226241   4.751   4.091   7.779 -0.3167 -0.3064  0.3116
 1561TIP3    H126242   4.708   4.017   7.737 -0.4970  0.4154 -0.8009
 1561TIP3    H226243   4.681   4.153   7.798 -0.0099  0.0860  0.1694
 1562TIP3   OH226244   4.170   2.546   6.734  0.8815 -0.3625  0.2085
 1562TIP3    H126245   4.255   2.547   6.689  0.5634  1.5948 -0.4143
 1562TIP3    H226246   4.174   2.468   6.791  2.2977 -1.4300 -1.2701
 1563TIP3   OH226247   5.006   0.308   6.899 -0.0704 -0.2322  0.4106
 1563TIP3    H126248   4.966   0.343   6.978 -0.3917 -0.3751  0.3144
 1563TIP3    H226249   5.002   0.380   6.836  1.0337  0.1898  0.8058
 1564TIP3   OH226250   4.471   4.841   6.762  0.4787  0.1282 -0.1704
 1564TIP3    H126251   4.518   4.869   6.842 -0.5625  1.6855 -0.0606
 1564TIP3    H226252   4.380   4.865   6.778  0.0891 -0.4031 -1.4678
 1565TIP3   OH226253   1.316   5.981   7.239 -0.2192  0.8186 -0.6272
 1565TIP3    H126254   1.368   5.983   7.158  1.2377 -1.9774  0.1156
 1565TIP3    H226255   1.263   5.902   7.231  0.6073 -0.0109  1.4727
 1566TIP3   OH226256   6.543   0.909   0.708 -0.0911  0.5892 -0.0424
 1566TIP3    H126257   6.638   0.910   0.695  0.2454  1.1372  2.1003
 1566TIP3    H226258   6.516   1.000   0.695 -0.6597  0.1566 -2.3949
 1567TIP3   OH226259   2.344   2.714   6.752  0.2125  0.1617  0.0437
 1567TIP3    H126260   2.419   2.666   6.786 -0.3624  0.1336  1.3752
 1567TIP3    H226261   2.330   2.784   6.816 -0.5608  0.4867 -0.4670
 1568TIP3   OH226262   4.434   4.210   0.661 -0.2059  0.1232  0.1627
 1568TIP3    H126263   4.383   4.257   0.727  0.1282 -0.3094  0.7403
 1568TIP3    H226264   4.393   4.234   0.578 -2.0540 -1.0688  0.6781
 1569TIP3   OH226265   0.981   4.295   0.725 -0.7412 -0.0385  0.1543
 1569TIP3    H126266   1.069   4.257   0.719 -0.0008  1.5019  0.6612
 1569TIP3    H226267   0.924   4.232   0.680  0.1746 -2.3433  2.0115
 1570TIP3   OH226268   1.370   6.480   6.952  0.8999  0.0899 -0.1983
 1570TIP3    H126269   1.345   6.393   6.982 -1.7795  1.0619  0.6298
 1570TIP3    H226270   1.322   6.492   6.870  1.6245  0.6428 -0.5565
 1571TIP3   OH226271   1.909   6.855   1.263 -0.2248 -0.1451  0.3808
 1571TIP3    H126272   1.880   6.946   1.264  0.9994  0.2549  0.6284
 1571TIP3    H226273   1.837   6.807   1.304 -0.2081  0.9190  1.7056
 1572TIP3   OH226274   0.805   2.552   1.344  0.3427 -0.2671 -0.1090
 1572TIP3    H126275   0.890   2.581   1.309 -0.2919  1.4714 -0.2821
 1572TIP3    H226276   0.827   2.498   1.420  1.5956  1.1835  0.6052
 1573TIP3   OH226277   2.529   0.073   7.616  0.6580 -0.4420 -0.4504
 1573TIP3    H126278   2.550   0.157   7.657 -1.0766 -1.1663  2.1047
 1573TIP3    H226279   2.473   0.096   7.542 -2.4553  0.6537  2.0256
 1574TIP3   OH226280   2.436   1.653   1.331  0.1948  0.9189  0.0411
 1574TIP3    H126281   2.419   1.568   1.372  0.3221  1.5017  1.3600
 1574TIP3    H226282   2.491   1.632   1.255  0.9122 -0.1148  0.8087
 1575TIP3   OH226283   6.657   1.227   7.257 -0.2934  0.4520  0.7614
 1575TIP3    H126284   6.615   1.247   7.340  0.2088 -0.4677  1.2524
 1575TIP3    H226285   6.591   1.179   7.207 -0.4569  0.6510  0.7872
 1576TIP3   OH226286   1.290   4.030   2.124 -0.1955 -0.2340  0.2123
 1576TIP3    H126287   1.278   4.097   2.191  1.2216  0.1511  0.1160
 1576TIP3    H226288   1.244   4.064   2.047  1.9177  1.4821 -0.3657
 1577TIP3   OH226289   3.215   5.217   7.096  0.1795  0.2440 -0.3736
 1577TIP3    H126290   3.287   5.272   7.127  1.1060  0.9418 -3.4854
 1577TIP3    H226291   3.140   5.277   7.091 -0.6665 -0.3871  2.4384
 1578TIP3   OH226292   5.647   2.140   6.609  0.0007 -0.3651  0.4519
 1578TIP3    H126293   5.659   2.191   6.529 -0.9215 -1.1975 -0.2437
 1578TIP3    H226294   5.654   2.204   6.680  0.4858  0.4406 -0.3054
 1579TIP3   OH226295   4.271   4.364   6.343 -0.1364  0.0878  0.2144
 1579TIP3    H126296   4.334   4.420   6.299  0.7664 -1.3062 -0.3476
 1579TIP3    H226297   4.191   4.371   6.291 -0.7087  2.3122  1.2522
 1580TIP3   OH226298   1.012   5.962   0.121  0.0599  0.4198 -0.4901
 1580TIP3    H126299   1.004   6.004   0.207  0.4065  1.4340 -0.9449
 1580TIP3    H226300   1.090   6.000   0.082  0.2354 -0.4649 -1.0344
 1581TIP3   OH226301   0.034   1.946   6.607 -0.7584 -0.3669 -0.3518
 1581TIP3    H126302  -0.012   1.922   6.527 -1.2489  2.2508 -0.9573
 1581TIP3    H226303   0.015   2.039   6.618  0.8397 -0.2233  1.8011
 1582TIP3   OH226304   3.423   0.124   0.118 -0.6037  0.5318 -0.6744
 1582TIP3    H126305   3.453   0.035   0.103  1.5066  0.7853  1.4517
 1582TIP3    H226306   3.352   0.116   0.181  0.0376  0.3559  0.0424
 1583TIP3   OH226307   0.096   3.395   0.396 -0.2975  0.5893 -0.7629
 1583TIP3    H126308   0.142   3.363   0.318  2.4625  0.4914  0.7656
 1583TIP3    H226309   0.072   3.485   0.374 -0.7705  0.1589 -2.1566
 1584TIP3   OH226310   3.998   3.599   8.007 -0.1383 -0.4150  0.0698
 1584TIP3    H126311   3.927   3.620   7.946 -1.1684 -1.5358  0.8253
 1584TIP3    H226312   3.984   3.658   8.081 -0.2131 -0.5522  0.1656
 1585TIP3   OH226313   6.029   3.076   6.193  0.4560 -0.0096  0.9192
 1585TIP3    H126314   5.944   3.101   6.156 -0.2299 -1.8164  1.1795
 1585TIP3    H226315   6.072   3.027   6.123  1.6662  1.5415  0.5060
 1586TIP3   OH226316   0.100   6.098   7.062  0.3428 -0.2316  0.0112
 1586TIP3    H126317   0.012   6.061   7.059  1.3227 -2.7166 -1.0113
 1586TIP3    H226318   0.106   6.139   7.148 -1.4110 -1.1115  0.6067
 1587TIP3   OH226319   2.522   1.592   1.685 -0.7133  0.3433  0.2970
 1587TIP3    H126320   2.456   1.584   1.754 -0.7777 -0.2745  0.1744
 1587TIP3    H226321   2.563   1.506   1.682 -1.5453 -0.0464 -1.2623
 1588TIP3   OH226322   0.928   2.068   2.078  0.3043 -0.1645  0.6621
 1588TIP3    H126323   0.925   1.986   2.029 -1.8028  0.8945 -1.1577
 1588TIP3    H226324   0.901   2.044   2.167  1.3645 -1.6650  0.6080
 1589TIP3   OH226325   0.815   3.007   0.636  0.1980 -0.2415  0.0797
 1589TIP3    H126326   0.841   3.085   0.589  0.5426 -0.4883 -0.1434
 1589TIP3    H226327   0.880   2.998   0.706  0.9789 -1.0886 -0.7278
 1590TIP3   OH226328   6.642   5.852   0.572 -0.7068 -0.2074  0.6854
 1590TIP3    H126329   6.601   5.868   0.656 -0.7736  2.6222  0.2043
 1590TIP3    H226330   6.725   5.808   0.593 -1.0322 -0.1488  2.1414
 1591TIP3   OH226331   0.663   2.238   6.719  0.3512 -0.0650 -0.1432
 1591TIP3    H126332   0.582   2.209   6.761  0.4515 -2.7683 -1.6055
 1591TIP3    H226333   0.718   2.268   6.791 -2.0023  2.2070  0.8684
 1592TIP3   OH226334   5.823   6.413   1.672 -0.4172 -0.3199 -0.0446
 1592TIP3    H126335   5.806   6.467   1.749 -1.2069  0.2134 -0.5753
 1592TIP3    H226336   5.885   6.346   1.702  1.4243  1.4859  0.3584
 1593TIP3   OH226337   0.311   2.140   7.162  0.1187 -0.4063  0.5062
 1593TIP3    H126338   0.269   2.226   7.160 -0.0311 -0.4699  0.8077
 1593TIP3    H226339   0.272   2.096   7.238 -1.0718 -1.3835 -0.6181
 1594TIP3   OH226340   5.050   1.995   7.980 -0.2195  0.3048 -0.5030
 1594TIP3    H126341   4.982   1.973   8.045  1.3429 -0.3648  0.9745
 1594TIP3    H226342   5.087   2.077   8.012  0.6264 -0.0802 -0.4642
 1595TIP3   OH226343   4.229   5.154   7.334  0.6465 -0.1601 -0.6905
 1595TIP3    H126344   4.133   5.152   7.334  0.6444 -1.5961  0.1022
 1595TIP3    H226345   4.252   5.181   7.423  0.9963  0.8647 -1.0769
 1596TIP3   OH226346   5.084   0.561   6.732 -0.0160 -0.5684  0.1037
 1596TIP3    H126347   5.168   0.535   6.769  0.6840  0.4875 -0.6620
 1596TIP3    H226348   5.045   0.619   6.797  1.6943  2.1602 -1.0982
 1597TIP3   OH226349   6.143   4.474   0.647  0.5511 -0.2886 -0.2122
 1597TIP3    H126350   6.138   4.524   0.729  1.1650  1.1234 -0.9881
 1597TIP3    H226351   6.184   4.391   0.671  0.0867 -0.1751  1.0161
 1598TIP3   OH226352   3.535   5.838   7.229  0.1310  0.1602 -0.1609
 1598TIP3    H126353   3.558   5.866   7.318 -1.2382 -0.6848  0.4760
 1598TIP3    H226354   3.615   5.796   7.196  0.2437 -0.7210  1.1717
 1599TIP3   OH226355   3.662   3.249   1.511  0.0634 -0.8443 -0.4972
 1599TIP3    H126356   3.747   3.215   1.483  0.6379 -0.6557  0.9113
 1599TIP3    H226357   3.649   3.212   1.598 -2.3943 -2.6867 -1.5644
 1600TIP3   OH226358   4.643   3.576   0.685 -0.2551  0.5166  0.5978
 1600TIP3    H126359   4.707   3.635   0.725 -0.2549  0.6455  0.4079
 1600TIP3    H226360   4.618   3.619   0.604  1.5831 -0.8865 -0.7920
 1601TIP3   OH226361   0.967   5.935   2.086  0.2281 -0.0949 -0.3981
 1601TIP3    H126362   0.988   5.841   2.090  1.2903  0.1552  0.2088
 1601TIP3    H226363   0.887   5.943   2.138  0.6904 -0.5317  0.4055
 1602TIP3   OH226364   0.116   5.810   0.277  0.0571  0.0300 -0.4311
 1602TIP3    H126365   0.207   5.811   0.308 -0.0263  0.7025 -0.1925
 1602TIP3    H226366   0.064   5.826   0.356 -0.3313 -1.2967 -0.4006
 1603TIP3   OH226367   5.917   6.060   1.585  0.9146  0.2834 -0.2997
 1603TIP3    H126368   5.924   6.104   1.500  1.2294 -0.5503 -0.7149
 1603TIP3    H226369   5.880   5.974   1.565 -2.0343  1.1707  0.7653
 1604TIP3   OH226370   5.942   6.192   6.701 -0.2177 -0.4305 -0.5364
 1604TIP3    H126371   5.898   6.210   6.618 -0.7113 -1.5127 -0.5228
 1604TIP3    H226372   5.870   6.175   6.762  0.1234  0.7377  0.2221
 1605TIP3   OH226373   2.879   2.270   6.472  0.2128  0.4005 -0.0976
 1605TIP3    H126374   2.941   2.343   6.468  0.5553  0.1126 -0.1939
 1605TIP3    H226375   2.848   2.260   6.382 -1.3714  1.7047  0.2614
 1606TIP3   OH226376   5.166   5.432   1.867 -0.6113  0.3624 -0.2080
 1606TIP3    H126377   5.085   5.439   1.917 -0.7619  1.1624 -0.5529
 1606TIP3    H226378   5.231   5.405   1.931 -1.3606 -1.4571 -0.1491
 1607TIP3   OH226379   5.303   1.560   1.517  0.7542  0.4522  0.1053
 1607TIP3    H126380   5.350   1.487   1.478  0.3881  1.6983 -2.9757
 1607TIP3    H226381   5.364   1.597   1.581  0.3425 -3.3826  3.1155
 1608TIP3   OH226382   5.364   5.826   7.167  0.2570 -0.4137 -0.1657
 1608TIP3    H126383   5.440   5.818   7.225 -0.7567 -1.5473  1.0731
 1608TIP3    H226384   5.400   5.821   7.079  2.0648  3.0737  0.2106
 1609TIP3   OH226385   7.131   2.018   7.914  0.2913 -0.5902 -0.6031
 1609TIP3    H126386   7.085   2.046   7.993 -0.8984  0.4220 -1.6109
 1609TIP3    H226387   7.221   2.001   7.943  0.0610  0.4638  0.8156
 1610TIP3   OH226388   2.107   7.122   1.232 -0.3158 -0.7182 -0.4333
 1610TIP3    H126389   2.048   7.074   1.289 -2.2252  0.0937 -1.6294
 1610TIP3    H226390   2.056   7.140   1.153  1.1887  0.9203 -1.1168
 1611TIP3   OH226391   1.318   6.850   0.338 -0.0157 -0.3334  1.0348
 1611TIP3    H126392   1.384   6.900   0.290  1.2424 -1.1353  1.8656
 1611TIP3    H226393   1.263   6.812   0.270  2.2454 -2.1920  0.0868
 1612TIP3   OH226394   3.053   6.790   6.348  0.1911 -0.2525  0.2067
 1612TIP3    H126395   3.124   6.794   6.284 -0.1693 -2.0435 -0.3785
 1612TIP3    H226396   3.093   6.749   6.425  0.1607  0.1344  0.4284
 1613TIP3   OH226397   4.285   4.889   5.959  0.1489 -0.9315  0.4695
 1613TIP3    H126398   4.247   4.829   5.894 -1.0452  0.1154  0.1658
 1613TIP3    H226399   4.221   4.959   5.967  0.7080 -0.5681  2.1176
 1614TIP3   OH226400   1.936   2.891   0.980 -0.4252 -0.8977 -0.2087
 1614TIP3    H126401   2.031   2.895   0.978 -0.4042 -1.5829 -1.1312
 1614TIP3    H226402   1.908   2.979   0.954 -0.0274 -1.1986 -1.7539
 1615TIP3   OH226403   4.845   0.980   1.399 -0.2107  0.1519 -0.4612
 1615TIP3    H126404   4.919   0.926   1.426 -0.6739 -0.1410  0.2404
 1615TIP3    H226405   4.834   0.960   1.306 -1.0239 -1.7720 -0.0039
 1616TIP3   OH226406   5.860   2.906   5.991 -0.6679 -0.5941 -0.3437
 1616TIP3    H126407   5.868   2.877   5.900 -0.0268 -0.3268 -0.3781
 1616TIP3    H226408   5.901   2.837   6.043 -0.1784 -0.3052 -0.3370
 1617TIP3   OH226409   0.049   1.597   7.429  0.0132  0.1166  0.7455
 1617TIP3    H126410   0.061   1.507   7.458  0.9216  1.1397  3.9332
 1617TIP3    H226411   0.137   1.627   7.405  0.1013  0.7283  1.7458
 1618TIP3   OH226412   3.208   3.048   6.416 -0.0509  0.2022 -0.1736
 1618TIP3    H126413   3.185   2.989   6.488 -0.6531  0.8996  0.2183
 1618TIP3    H226414   3.207   3.136   6.456  1.4413  0.4422 -0.5887
 1619TIP3   OH226415   2.755   5.584   7.176  0.2698  0.4010 -1.1557
 1619TIP3    H126416   2.707   5.662   7.147  0.1067 -0.0320 -2.1014
 1619TIP3    H226417   2.740   5.520   7.106 -0.3708 -0.8094  0.0447
 1620TIP3   OH226418   0.969   2.127   0.575 -0.5923  0.7871 -0.8748
 1620TIP3    H126419   0.933   2.099   0.490 -1.0804 -0.0706 -0.3951
 1620TIP3    H226420   0.914   2.202   0.600 -1.2596  0.2664 -0.7411
 1621TIP3   OH226421   5.573   1.978   7.407  0.1296 -0.3698  0.0124
 1621TIP3    H126422   5.522   1.999   7.485  0.0846  1.9769 -0.5934
 1621TIP3    H226423   5.637   2.048   7.401  0.2685 -0.6321 -1.9552
 1622TIP3   OH226424   1.218   3.948   6.644  0.3510 -0.0912  0.2131
 1622TIP3    H126425   1.292   4.007   6.661  1.7357 -1.2791 -1.3930
 1622TIP3    H226426   1.258   3.862   6.635 -1.1715 -0.6873 -1.2422
 1623TIP3   OH226427   1.424   6.152   0.862  0.1699 -0.0379 -0.5276
 1623TIP3    H126428   1.497   6.093   0.882 -1.2056 -1.7509 -0.3430
 1623TIP3    H226429   1.347   6.095   0.859 -0.8954  1.3745 -2.7349
 1624TIP3   OH226430   4.500   4.594   5.605  0.3329 -0.0906 -0.2019
 1624TIP3    H126431   4.592   4.575   5.621  0.1345 -0.0951  1.0620
 1624TIP3    H226432   4.470   4.638   5.685 -0.5887  0.5514 -0.8708
 1625TIP3   OH226433   1.796   4.765   5.936  0.4940  0.0388  0.2727
 1625TIP3    H126434   1.864   4.753   5.870  0.9785 -1.4864  0.9867
 1625TIP3    H226435   1.715   4.740   5.892  0.2771  2.3370 -0.7295
 1626TIP3   OH226436   6.988   3.063   6.857  0.1846  0.3465 -0.0170
 1626TIP3    H126437   6.951   3.126   6.919  0.5885  0.1055  0.4796
 1626TIP3    H226438   6.913   3.030   6.808  0.1608  2.7387 -1.7451
 1627TIP3   OH226439   6.590   3.737   0.672 -0.2252 -0.7172  0.4266
 1627TIP3    H126440   6.674   3.690   0.671 -0.0357 -0.5603  2.8865
 1627TIP3    H226441   6.531   3.681   0.623  0.9466 -1.6139 -0.0155
 1628TIP3   OH226442   7.137   0.290   6.687  0.4291 -0.0836  0.5202
 1628TIP3    H126443   7.133   0.255   6.598  1.0502  1.5700 -0.1998
 1628TIP3    H226444   7.216   0.250   6.725  0.2407 -0.6818  0.2902
 1629TIP3   OH226445   5.452   2.826   1.140  0.3640 -0.3832 -0.6232
 1629TIP3    H126446   5.458   2.731   1.145  0.4884 -0.3667 -0.4561
 1629TIP3    H226447   5.515   2.858   1.204  0.7605 -0.1867 -1.1012
 1630TIP3   OH226448   0.594   5.316   0.392  0.1669  0.1175  0.0986
 1630TIP3    H126449   0.538   5.301   0.316  2.2664  1.2773 -1.7858
 1630TIP3    H226450   0.615   5.410   0.388  1.4383 -0.0868  1.3014
 1631TIP3   OH226451   2.036   3.687   6.246 -0.8035 -0.4867  0.1091
 1631TIP3    H126452   2.103   3.652   6.304 -1.5205  0.8202  1.8235
 1631TIP3    H226453   2.074   3.766   6.209 -1.7118  0.8693  1.9409
 1632TIP3   OH226454   0.765   6.653   6.713  0.0474 -0.1399  0.3644
 1632TIP3    H126455   0.765   6.731   6.658  1.9675  1.4071  2.3990
 1632TIP3    H226456   0.850   6.612   6.696 -0.7039 -1.5206 -0.2452
 1633TIP3   OH226457   2.541   4.447   1.236  0.3050 -0.6052  0.1627
 1633TIP3    H126458   2.459   4.472   1.279 -0.4096 -0.3180 -1.2718
 1633TIP3    H226459   2.515   4.378   1.174  0.9032  0.2537 -1.0998
 1634TIP3   OH226460   2.227   2.311   7.522  0.4180 -0.1190 -0.1005
 1634TIP3    H126461   2.142   2.303   7.565 -0.3451  0.1281 -1.5063
 1634TIP3    H226462   2.250   2.222   7.496 -0.4522  0.0870 -1.6240
 1635TIP3   OH226463   1.391   1.248   7.424  0.3997  0.5865 -0.0932
 1635TIP3    H126464   1.439   1.330   7.437  2.4854 -0.5198 -0.3966
 1635TIP3    H226465   1.299   1.272   7.438  1.0128  2.7818  0.6442
 1636TIP3   OH226466   0.058   5.538   0.661 -0.7837 -0.4251  0.3654
 1636TIP3    H126467   0.102   5.621   0.643 -0.1606 -0.5869  1.0814
 1636TIP3    H226468   0.006   5.520   0.583  0.8062 -0.4785 -0.7112
 1637TIP3   OH226469   1.842   4.112   7.645 -0.7080 -0.2984 -0.1376
 1637TIP3    H126470   1.829   4.203   7.619  1.0770  0.1926  0.5224
 1637TIP3    H226471   1.754   4.078   7.659 -1.4094  1.3397 -0.3615
 1638TIP3   OH226472   4.481   3.905   6.021 -0.3360  0.1301 -0.1843
 1638TIP3    H126473   4.528   3.899   6.104  1.3205  0.5330 -1.0632
 1638TIP3    H226474   4.388   3.907   6.046  0.0984 -0.5839  1.5925
 1639TIP3   OH226475   4.348   6.329   1.090 -0.3885 -0.0551  0.5092
 1639TIP3    H126476   4.321   6.313   1.180 -1.0045 -1.4327  0.1205
 1639TIP3    H226477   4.328   6.247   1.045 -0.9954  0.9218 -1.0850
 1640TIP3   OH226478   4.927   6.963   1.116 -0.6518  0.2143  0.6424
 1640TIP3    H126479   4.940   7.039   1.060 -0.3944 -0.8742 -0.8399
 1640TIP3    H226480   5.015   6.927   1.128 -1.0360 -1.7147 -1.4858
 1641TIP3   OH226481   5.120   4.218   7.313 -0.0768  0.3660  0.8539
 1641TIP3    H126482   5.192   4.202   7.374  1.8660 -0.2546 -1.4430
 1641TIP3    H226483   5.154   4.285   7.253 -2.1665  1.4656  0.8354
 1642TIP3   OH226484   5.900   0.923   6.223 -0.1857 -0.3842  0.0321
 1642TIP3    H126485   5.953   0.878   6.289  2.7482  2.8139  0.1140
 1642TIP3    H226486   5.927   0.885   6.140 -1.0017 -1.6821  0.3209
 1643TIP3   OH226487   2.256   5.255   6.856 -0.1165  0.3813 -0.1882
 1643TIP3    H126488   2.232   5.276   6.766 -0.8480  0.4352  0.0127
 1643TIP3    H226489   2.183   5.288   6.908  0.6436  1.0110  0.4963
 1644TIP3   OH226490   2.146   2.047   5.832  0.1191  0.0162 -0.2278
 1644TIP3    H126491   2.078   1.995   5.875 -0.6984  0.5990 -0.7706
 1644TIP3    H226492   2.115   2.137   5.840  0.7518  0.2714 -0.6163
 1645TIP3   OH226493   5.657   2.257   6.869 -0.3026  0.2170 -0.3941
 1645TIP3    H126494   5.565   2.237   6.889  0.0849 -2.4128 -0.8117
 1645TIP3    H226495   5.701   2.253   6.954 -0.2654 -0.7278 -0.4419
 1646TIP3   OH226496   1.789   5.516   7.914  0.0880  0.4096  0.4675
 1646TIP3    H126497   1.852   5.488   7.981 -0.8789 -0.3366  1.1098
 1646TIP3    H226498   1.733   5.579   7.959  0.4606  1.1876 -0.1413
 1647TIP3   OH226499   0.045   2.193   0.685 -0.1252  0.3477  0.2040
 1647TIP3    H126500   0.035   2.156   0.772 -0.1676  1.2409  0.5918
 1647TIP3    H226501   0.098   2.129   0.637 -2.7378 -1.7350 -0.1368
 1648TIP3   OH226502   1.187   1.373   7.600 -0.2546  0.6802 -0.0997
 1648TIP3    H126503   1.238   1.452   7.618 -0.1596  0.5408  0.2488
 1648TIP3    H226504   1.096   1.403   7.600 -0.3343  0.5226  1.5813
 1649TIP3   OH226505   4.133   3.119   6.697  0.5813  0.3181 -0.2897
 1649TIP3    H126506   4.210   3.119   6.754  1.2545 -0.6081 -1.1684
 1649TIP3    H226507   4.159   3.066   6.622 -0.5077  0.9952 -1.1729
 1650TIP3   OH226508   0.799   1.907   6.242 -0.0187 -0.1793 -0.7190
 1650TIP3    H126509   0.801   1.848   6.318 -0.0947 -0.5246 -0.9843
 1650TIP3    H226510   0.718   1.885   6.196  1.1388 -1.6189 -2.1933
 1651TIP3   OH226511   2.406   6.855   6.511 -0.2090  0.1497  0.0961
 1651TIP3    H126512   2.473   6.809   6.561  0.0960 -0.0064 -0.4394
 1651TIP3    H226513   2.403   6.808   6.427  1.4008  2.1416 -1.2033
 1652TIP3   OH226514   3.423   3.978   0.727  0.2905 -0.3740 -0.1308
 1652TIP3    H126515   3.455   3.925   0.654  2.0657  0.8377 -0.3027
 1652TIP3    H226516   3.503   4.008   0.771 -0.7283 -0.5153  1.9147
 1653TIP3   OH226517   5.981   6.218   1.301  0.7843  0.0188 -0.0891
 1653TIP3    H126518   5.888   6.237   1.313  0.5645 -0.7309 -0.5968
 1653TIP3    H226519   5.998   6.237   1.209  1.4910  1.5935  0.3266
 1654TIP3   OH226520   5.634   2.629   1.410  0.0987 -0.4236 -0.3435
 1654TIP3    H126521   5.644   2.721   1.384  3.4589 -0.0307  1.8532
 1654TIP3    H226522   5.708   2.584   1.370  0.2110 -1.5742  1.0752
 1655TIP3   OH226523   1.545   0.787   7.273  0.8131  0.1822  0.9597
 1655TIP3    H126524   1.521   0.839   7.350  0.5466 -0.7154  1.4899
 1655TIP3    H226525   1.569   0.853   7.208  1.6146  0.9560  1.9795
 1656TIP3   OH226526   0.867   3.588   0.260  0.0053  0.7813  0.1627
 1656TIP3    H126527   0.790   3.645   0.263 -2.0810 -1.7509 -1.2389
 1656TIP3    H226528   0.866   3.543   0.344 -1.6940 -1.1354 -0.8138
 1657TIP3   OH226529   5.407   2.638   6.217 -0.0336 -0.1262  0.3503
 1657TIP3    H126530   5.324   2.672   6.250  0.8982  0.9495  1.7262
 1657TIP3    H226531   5.395   2.543   6.214 -0.2769 -0.3471  3.7807
 1658TIP3   OH226532   0.969   2.710   1.061 -0.1151 -0.1589  1.0418
 1658TIP3    H126533   0.925   2.633   1.025 -1.7528 -0.0170  2.5737
 1658TIP3    H226534   0.897   2.765   1.093  1.0697  1.4812  1.0233
 1659TIP3   OH226535   3.773   0.054   7.995 -0.1808  0.0410 -0.1512
 1659TIP3    H126536   3.714   0.004   8.051 -1.8435  1.4298 -0.5845
 1659TIP3    H226537   3.815   0.117   8.055 -2.4637  1.9843 -0.4627
 1660TIP3   OH226538   3.624   1.936   1.447 -0.3684 -0.4238  0.0967
 1660TIP3    H126539   3.687   1.905   1.513  0.2151  1.4383  0.4730
 1660TIP3    H226540   3.610   1.860   1.390  1.5953 -1.1408  0.4854
 1661TIP3   OH226541   4.058   2.967   0.380  0.1564  0.0962 -0.0379
 1661TIP3    H126542   4.131   2.906   0.371 -0.5473 -0.6626 -0.8567
 1661TIP3    H226543   4.089   3.034   0.441  1.7750  0.1687 -0.8883
 1662TIP3   OH226544   0.659   4.386   6.813 -0.2845  0.4063  0.4241
 1662TIP3    H126545   0.605   4.317   6.851 -2.1431  0.4311 -1.9391
 1662TIP3    H226546   0.604   4.464   6.814  0.9043  1.2651  0.8576
 1663TIP3   OH226547   0.659   1.772   0.894  0.2047 -0.2237  0.6478
 1663TIP3    H126548   0.742   1.749   0.850  0.1319 -1.1498  0.9737
 1663TIP3    H226549   0.683   1.843   0.954  0.3749  0.8315 -0.6056
 1664TIP3   OH226550   5.634   5.594   6.473  0.6217 -0.1918 -0.1126
 1664TIP3    H126551   5.595   5.631   6.394 -0.4854  1.0365  0.9668
 1664TIP3    H226552   5.702   5.657   6.498 -2.1265  2.0297  2.4598
 1665TIP3   OH226553   4.243   0.281   6.758 -0.2888 -0.1488  0.2008
 1665TIP3    H126554   4.174   0.290   6.823 -1.2283 -1.3354 -0.5712
 1665TIP3    H226555   4.212   0.333   6.684  0.1564  0.1748  0.2453
 1666TIP3   OH226556   1.458   3.900   0.286 -0.1912 -0.0411 -0.5432
 1666TIP3    H126557   1.446   3.917   0.192 -0.2466 -2.4528 -1.0587
 1666TIP3    H226558   1.392   3.834   0.306 -0.7064  1.0014  1.4282
 1667TIP3   OH226559   5.249   3.182   7.060 -0.0628 -0.5127  0.4613
 1667TIP3    H126560   5.343   3.176   7.077  0.7534 -0.5989 -3.2408
 1667TIP3    H226561   5.233   3.275   7.044 -0.5505 -0.5316  0.8358
 1668TIP3   OH226562   0.196   6.683   2.024 -1.1579 -0.4308  0.9508
 1668TIP3    H126563   0.125   6.719   1.970 -0.4972  0.4841  0.6679
 1668TIP3    H226564   0.198   6.739   2.101  0.0604  0.3615  0.3776
 1669TIP3   OH226565   2.583   5.425   1.577 -0.1260 -0.5995  0.0616
 1669TIP3    H126566   2.534   5.484   1.520 -0.5355 -0.6305  0.3742
 1669TIP3    H226567   2.631   5.482   1.637  1.1409 -0.5324 -0.9658
 1670TIP3   OH226568   3.692   1.047   0.878  0.1337 -1.0775 -0.2424
 1670TIP3    H126569   3.604   1.016   0.857 -0.2418 -0.0362 -0.2926
 1670TIP3    H226570   3.683   1.087   0.965 -0.0363  1.1469 -1.2014
 1671TIP3   OH226571   3.280   1.690   0.180 -0.5887  0.7894  0.6378
 1671TIP3    H126572   3.256   1.665   0.091  0.4034 -0.6614  0.7469
 1671TIP3    H226573   3.199   1.677   0.230 -0.4088 -1.2784  0.4736
 1672TIP3   OH226574   6.762   2.111   1.076  0.1499  0.0855 -0.2607
 1672TIP3    H126575   6.810   2.038   1.037 -1.5706 -0.4608 -1.4660
 1672TIP3    H226576   6.792   2.188   1.028  1.7782  0.1838  0.8386
 1673TIP3   OH226577   2.409   4.559   1.648  0.1785  0.7451  0.1473
 1673TIP3    H126578   2.408   4.643   1.692  0.2545  0.5516  0.5195
 1673TIP3    H226579   2.473   4.506   1.697 -0.0130  0.4084  0.0405
 1674TIP3   OH226580   4.506   1.151   0.878 -0.3596  0.1588 -0.0881
 1674TIP3    H126581   4.449   1.221   0.909 -0.8102 -0.8964  1.6695
 1674TIP3    H226582   4.582   1.195   0.842 -0.7893  1.5471  0.6471
 1675TIP3   OH226583   2.462   5.620   6.641  0.0491  0.6462 -0.1642
 1675TIP3    H126584   2.434   5.704   6.606 -0.4459  0.9402  0.8897
 1675TIP3    H226585   2.455   5.560   6.567  0.8563  1.6065 -1.0519
 1676TIP3   OH226586   1.158   4.812   7.062  0.2815 -0.1187 -0.3260
 1676TIP3    H126587   1.175   4.866   6.985  1.0110 -0.0729 -0.1412
 1676TIP3    H226588   1.090   4.751   7.035 -0.9175  1.2004 -0.4027
 1677TIP3   OH226589   1.455   2.485   7.083 -0.1776 -0.0574  0.0875
 1677TIP3    H126590   1.500   2.401   7.070 -0.8951 -0.7920  2.0459
 1677TIP3    H226591   1.524   2.544   7.115  0.0365 -0.2966  0.0723
 1678TIP3   OH226592   2.695   5.819   0.735  0.2910  0.6789 -0.3923
 1678TIP3    H126593   2.624   5.872   0.772 -1.1723 -0.3405 -1.6502
 1678TIP3    H226594   2.748   5.882   0.686 -1.7161  0.9890 -2.3043
 1679TIP3   OH226595   4.937   2.530   0.358  0.3494  0.0879 -0.0889
 1679TIP3    H126596   4.990   2.527   0.279 -1.4197  0.7764 -1.3827
 1679TIP3    H226597   4.918   2.623   0.371 -0.1160 -0.0924  0.6189
 1680TIP3   OH226598   6.511   3.365   7.140 -0.7250  0.8351 -0.1895
 1680TIP3    H126599   6.468   3.431   7.086 -0.9701  0.4283 -0.5051
 1680TIP3    H226600   6.553   3.306   7.076 -0.7977  0.4982  0.0681
 1681TIP3   OH226601   5.713   4.603   0.544 -0.2474  0.0679 -0.4047
 1681TIP3    H126602   5.706   4.604   0.449  1.8957 -0.4001 -0.6220
 1681TIP3    H226603   5.706   4.510   0.567 -1.5124  0.2453 -0.0076
 1682TIP3   OH226604   1.033   6.177   6.351 -0.4676  0.2547 -1.1680
 1682TIP3    H126605   1.002   6.086   6.353 -3.2420  1.1077 -1.3766
 1682TIP3    H226606   1.071   6.192   6.438 -1.3059 -0.6768 -0.6254
 1683TIP3   OH226607   0.978   2.055   6.031  0.0970  0.6074  0.2699
 1683TIP3    H126608   0.994   2.150   6.038 -0.8287  0.7491  0.5538
 1683TIP3    H226609   1.054   2.022   5.983  1.0909  1.2977  1.3098
 1684TIP3   OH226610   3.083   3.729   0.364  0.7025 -0.0731 -0.1046
 1684TIP3    H126611   3.096   3.652   0.419  0.2192 -0.5072 -0.5905
 1684TIP3    H226612   3.169   3.743   0.324  0.5011 -1.0870 -0.9329
 1685TIP3   OH226613   6.812   0.183   0.641 -0.2478 -0.3452  0.3213
 1685TIP3    H126614   6.733   0.201   0.589 -1.4556 -0.1140  2.1295
 1685TIP3    H226615   6.841   0.269   0.671 -0.3230 -0.5594  1.0370
 1686TIP3   OH226616   2.432   1.952   6.616  0.4573  0.1723  0.5838
 1686TIP3    H126617   2.511   1.969   6.565 -1.3379 -0.8811 -2.7998
 1686TIP3    H226618   2.374   2.025   6.595 -0.0099  0.2123  1.9221
 1687TIP3   OH226619   6.506   1.034   1.002  0.1517  0.0405  0.1068
 1687TIP3    H126620   6.497   1.066   0.912 -1.1829 -0.0077  0.1967
 1687TIP3    H226621   6.527   1.112   1.053 -0.5407  0.3377 -0.0497
 1688TIP3   OH226622   0.692   2.033   5.956  0.6939  0.5303 -0.0983
 1688TIP3    H126623   0.660   2.123   5.967 -0.5987  0.2051 -0.9570
 1688TIP3    H226624   0.625   1.990   5.903  1.6543 -0.7436 -0.3360
 1689TIP3   OH226625   3.508   5.647   7.900  0.2943 -0.2609 -0.1791
 1689TIP3    H126626   3.581   5.656   7.840  0.9160  0.1664  0.6236
 1689TIP3    H226627   3.540   5.588   7.968 -0.0947 -0.0436  0.1966
 1690TIP3   OH226628   6.818   1.888   1.467  0.0199 -0.8194  0.2784
 1690TIP3    H126629   6.788   1.973   1.435 -0.7820 -1.7728 -1.6506
 1690TIP3    H226630   6.818   1.897   1.562  2.0853  2.0267  0.1296
 1691TIP3   OH226631   5.966   1.630   1.875  0.1448  0.3074 -0.0804
 1691TIP3    H126632   5.904   1.558   1.883 -1.0291  1.2551 -0.4031
 1691TIP3    H226633   6.049   1.588   1.852  0.0965 -1.1606  2.0602
 1692TIP3   OH226634   6.418   4.854   8.016 -0.3180  0.4597 -0.0880
 1692TIP3    H126635   6.406   4.766   7.978  1.0908  0.9262 -1.7593
 1692TIP3    H226636   6.461   4.838   8.100  0.3285 -0.4547 -0.5692
 1693TIP3   OH226637   1.718   3.058   1.181  0.1886  0.4613 -0.0890
 1693TIP3    H126638   1.678   3.140   1.210  0.6346  1.5055 -2.1855
 1693TIP3    H226639   1.811   3.069   1.199  0.1855  0.1874  0.1037
 1694TIP3   OH226640   5.106   4.143   0.169 -0.2792 -0.2359  0.8273
 1694TIP3    H126641   5.151   4.062   0.192  0.5981 -0.0172 -0.0561
 1694TIP3    H226642   5.045   4.118   0.099  0.7927  0.0471 -0.2396
 1695TIP3   OH226643   5.506   2.022   7.864 -0.0560 -0.2683  0.1319
 1695TIP3    H126644   5.566   1.984   7.928 -3.1657 -1.5287  2.5599
 1695TIP3    H226645   5.472   2.101   7.906 -0.7071 -0.0300 -0.8085
 1696TIP3   OH226646   4.221   4.255   5.407  0.3898  0.2635 -0.2934
 1696TIP3    H126647   4.298   4.200   5.423 -0.7756 -1.8746 -1.4559
 1696TIP3    H226648   4.226   4.276   5.313 -0.7815 -0.5438 -0.5598
 1697TIP3   OH226649   3.511   3.766   5.623 -0.2280 -0.0175 -1.0087
 1697TIP3    H126650   3.461   3.698   5.668  0.1408  0.6519  0.4908
 1697TIP3    H226651   3.602   3.741   5.636 -0.0381  1.2908  0.5394
 1698TIP3   OH226652   3.101   2.631   1.709  0.3255  0.1996 -0.1654
 1698TIP3    H126653   3.147   2.709   1.677 -0.5718  1.3419  1.2070
 1698TIP3    H226654   3.010   2.644   1.680  0.1351 -0.2540  0.2233
 1699TIP3   OH226655   2.484   3.966   1.566 -0.2698 -0.3661 -0.4294
 1699TIP3    H126656   2.463   4.037   1.507  0.1284 -0.8411 -1.1532
 1699TIP3    H226657   2.510   4.009   1.648 -1.7129  0.2751 -0.2819
 1700TIP3   OH226658   5.956   3.092   1.532 -0.1448  0.8958  0.4861
 1700TIP3    H126659   6.003   3.134   1.604 -2.3700  3.1630  0.7898
 1700TIP3    H226660   5.870   3.072   1.569 -0.2488 -0.9490 -0.6653
 1701TIP3   OH226661   2.826   3.416   0.316 -0.7075  0.2995 -0.1756
 1701TIP3    H126662   2.753   3.355   0.326 -0.9229  0.8458  2.2093
 1701TIP3    H226663   2.903   3.368   0.346 -0.7608  0.9181  1.0262
 1702TIP3   OH226664   5.496   0.937   7.557  0.1259 -0.1670  0.2795
 1702TIP3    H126665   5.576   0.893   7.530 -0.2754  0.5424 -2.4681
 1702TIP3    H226666   5.459   0.882   7.625  1.7916 -1.7330 -0.0171
 1703TIP3   OH226667   0.301   0.061   0.396  0.5279  0.0228  0.1079
 1703TIP3    H126668   0.247  -0.019   0.394  0.8326 -0.1612 -1.7614
 1703TIP3    H226669   0.263   0.118   0.330  1.9665  0.3160 -0.5082
 1704TIP3   OH226670   1.367   0.109   1.629 -0.4466 -0.2442  0.5003
 1704TIP3    H126671   1.286   0.090   1.583 -0.6650  1.8921 -0.1003
 1704TIP3    H226672   1.436   0.090   1.566 -0.3490 -2.7233  1.2310
 1705TIP3   OH226673   5.210   3.896   0.268 -0.2824 -0.4769 -0.2621
 1705TIP3    H126674   5.219   3.808   0.305 -1.0426  0.3889  2.2512
 1705TIP3    H226675   5.261   3.952   0.327 -2.9327  1.2508  0.5571
 1706TIP3   OH226676   1.175   0.728   1.203  0.2297  0.3231  0.2627
 1706TIP3    H126677   1.237   0.671   1.157 -0.1929  0.1745 -0.1353
 1706TIP3    H226678   1.126   0.669   1.259 -1.5947 -0.0773 -1.6312
 1707TIP3   OH226679   1.487   3.101   7.526  0.3956  0.0201  0.9725
 1707TIP3    H126680   1.551   3.171   7.533  0.2994  0.1530  0.5728
 1707TIP3    H226681   1.433   3.109   7.605  0.1560  0.6269  0.7522
 1708TIP3   OH226682   0.212   1.332   0.971 -0.1415 -0.2687 -0.1514
 1708TIP3    H126683   0.152   1.320   0.898 -0.2296 -1.1379  0.0539
 1708TIP3    H226684   0.266   1.252   0.972  0.7611  0.3265 -0.1007
 1709TIP3   OH226685   0.405   2.018   0.620 -0.3540 -0.5123 -0.0381
 1709TIP3    H126686   0.414   2.078   0.694  0.1236 -2.4054  1.5259
 1709TIP3    H226687   0.357   2.068   0.555 -0.6604  1.2976  1.4765
 1710TIP3   OH226688   7.063   3.363   6.547  0.6580 -0.3005  0.1334
 1710TIP3    H126689   7.101   3.391   6.463  1.0900 -0.7377  0.1792
 1710TIP3    H226690   7.114   3.286   6.572  0.8586  0.1149  1.0432
 1711TIP3   OH226691   4.150   2.161   1.031 -0.4565 -0.3198  0.3396
 1711TIP3    H126692   4.107   2.140   0.948  1.6264 -0.3493 -0.8043
 1711TIP3    H226693   4.206   2.086   1.048  1.5237  1.0042  0.0609
 1712TIP3   OH226694   6.277   2.676   6.082  0.1226  0.1864 -0.5976
 1712TIP3    H126695   6.296   2.630   6.000 -1.1654 -0.0402 -0.7940
 1712TIP3    H226696   6.190   2.645   6.107 -0.1716  1.4457  0.0225
 1713TIP3   OH226697   5.015   2.446   6.389 -0.0011  0.1863  0.9317
 1713TIP3    H126698   4.949   2.419   6.324 -1.4691  0.6453  2.1838
 1713TIP3    H226699   5.098   2.431   6.345 -0.9459  0.9353 -1.2596
 1714TIP3   OH226700   1.844   0.608   6.980  0.5240  0.4678 -0.0280
 1714TIP3    H126701   1.887   0.577   7.060  2.0589 -0.9861 -1.3223
 1714TIP3    H226702   1.908   0.668   6.941  0.7056 -0.4726 -1.2005
 1715TIP3   OH226703   1.051   1.146   7.246 -0.4263 -0.1591  0.0452
 1715TIP3    H126704   0.997   1.147   7.167  1.8935 -0.0718 -1.6404
 1715TIP3    H226705   1.073   1.054   7.259 -1.0834 -0.2183  0.8447
 1716TIP3   OH226706   1.606   0.665   6.838  0.0713  0.6037  0.3036
 1716TIP3    H126707   1.684   0.654   6.893  0.0741 -1.3456 -0.0056
 1716TIP3    H226708   1.635   0.637   6.750 -0.0585  3.2053 -0.6461
 1717TIP3   OH226709   1.701   2.255   7.934 -0.3137  0.6169  0.4134
 1717TIP3    H126710   1.770   2.255   8.001  0.2296 -1.5185 -0.0831
 1717TIP3    H226711   1.620   2.267   7.983  0.1649  0.2419  1.3333
 1718TIP3   OH226712   5.267   6.728   6.816 -0.6961  0.2786  0.4602
 1718TIP3    H126713   5.346   6.782   6.806 -0.3772  0.0010  1.3324
 1718TIP3    H226714   5.250   6.728   6.910 -0.4049 -1.5119  0.5500
 1719TIP3   OH226715   5.478   0.679   7.101 -0.4749 -0.3673  0.6102
 1719TIP3    H126716   5.457   0.773   7.105  0.9001 -0.0457  0.8526
 1719TIP3    H226717   5.468   0.648   7.191  2.4089  0.3672  1.2874
 1720TIP3   OH226718   6.265   6.954   0.267 -0.0416  0.2481  0.5725
 1720TIP3    H126719   6.267   7.050   0.261  0.4368  0.1825 -0.5396
 1720TIP3    H226720   6.240   6.936   0.358 -0.9750  1.4188  0.5698
 1721TIP3   OH226721   4.901   3.782   0.396  0.4759 -0.9132  0.7886
 1721TIP3    H126722   4.992   3.771   0.423  1.3718  0.7103 -1.2530
 1721TIP3    H226723   4.872   3.860   0.443  1.3392  0.6200 -1.0477
 1722TIP3   OH226724   1.978   2.226   6.083 -0.1832 -0.1892 -0.1508
 1722TIP3    H126725   1.948   2.303   6.132 -2.6774 -1.0339 -0.2085
 1722TIP3    H226726   2.023   2.262   6.007 -1.7506  1.2736 -0.4478
 1723TIP3   OH226727   0.479   6.655   6.614  0.2349 -0.5287  0.1075
 1723TIP3    H126728   0.424   6.638   6.537 -0.1050 -0.5921  0.3623
 1723TIP3    H226729   0.511   6.744   6.600 -1.1650  0.0887  0.6923
 1724TIP3   OH226730   2.259   2.903   1.016 -0.0831 -0.7609 -0.2816
 1724TIP3    H126731   2.271   2.953   1.096 -0.6670 -0.0387 -0.6384
 1724TIP3    H226732   2.345   2.903   0.974 -0.2520  0.6594 -0.6806
 1725TIP3   OH226733   3.360   5.054   5.995 -0.3189 -0.1449 -0.1884
 1725TIP3    H126734   3.363   4.983   5.931 -0.9124  0.5922 -1.0673
 1725TIP3    H226735   3.435   5.109   5.974  0.5041 -0.8228  0.8906
 1726TIP3   OH226736   4.737   3.710   6.564 -0.7888 -0.4117 -0.0097
 1726TIP3    H126737   4.709   3.705   6.655  0.4115 -0.4392  0.3847
 1726TIP3    H226738   4.663   3.675   6.514 -1.2617 -0.9059  0.9966
 1727TIP3   OH226739   2.853   2.103   0.588  0.4307  0.1516  0.5054
 1727TIP3    H126740   2.936   2.056   0.574  0.5325  0.7749 -1.2615
 1727TIP3    H226741   2.879   2.187   0.625  0.6624  0.5820 -0.6063
 1728TIP3   OH226742   2.776   6.073   0.659 -0.4151 -0.5282  0.3113
 1728TIP3    H126743   2.701   6.129   0.640 -0.7343 -1.3255 -0.8995
 1728TIP3    H226744   2.843   6.134   0.690 -1.6667  0.1465  1.8465
 1729TIP3   OH226745   0.453   4.384   7.775 -0.4445  1.2050 -0.8024
 1729TIP3    H126746   0.397   4.306   7.769  0.8128 -0.0933  2.2600
 1729TIP3    H226747   0.393   4.455   7.797 -1.1110  0.0314  1.4508
 1730TIP3   OH226748   6.644   0.588   6.522 -0.1422  0.5535  1.3848
 1730TIP3    H126749   6.703   0.662   6.504  0.6107 -0.6773 -1.8463
 1730TIP3    H226750   6.559   0.617   6.488  0.3775 -0.3202 -0.8209
 1731TIP3   OH226751   4.377   3.272   0.476  0.4238 -0.5118 -0.2753
 1731TIP3    H126752   4.347   3.242   0.562 -1.4031  0.2387 -0.6174
 1731TIP3    H226753   4.350   3.203   0.416  0.8913 -0.6020 -0.3889
 1732TIP3   OH226754   6.370   1.678   6.462  0.2746  0.1432 -0.3890
 1732TIP3    H126755   6.316   1.719   6.395  1.1133  1.2437 -0.4230
 1732TIP3    H226756   6.362   1.584   6.445 -2.3258  0.1960  0.1813
 1733TIP3   OH226757   1.101   2.309   1.343  0.2602 -0.5420  0.5477
 1733TIP3    H126758   1.082   2.330   1.434  2.6440  0.2204  0.9281
 1733TIP3    H226759   1.067   2.384   1.293  1.4049  0.3776  1.1112
 1734TIP3   OH226760   1.785   6.335   7.959  0.7231 -0.1331  0.6740
 1734TIP3    H126761   1.729   6.371   8.029  1.0838  0.6025  0.5912
 1734TIP3    H226762   1.830   6.411   7.923  2.3176 -0.8010  1.1995
 1735TIP3   OH226763   2.544   0.478   0.544 -0.9150 -0.2499 -0.0040
 1735TIP3    H126764   2.553   0.385   0.521  0.4288  0.1337 -1.1840
 1735TIP3    H226765   2.578   0.525   0.468  2.2813  1.1581  2.0941
 1736TIP3   OH226766   1.075   2.312   0.270 -0.3450  0.6364  0.2389
 1736TIP3    H126767   1.094   2.274   0.185 -1.3895 -2.2397  1.1625
 1736TIP3    H226768   0.983   2.293   0.285 -0.2294  1.2308  1.9508
 1737TIP3   OH226769   6.800   0.889   1.093 -0.7454 -0.9240  0.0042
 1737TIP3    H126770   6.890   0.912   1.069 -1.7747 -0.3398 -3.9056
 1737TIP3    H226771   6.804   0.794   1.108  0.6794 -0.7353  1.0643
 1738TIP3   OH226772   5.980   5.518   6.914  0.6002 -0.1693 -0.3997
 1738TIP3    H126773   5.957   5.433   6.952 -0.5008  0.4117  0.2604
 1738TIP3    H226774   6.059   5.544   6.961  0.0489 -0.1109  0.5143
 1739TIP3   OH226775   3.126   5.699   1.960 -0.3077  0.6596  0.1518
 1739TIP3    H126776   3.220   5.682   1.972 -0.3994  0.3895  0.5038
 1739TIP3    H226777   3.109   5.681   1.868 -0.1767 -0.0587  0.2673
 1740TIP3   OH226778   1.201   3.950   0.133  0.0718 -0.1664 -0.5597
 1740TIP3    H126779   1.256   3.989   0.202  3.1805 -0.6852 -2.5607
 1740TIP3    H226780   1.131   3.906   0.181  0.3519  1.9676  2.0914
 1741TIP3   OH226781   6.996   0.015   0.571 -0.0954 -0.9566  0.7290
 1741TIP3    H126782   6.932   0.084   0.588 -1.0924 -0.8267 -2.6415
 1741TIP3    H226783   7.081   0.056   0.588 -0.7582  0.1187  1.6222
 1742TIP3   OH226784   3.998   4.929   7.840  0.3569  0.4759 -0.1575
 1742TIP3    H126785   3.958   4.994   7.783  0.8886 -0.5908 -1.7990
 1742TIP3    H226786   4.087   4.918   7.806  0.1296 -1.4563 -0.2244
 1743TIP3   OH226787   3.022   1.021   0.883  0.1750  0.5705  0.0379
 1743TIP3    H126788   2.971   1.088   0.837  1.2736  0.5224 -1.3128
 1743TIP3    H226789   2.985   0.938   0.852 -0.0025  0.5403  0.3279
 1744TIP3   OH226790   4.344   5.643   1.285  0.1349 -0.0797  0.1811
 1744TIP3    H126791   4.369   5.694   1.207  0.9781 -2.0503 -0.9048
 1744TIP3    H226792   4.249   5.658   1.293  0.2531  1.1771 -0.4315
 1745TIP3   OH226793   4.784   3.271   0.311 -0.4216  0.0721 -0.1205
 1745TIP3    H126794   4.719   3.216   0.355  1.0727 -1.3290  0.4562
 1745TIP3    H226795   4.747   3.359   0.313 -1.7987 -0.4985  1.1617
 1746TIP3   OH226796   6.718   4.414   7.745  0.3905  0.6493  0.3160
 1746TIP3    H126797   6.642   4.357   7.756 -0.0588  1.0278 -0.6432
 1746TIP3    H226798   6.783   4.381   7.807 -0.0458 -0.5727  0.1508
 1747TIP3   OH226799   4.576   2.968   7.597  0.1890 -0.2231 -0.0467
 1747TIP3    H126800   4.519   3.044   7.590  1.4925  0.7331 -0.7000
 1747TIP3    H226801   4.624   2.981   7.679  0.1543 -0.5292  0.0248
 1748TIP3   OH226802   6.765   6.915   0.156  0.3110 -0.0544  0.1899
 1748TIP3    H126803   6.683   6.895   0.202  0.1402  1.1652  0.4555
 1748TIP3    H226804   6.832   6.906   0.223  0.5137 -1.8049 -0.2069
 1749TIP3   OH226805   3.530   4.478   8.035  0.3722 -0.2474 -0.0511
 1749TIP3    H126806   3.470   4.534   7.987  0.2557 -1.0588 -0.8996
 1749TIP3    H226807   3.588   4.538   8.081 -1.1322  0.5591  0.8799
 1750TIP3   OH226808   1.855   6.910   6.351  0.5613 -0.5620 -0.0395
 1750TIP3    H126809   1.801   6.916   6.430 -0.6449  0.8638 -0.9156
 1750TIP3    H226810   1.904   6.992   6.348 -0.6500  0.1625 -1.5936
 1751TIP3   OH226811   1.390   5.758   0.535  0.3857 -0.5889 -0.0775
 1751TIP3    H126812   1.465   5.748   0.477 -0.1152 -0.0289 -0.8285
 1751TIP3    H226813   1.427   5.789   0.618  1.1080 -1.4590 -0.0682
 1752TIP3   OH226814   1.714   3.477   5.941  0.3903  0.2074 -0.7220
 1752TIP3    H126815   1.788   3.531   5.912  0.0677  0.8974 -0.2971
 1752TIP3    H226816   1.748   3.388   5.941  1.4281  0.5881  0.1253
 1753TIP3   OH226817   5.834   2.378   5.665  0.0735 -0.0150  0.0975
 1753TIP3    H126818   5.887   2.337   5.597  0.6313  2.3693 -0.9955
 1753TIP3    H226819   5.855   2.471   5.659 -2.1957  0.6591  1.4745
 1754TIP3   OH226820   6.291   2.724   5.673  0.4275 -0.1150  0.1651
 1754TIP3    H126821   6.317   2.654   5.733 -0.5340 -0.6513 -0.0152
 1754TIP3    H226822   6.263   2.678   5.594  0.4784  0.5221 -0.2327
 1755TIP3   OH226823   5.774   1.518   5.927  0.8070  0.0994  0.1385
 1755TIP3    H126824   5.796   1.474   5.845 -0.2603  2.7093 -1.6869
 1755TIP3    H226825   5.851   1.573   5.946  0.3631  0.8099 -0.0909
 1756TIP3   OH226826   6.916   2.154   7.028  0.0834  0.0546  0.0859
 1756TIP3    H126827   6.821   2.147   7.044  0.3094  1.4178  2.4891
 1756TIP3    H226828   6.955   2.091   7.088  0.7929  2.3846  2.2896
 1757TIP3   OH226829   4.810   0.655   1.058 -0.4348  0.0604  0.0127
 1757TIP3    H126830   4.846   0.616   1.137  0.5360 -0.8700 -0.8556
 1757TIP3    H226831   4.865   0.622   0.987  1.1335  3.8427 -0.7490
 1758TIP3   OH226832   1.631   6.550   1.619  0.3005  0.7599 -0.1643
 1758TIP3    H126833   1.710   6.502   1.644 -0.2708 -0.1056 -0.0021
 1758TIP3    H226834   1.588   6.571   1.702 -0.9183 -0.9697 -0.3081
 1759TIP3   OH226835   3.523   6.767   2.160  0.9910  0.3455  0.3510
 1759TIP3    H126836   3.611   6.803   2.176  1.6984 -1.6748  1.5204
 1759TIP3    H226837   3.526   6.680   2.201 -0.9522 -0.5582 -1.2602
 1760TIP3   OH226838   4.743   3.586   6.167  0.3247 -0.3429  0.6654
 1760TIP3    H126839   4.827   3.586   6.122 -0.4218  2.8282 -1.0767
 1760TIP3    H226840   4.680   3.556   6.102 -0.1681 -0.6757  1.2768
 1761TIP3   OH226841   6.527   0.308   0.897  0.4792  0.3299 -0.3952
 1761TIP3    H126842   6.477   0.367   0.842 -0.2892  0.4621  0.4319
 1761TIP3    H226843   6.470   0.233   0.911  1.4632 -0.6712 -1.4833
 1762TIP3   OH226844   1.180   6.865   6.492 -0.3511  0.1165  0.2376
 1762TIP3    H126845   1.106   6.839   6.438  0.2177  0.9093 -0.9595
 1762TIP3    H226846   1.175   6.808   6.569 -1.1929 -1.0282 -0.6326
 1763TIP3   OH226847   5.705   6.211   2.446  0.2154  0.1357 -0.2201
 1763TIP3    H126848   5.648   6.242   2.375 -1.2305  0.8604  1.2024
 1763TIP3    H226849   5.669   6.125   2.469 -1.1006  1.0598  1.4267
 1764TIP3   OH226850   6.995   0.597   0.849  0.1297 -0.0483 -0.1343
 1764TIP3    H126851   7.076   0.645   0.866 -0.1660  0.5095 -0.2863
 1764TIP3    H226852   6.953   0.589   0.934  0.8783 -1.3381  0.1420
 1765TIP3   OH226853   6.015   5.892   1.342  0.4033  0.0291 -0.3146
 1765TIP3    H126854   5.971   5.931   1.267 -0.8799  0.2981  0.5433
 1765TIP3    H226855   5.945   5.871   1.404  1.4400  0.1685  0.9798
 1766TIP3   OH226856   3.955   5.125   0.298 -0.8232  0.3992  0.2105
 1766TIP3    H126857   3.923   5.215   0.296  0.0013  0.6958 -0.2670
 1766TIP3    H226858   3.920   5.085   0.219 -0.8633  0.4195  0.2183
 1767TIP3   OH226859   7.025   0.082   1.491 -0.0605  0.2496  0.5270
 1767TIP3    H126860   6.955   0.041   1.440 -1.0039  2.5324 -0.1250
 1767TIP3    H226861   7.077   0.008   1.524 -0.1158 -1.3965 -2.6847
 1768TIP3   OH226862   0.033   3.748   6.153  0.2840 -0.4637 -0.0258
 1768TIP3    H126863  -0.022   3.697   6.093 -0.4097 -1.3970  1.3565
 1768TIP3    H226864  -0.002   3.837   6.148 -0.0334 -0.6160 -0.6714
 1769TIP3   OH226865   1.663   2.003   1.538 -0.2061 -0.3002  0.3783
 1769TIP3    H126866   1.742   2.050   1.512 -0.0346 -0.1627  1.1052
 1769TIP3    H226867   1.605   2.008   1.463  0.4526 -0.3414 -0.1413
 1770TIP3   OH226868   6.916   1.242   6.436 -0.2531 -0.0467 -0.1588
 1770TIP3    H126869   7.005   1.213   6.453 -0.0149  0.6663 -0.1518
 1770TIP3    H226870   6.910   1.328   6.477 -0.6896  0.2637 -0.8472
 1771TIP3   OH226871   2.665   2.653   7.121 -0.2506 -0.5965  0.9361
 1771TIP3    H126872   2.719   2.731   7.108 -2.1098  0.6696  0.4361
 1771TIP3    H226873   2.613   2.672   7.198 -2.9357  0.0822 -0.8872
 1772TIP3   OH226874   5.173   1.445   6.116 -0.1203 -0.0569  0.4508
 1772TIP3    H126875   5.164   1.527   6.164  0.0134 -1.1851  2.4900
 1772TIP3    H226876   5.112   1.454   6.043 -0.2305  1.7749  0.7250
 1773TIP3   OH226877   0.795   6.581   7.547  0.0524 -0.0541 -0.1191
 1773TIP3    H126878   0.748   6.545   7.622  2.4870 -0.2118  1.4302
 1773TIP3    H226879   0.830   6.504   7.502 -1.7688  0.0120 -1.7461
 1774TIP3   OH226880   4.768   7.059   1.622  0.7003  1.0557 -0.5292
 1774TIP3    H126881   4.787   7.110   1.701  3.4035 -0.1084 -0.3188
 1774TIP3    H226882   4.818   7.103   1.553  0.0533  0.8231 -1.1582
 1775TIP3   OH226883   7.074   0.679   1.835  0.6109 -0.0812 -0.0631
 1775TIP3    H126884   7.013   0.733   1.785  0.9443  0.1566 -0.2181
 1775TIP3    H226885   7.101   0.610   1.774 -1.0182 -1.3738  0.6119
 1776TIP3   OH226886   0.892   2.846   0.378  0.0266  0.1364 -0.2118
 1776TIP3    H126887   0.823   2.837   0.312 -1.2385  0.3877  1.0097
 1776TIP3    H226888   0.873   2.930   0.420  0.1921 -0.4535  1.0972
 1777TIP3   OH226889   5.994   0.257   0.899 -0.2883  0.1442 -0.7224
 1777TIP3    H126890   5.942   0.337   0.891 -1.2016 -0.5393 -1.8492
 1777TIP3    H226891   6.030   0.243   0.811 -0.6185 -1.0052 -0.6827
 1778TIP3   OH226892   4.699   6.245   7.560  0.5969  0.4753 -0.0785
 1778TIP3    H126893   4.758   6.257   7.635  0.0254 -1.0993  0.6462
 1778TIP3    H226894   4.736   6.171   7.512  0.5184  0.9843 -0.9517
 1779TIP3   OH226895   2.196   4.564   6.381 -0.0847  0.0165  0.0929
 1779TIP3    H126896   2.115   4.536   6.423  0.3759 -0.0393  0.9715
 1779TIP3    H226897   2.169   4.593   6.294 -1.0426  0.0004  0.3720
 1780TIP3   OH226898   5.798   3.959   7.786 -0.2707 -0.0678  0.2156
 1780TIP3    H126899   5.889   3.975   7.761  0.7763  0.4182  3.7392
 1780TIP3    H226900   5.749   4.028   7.743  0.9828 -0.3227 -1.7429
 1781TIP3   OH226901   2.935   4.176   5.953 -0.6318  0.1800  0.3607
 1781TIP3    H126902   2.845   4.207   5.948 -0.8717 -0.7110 -1.7090
 1781TIP3    H226903   2.949   4.128   5.872  1.6200  0.0123  0.7753
 1782TIP3   OH226904   4.819   2.781   0.193  0.5272  0.2891 -0.2724
 1782TIP3    H126905   4.843   2.708   0.137  0.2141 -0.1987  0.2092
 1782TIP3    H226906   4.897   2.836   0.198  0.9220 -0.2697 -0.2522
 1783TIP3   OH226907   1.239   5.442   7.148 -0.2416 -0.4193  0.1632
 1783TIP3    H126908   1.324   5.413   7.116  0.4150  2.7430 -1.3105
 1783TIP3    H226909   1.187   5.454   7.068 -1.3718 -0.2799  0.9005
 1784TIP3   OH226910   6.034   3.372   2.059 -0.0454 -0.1555 -0.2061
 1784TIP3    H126911   6.100   3.331   2.003 -1.1209 -0.3115 -1.4068
 1784TIP3    H226912   6.077   3.450   2.094  1.0708 -0.7607 -0.1915
 1785TIP3   OH226913   4.058   2.408   0.133 -0.2949  0.4978 -0.2085
 1785TIP3    H126914   4.057   2.328   0.186 -0.1217  0.7757  0.2179
 1785TIP3    H226915   4.025   2.380   0.048  1.3068 -0.3791 -0.5703
 1786TIP3   OH226916   3.597   1.495   7.049  0.5788  0.3230 -0.0284
 1786TIP3    H126917   3.577   1.563   6.984  4.0389  2.4677  0.8918
 1786TIP3    H226918   3.623   1.544   7.127  1.8155 -2.0955  1.1736
 1787TIP3   OH226919   4.760   3.970   0.786 -0.1506 -0.3107  0.0470
 1787TIP3    H126920   4.680   3.940   0.830  0.0873 -0.9794  0.0428
 1787TIP3    H226921   4.743   3.960   0.693 -0.1003 -0.3604  0.0426
 1788TIP3   OH226922   4.331   3.924   6.647  0.1357 -0.0322  0.5006
 1788TIP3    H126923   4.368   3.972   6.721 -1.1174  1.0611  0.4651
 1788TIP3    H226924   4.358   3.974   6.570 -0.4283  0.1187  0.3954
 1789TIP3   OH226925   3.804   2.203   7.109  0.2233  0.2688  0.4142
 1789TIP3    H126926   3.735   2.186   7.045  1.2996  0.9120 -0.9606
 1789TIP3    H226927   3.848   2.118   7.120  1.3182  0.5680 -1.2952
 1790TIP3   OH226928   6.918   5.770   2.082 -0.4245 -0.2074 -0.4441
 1790TIP3    H126929   7.006   5.732   2.084 -0.8908 -1.3951 -1.4408
 1790TIP3    H226930   6.859   5.695   2.087 -1.3807  0.4696 -1.0939
 1791TIP3   OH226931   0.369   0.228   7.860  0.2150 -0.1612 -0.0269
 1791TIP3    H126932   0.284   0.242   7.818  0.6575  0.7647 -0.6716
 1791TIP3    H226933   0.361   0.143   7.903 -1.2625  0.2239  0.5239
 1792TIP3   OH226934   3.694   6.263   0.107  0.0580  0.5132 -0.3437
 1792TIP3    H126935   3.627   6.305   0.054  0.9388  0.1200 -1.8404
 1792TIP3    H226936   3.775   6.276   0.057  1.4077  2.3083  2.1153
 1793TIP3   OH226937   5.440   0.146   0.817  0.0896 -0.3505 -0.0317
 1793TIP3    H126938   5.497   0.221   0.837  0.1777 -0.7480  1.3199
 1793TIP3    H226939   5.355   0.185   0.800 -0.1773  0.0213  1.9263
 1794TIP3   OH226940   0.410   2.001   0.301  0.3438  0.4838 -0.3242
 1794TIP3    H126941   0.318   2.018   0.282  0.4383  2.6031  0.8204
 1794TIP3    H226942   0.412   1.910   0.330 -1.4085  0.4314 -0.2637
 1795TIP3   OH226943   6.612   2.467   0.795 -0.4661 -0.4654  0.1778
 1795TIP3    H126944   6.576   2.381   0.773 -1.0541 -0.8614  2.3892
 1795TIP3    H226945   6.538   2.527   0.790  0.0864  0.1112 -2.0607
 1796TIP3   OH226946   3.700   3.980   0.762  0.5558  0.0632 -0.3077
 1796TIP3    H126947   3.758   3.948   0.693  0.5604  0.4462 -0.4819
 1796TIP3    H226948   3.727   4.070   0.777  0.7190 -0.0926  0.3742
 1797TIP3   OH226949   5.963   0.457   6.528 -0.2873  0.0933 -0.4791
 1797TIP3    H126950   5.920   0.377   6.558 -0.1716  0.0948 -0.3048
 1797TIP3    H226951   6.002   0.433   6.444 -1.5930  0.4169 -1.1934
 1798TIP3   OH226952   3.199   1.621   0.886 -0.4958  0.0593  0.4875
 1798TIP3    H126953   3.239   1.585   0.807  0.2395 -1.2502  1.4149
 1798TIP3    H226954   3.155   1.701   0.857  0.3751 -0.0067 -1.0929
 1799TIP3   OH226955   6.475   2.668   0.962 -0.3423 -0.3625  0.0559
 1799TIP3    H126956   6.410   2.701   1.023  0.4117  1.3372 -0.0220
 1799TIP3    H226957   6.436   2.680   0.876  0.3600  1.4752 -0.0512
 1800TIP3   OH226958   4.293   1.331   7.386  0.7321 -0.0074  0.0899
 1800TIP3    H126959   4.364   1.382   7.348  0.0353  1.6746  0.9469
 1800TIP3    H226960   4.223   1.333   7.320  0.2486  1.2304  0.6255
 1801TIP3   OH226961   6.601   6.916   1.244 -0.1101 -0.3017 -0.1423
 1801TIP3    H126962   6.637   6.834   1.212 -0.6554 -0.9061  0.7814
 1801TIP3    H226963   6.546   6.947   1.171  0.6015 -0.4068 -0.7426
 1802TIP3   OH226964   1.678   0.861   1.486  0.5449  0.6905  0.6502
 1802TIP3    H126965   1.627   0.822   1.557 -1.2051  1.4985 -0.0914
 1802TIP3    H226966   1.717   0.786   1.441 -0.5744 -0.0288  0.8346
 1803TIP3   OH226967   2.546   2.217   7.571  0.3794 -0.0559  0.2857
 1803TIP3    H126968   2.636   2.218   7.539  0.7471 -0.3369  1.2705
 1803TIP3    H226969   2.536   2.300   7.618 -0.6137  1.0223 -1.6961
 1804TIP3   OH226970   3.570   5.519   0.103  0.7411  0.3695 -0.1610
 1804TIP3    H126971   3.513   5.479   0.168  1.1975  0.6916  0.4451
 1804TIP3    H226972   3.582   5.609   0.134  1.6902  0.2633 -0.2076
 1805TIP3   OH226973   2.540   2.913   0.999 -0.1412  0.6102 -0.3976
 1805TIP3    H126974   2.632   2.926   0.975 -0.4086  0.0862 -1.8179
 1805TIP3    H226975   2.533   2.818   1.013 -0.4262  0.6693 -0.1375
 1806TIP3   OH226976   1.475   3.179   2.046 -0.5768 -0.1474  0.2712
 1806TIP3    H126977   1.387   3.171   2.082  0.0132  0.3515  1.8897
 1806TIP3    H226978   1.481   3.269   2.014 -0.8473 -0.3689 -0.4295
 1807TIP3   OH226979   6.045   4.858   7.919 -0.1345  1.0077 -0.0002
 1807TIP3    H126980   5.965   4.908   7.902 -1.9245 -1.6248  0.1413
 1807TIP3    H226981   6.061   4.808   7.839  1.4674  1.5212 -0.0509
 1808TIP3   OH226982   6.953   0.017   1.051 -0.2140  0.1435  0.6783
 1808TIP3    H126983   6.920  -0.033   1.126 -0.2611 -2.0156 -0.7004
 1808TIP3    H226984   6.879   0.022   0.991 -0.0346  1.4437  0.5408
 1809TIP3   OH226985   4.214   3.102   7.536 -0.1730  0.1713  0.7476
 1809TIP3    H126986   4.158   3.179   7.546  0.1989  0.5111  0.2932
 1809TIP3    H226987   4.301   3.138   7.516  0.1007 -0.3579  0.9659
 1810TIP3   OH226988   3.549   0.424   7.548  0.2831 -0.2662 -0.6536
 1810TIP3    H126989   3.588   0.337   7.555  0.1218 -0.4645 -2.0433
 1810TIP3    H226990   3.495   0.420   7.469  0.7748  1.2858 -1.0944
 1811TIP3   OH226991   6.876   3.779   1.142 -0.0651  0.2717 -0.5954
 1811TIP3    H126992   6.784   3.767   1.164  0.1484 -0.4798 -0.1167
 1811TIP3    H226993   6.884   3.744   1.053 -0.2824  0.5517 -0.7290
 1812TIP3   OH226994   1.856   7.144   6.960 -0.8279  0.1992  0.3174
 1812TIP3    H126995   1.833   7.053   6.943 -0.0925  0.4331 -2.5842
 1812TIP3    H226996   1.952   7.146   6.951 -0.9110  1.3670 -0.6002
 1813TIP3   OH226997   0.941   6.356   0.501  0.1241 -0.1257 -0.3907
 1813TIP3    H126998   0.869   6.397   0.454 -0.9920  0.8341  1.9696
 1813TIP3    H226999   0.933   6.390   0.591  1.4619 -2.6156  0.7696
 1814TIP3   OH227000   1.368   2.065   7.652 -0.2533 -0.4329  0.3119
 1814TIP3    H127001   1.460   2.056   7.677 -0.1865  0.0854  0.2619
 1814TIP3    H227002   1.334   2.133   7.710 -0.4528 -0.2069 -0.0650
 1815TIP3   OH227003   6.331   3.497   6.352 -0.5150  0.1995 -0.3411
 1815TIP3    H127004   6.289   3.576   6.318 -0.8580  0.0725 -0.2142
 1815TIP3    H227005   6.277   3.425   6.320  0.4136 -0.0606 -1.3801
 1816TIP3   OH227006   5.229   6.081   7.268 -0.2817 -0.1002  0.4474
 1816TIP3    H127007   5.243   6.000   7.317 -0.9198  0.0857  0.9650
 1816TIP3    H227008   5.268   6.065   7.183  0.8874 -0.4248  1.0196
 1817TIP3   OH227009   3.484   3.711   0.529 -0.6720 -0.3625  0.2885
 1817TIP3    H127010   3.561   3.658   0.507 -1.9531 -2.3412  0.3405
 1817TIP3    H227011   3.461   3.754   0.447  0.3974  0.1473  0.2397
 1818TIP3   OH227012   0.647   5.978   6.415  0.0220 -0.0532 -0.4183
 1818TIP3    H127013   0.575   5.974   6.353 -0.2084 -0.2276 -0.1455
 1818TIP3    H227014   0.617   6.037   6.484 -0.1711 -0.7165  0.0779
 1819TIP3   OH227015   2.389   5.183   7.771 -0.5163 -0.1091 -0.3069
 1819TIP3    H127016   2.301   5.158   7.744  0.1463 -1.1932 -1.5662
 1819TIP3    H227017   2.435   5.202   7.689  0.1335  1.5244  0.3813
 1820TIP3   OH227018   2.149   6.574   1.813  0.1225 -0.0062 -0.7172
 1820TIP3    H127019   2.116   6.521   1.886 -2.0947  2.1712  0.0189
 1820TIP3    H227020   2.202   6.642   1.854  0.3382  0.2008 -1.3193
 1821TIP3   OH227021   0.154   5.976   1.329  0.2313  0.3717  0.0256
 1821TIP3    H127022   0.246   5.949   1.332  0.2339  0.4475  1.5808
 1821TIP3    H227023   0.107   5.899   1.298  0.3873 -1.1083  3.0759
 1822TIP3   OH227024   6.884   1.811   6.931 -0.3667  0.4919  0.5611
 1822TIP3    H127025   6.855   1.783   6.844  0.8354  0.3792  0.1833
 1822TIP3    H227026   6.949   1.746   6.957  0.7195  1.5829  0.6858
 1823TIP3   OH227027   0.344   2.181   6.752  0.2394 -1.0082  0.1047
 1823TIP3    H127028   0.302   2.111   6.802 -0.9627 -0.2378  0.2027
 1823TIP3    H227029   0.325   2.260   6.801 -0.6576 -0.2721 -1.3671
 1824TIP3   OH227030   6.491   0.042   0.066 -0.9011 -0.0403 -0.0532
 1824TIP3    H127031   6.438   0.035  -0.013 -0.0977  0.0049 -0.5937
 1824TIP3    H227032   6.426   0.039   0.137 -1.7401  1.2252 -0.7241
 1825TIP3   OH227033   5.740   6.536   7.426  0.3764 -0.2792 -0.1967
 1825TIP3    H127034   5.763   6.588   7.502 -1.8040 -0.3099  0.5607
 1825TIP3    H227035   5.721   6.449   7.462  1.0714 -0.7961 -1.0418
 1826TIP3   OH227036   1.978   4.577   0.629 -0.2328  1.1050 -0.1587
 1826TIP3    H127037   2.062   4.593   0.585 -1.3990  1.8977 -2.2323
 1826TIP3    H227038   1.926   4.655   0.610 -1.8028  0.1774  0.1732
 1827TIP3   OH227039   6.912   1.996   0.592 -0.6177 -0.3309 -0.1928
 1827TIP3    H127040   6.892   1.967   0.503  0.2906 -1.5686 -0.0182
 1827TIP3    H227041   6.883   2.087   0.595  0.1963  0.0338 -2.0606
 1828TIP3   OH227042   4.331   1.361   2.112 -0.4874 -0.2687  0.1596
 1828TIP3    H127043   4.324   1.418   2.189 -1.0071  1.0882 -0.8579
 1828TIP3    H227044   4.270   1.290   2.130 -2.0468  1.0308  0.1948
 1829TIP3   OH227045   4.276   4.119   7.038 -0.1046 -0.2884  0.2738
 1829TIP3    H127046   4.232   4.158   7.114  0.4293  0.8570  0.0182
 1829TIP3    H227047   4.272   4.187   6.971  2.4910  0.0887  0.3892
 1830TIP3   OH227048   2.867   6.325   6.075  0.3039  0.2715 -0.3989
 1830TIP3    H127049   2.797   6.350   6.015  0.2645  0.5822 -0.2228
 1830TIP3    H227050   2.830   6.338   6.162  0.1034 -0.8737 -0.2914
 1831TIP3   OH227051   6.562   5.048   5.977  0.6718 -0.1508  0.1875
 1831TIP3    H127052   6.496   4.980   5.991 -0.0048  0.7380  1.5612
 1831TIP3    H227053   6.546   5.111   6.047  0.7953  1.8176 -1.4708
 1832TIP3   OH227054   1.362   4.692   6.159  0.7490  0.3761  0.2325
 1832TIP3    H127055   1.452   4.694   6.193  0.6325  0.4216  0.5395
 1832TIP3    H227056   1.367   4.636   6.082  1.0422  0.3810  0.2460
 1833TIP3   OH227057   5.295   1.918   6.680  0.2211 -0.0294  0.0635
 1833TIP3    H127058   5.353   1.905   6.605  0.5805 -1.0596  0.5059
 1833TIP3    H227059   5.298   2.012   6.696  1.5652 -0.0201 -0.1036
 1834TIP3   OH227060   5.093   1.064   0.166  0.3180  0.0509  0.1978
 1834TIP3    H127061   5.072   1.000   0.233  1.0455 -0.5098 -0.1001
 1834TIP3    H227062   5.147   1.016   0.103 -0.0205  0.6685 -0.5837
 1835TIP3   OH227063   3.666   4.784   6.970 -0.1387 -0.2463  0.1905
 1835TIP3    H127064   3.685   4.726   6.896  1.0041 -0.8901  0.9620
 1835TIP3    H227065   3.604   4.735   7.024  1.3889 -1.1453  1.2288
 1836TIP3   OH227066   4.814   5.955   0.219  0.0172  0.1493  0.3822
 1836TIP3    H127067   4.797   5.903   0.297 -1.4679 -1.5189 -0.9834
 1836TIP3    H227068   4.807   5.893   0.146  1.6987  1.5593 -1.0926
 1837TIP3   OH227069   4.551   3.053   6.728 -0.2567 -0.0863  0.4984
 1837TIP3    H127070   4.500   2.975   6.704  0.0031 -0.6588  1.7086
 1837TIP3    H227071   4.618   3.020   6.788  0.8965  0.8280 -0.2470
 1838TIP3   OH227072   6.660   0.479   6.785 -0.2135 -0.2454  0.1329
 1838TIP3    H127073   6.643   0.531   6.707 -1.7012  0.3714  0.8184
 1838TIP3    H227074   6.656   0.388   6.756 -0.9803 -0.0239 -0.4791
 1839TIP3   OH227075   5.835   5.641   1.173  0.3417  0.2022 -0.6946
 1839TIP3    H127076   5.791   5.581   1.234  1.4454 -0.5509 -0.6094
 1839TIP3    H227077   5.839   5.724   1.220  0.3375 -0.1198 -0.1083
 1840TIP3   OH227078   3.348   5.341   0.196  0.3605 -0.4338 -0.2450
 1840TIP3    H127079   3.344   5.389   0.279  1.4514  0.8248 -0.8918
 1840TIP3    H227080   3.413   5.272   0.212  0.8977  0.0830 -0.1798
 1841TIP3   OH227081   4.444   1.966   7.339 -0.2269  0.0902 -0.1809
 1841TIP3    H127082   4.359   2.003   7.364 -0.0903 -0.1926  0.7526
 1841TIP3    H227083   4.507   2.016   7.391  0.2759  0.9117 -1.5358
 1842TIP3   OH227084   3.195   3.264   7.502 -0.5789  0.2216  0.0258
 1842TIP3    H127085   3.212   3.194   7.564 -0.3718 -2.1796 -2.5327
 1842TIP3    H227086   3.099   3.271   7.500 -0.5921  0.1846  0.4624
 1843TIP3   OH227087   3.466   1.301   6.508  0.2474  0.1029 -0.2194
 1843TIP3    H127088   3.431   1.294   6.419  0.6283 -2.2981 -0.2519
 1843TIP3    H227089   3.554   1.335   6.496  1.1802 -2.3579 -1.0858
 1844TIP3   OH227090   1.290   4.721   0.138 -0.1627  0.3721  0.6733
 1844TIP3    H127091   1.238   4.796   0.165 -2.0559 -1.0661  1.2510
 1844TIP3    H227092   1.302   4.670   0.219 -0.5666 -0.8730 -0.0180
 1845TIP3   OH227093   0.756   0.538   1.326  0.2432  0.1741 -0.1314
 1845TIP3    H127094   0.674   0.538   1.376 -1.0080  0.7496 -2.0707
 1845TIP3    H227095   0.789   0.628   1.334 -0.1110  0.3447 -0.5752
 1846TIP3   OH227096   0.728   2.707   6.629  0.1668  0.1033  0.2240
 1846TIP3    H127097   0.729   2.796   6.665 -1.3709 -0.4454  1.7150
 1846TIP3    H227098   0.821   2.687   6.614  0.5079  2.4444 -1.5305
 1847TIP3   OH227099   1.013   2.554   7.097 -0.2624 -0.3737 -0.2434
 1847TIP3    H127100   0.922   2.581   7.102  0.9170  4.1034  1.5679
 1847TIP3    H227101   1.051   2.609   7.029  1.8430  1.1015  1.9432
 1848TIP3   OH227102   1.783   5.573   6.631  0.3413 -0.0848 -0.2865
 1848TIP3    H127103   1.863   5.533   6.595 -0.2387 -0.6048 -1.0397
 1848TIP3    H227104   1.713   5.540   6.574 -0.5717 -0.6603  1.1337
 1849TIP3   OH227105   5.180   3.599   6.362  0.2261  0.3422  0.0571
 1849TIP3    H127106   5.177   3.531   6.430 -1.4522 -0.1419 -0.4651
 1849TIP3    H227107   5.101   3.651   6.377  0.4805  0.9840 -0.7729
 1850TIP3   OH227108   2.831   1.941   0.069 -0.1312  0.4901  0.3390
 1850TIP3    H127109   2.871   1.905   0.149  0.8842  1.5238  0.3317
 1850TIP3    H227110   2.774   2.011   0.101 -1.3412 -0.4606  0.2900
 1851TIP3   OH227111   3.168   1.021   1.688  0.7238  0.4246  0.0583
 1851TIP3    H127112   3.073   1.035   1.679  0.5968 -0.1204  0.4830
 1851TIP3    H227113   3.185   0.942   1.636  1.0612  0.9193 -0.5769
 1852TIP3   OH227114   0.252   4.392   6.397  0.9929  0.0491 -0.1457
 1852TIP3    H127115   0.269   4.337   6.473  0.7405 -0.9888 -0.8247
 1852TIP3    H227116   0.333   4.388   6.345  1.9203  2.3241  0.9621
 1853TIP3   OH227117   2.656   4.082   1.315 -0.7006  0.6020 -0.3886
 1853TIP3    H127118   2.689   4.016   1.376 -0.3969  0.2755 -0.9043
 1853TIP3    H227119   2.570   4.106   1.350 -0.7984 -0.0442 -0.1755
 1854TIP3   OH227120   3.565   4.644   6.548  0.5257 -0.7850  0.2566
 1854TIP3    H127121   3.504   4.718   6.540  0.5187 -0.6573  1.3262
 1854TIP3    H227122   3.519   4.581   6.604  1.0083 -1.0852  0.3207
 1855TIP3   OH227123   2.012   0.780   6.857 -0.2678 -0.0188 -0.3533
 1855TIP3    H127124   2.011   0.872   6.882  1.0859 -0.0140 -0.2335
 1855TIP3    H227125   2.105   0.756   6.857 -0.4069 -0.8080 -2.4880
 1856TIP3   OH227126   0.495   1.774   6.924  0.0096  0.6620 -0.6246
 1856TIP3    H127127   0.561   1.843   6.927  0.8632 -0.1376 -0.6557
 1856TIP3    H227128   0.432   1.798   6.992  0.8901  0.8880  0.1259
 1857TIP3   OH227129   4.317   0.541   7.458  0.0870  0.1942  0.6324
 1857TIP3    H127130   4.395   0.488   7.442  0.2965  0.7274 -0.1705
 1857TIP3    H227131   4.298   0.582   7.373 -2.4723 -1.7741  0.1153
 1858TIP3   OH227132   1.941   3.088   6.449 -0.5567  0.1231 -0.2217
 1858TIP3    H127133   1.967   3.179   6.440 -1.8432  0.6773  1.1283
 1858TIP3    H227134   1.845   3.090   6.448 -0.6161 -1.1690  0.1451
 1859TIP3   OH227135   2.751   1.174   6.406 -0.0371  1.0056 -0.4514
 1859TIP3    H127136   2.754   1.208   6.495  4.2375  1.5048 -0.5733
 1859TIP3    H227137   2.738   1.080   6.416 -0.4854  1.1663  0.6045
 1860TIP3   OH227138   0.103   4.765   6.634 -0.2002  0.4741 -0.6388
 1860TIP3    H127139   0.021   4.773   6.682  0.1533  0.8498 -0.0879
 1860TIP3    H227140   0.160   4.715   6.692 -0.3410 -0.6378 -1.4227
 1861TIP3   OH227141   1.364   2.798   1.149 -0.1851 -0.2269 -0.0328
 1861TIP3    H127142   1.421   2.831   1.219 -1.8704  0.3581  1.1279
 1861TIP3    H227143   1.394   2.709   1.133  0.7286 -0.1012  0.8836
 1862TIP3   OH227144   5.886   2.730   0.112 -0.3067  0.5552  0.1122
 1862TIP3    H127145   5.811   2.752   0.167  0.4105 -1.1039  1.8649
 1862TIP3    H227146   5.848   2.693   0.033 -1.3422  2.2412 -0.2330
 1863TIP3   OH227147   6.113   4.232   5.490 -0.6699  0.5543  0.1973
 1863TIP3    H127148   6.043   4.293   5.513  0.3219  1.6605  0.3791
 1863TIP3    H227149   6.113   4.167   5.560 -2.2011 -0.0893 -0.3656
 1864TIP3   OH227150   5.072   6.144   0.650 -0.1064 -0.5561  0.2267
 1864TIP3    H127151   5.042   6.121   0.737 -0.0048  0.3329  0.5050
 1864TIP3    H227152   4.992   6.165   0.601 -0.2560 -2.1163 -0.2257
 1865TIP3   OH227153   1.303   5.476   1.674  0.4431 -0.0040 -0.1401
 1865TIP3    H127154   1.369   5.526   1.625  0.9763 -2.9124 -2.6876
 1865TIP3    H227155   1.353   5.413   1.725 -0.3209 -0.4035  0.1325
 1866TIP3   OH227156   7.143   5.906   6.211 -0.1879  0.1355 -0.2047
 1866TIP3    H127157   7.155   5.812   6.228  0.0766  0.0526 -0.8075
 1866TIP3    H227158   7.178   5.949   6.289 -1.1648 -0.2890  0.4891
 1867TIP3   OH227159   3.767   5.670   6.809  0.2712  0.0084 -0.3829
 1867TIP3    H127160   3.769   5.762   6.836  0.6681  0.4826 -1.9206
 1867TIP3    H227161   3.688   5.663   6.756  0.7463 -0.2968 -1.0633
 1868TIP3   OH227162   3.857   6.066   0.614  0.3170  0.1903 -0.2260
 1868TIP3    H127163   3.868   5.996   0.679  0.9191 -0.2941 -0.8280
 1868TIP3    H227164   3.939   6.115   0.617  0.1642  0.4518 -0.2923
 1869TIP3   OH227165   4.712   2.537   6.921 -0.1173 -0.0050 -0.2973
 1869TIP3    H127166   4.638   2.484   6.950 -0.0828 -0.6533 -1.3265
 1869TIP3    H227167   4.789   2.482   6.937  0.0459  0.2676 -0.1438
 1870TIP3   OH227168   6.732   3.619   0.960 -0.2705  0.0762  0.4443
 1870TIP3    H127169   6.746   3.530   0.928 -0.6081 -0.4868  1.8006
 1870TIP3    H227170   6.637   3.633   0.953 -0.1616  0.5414 -0.2563
 1871TIP3   OH227171   0.379   1.763   1.204 -0.3022  0.4670  0.7965
 1871TIP3    H127172   0.459   1.711   1.196 -0.2461  0.2194  2.4786
 1871TIP3    H227173   0.411   1.852   1.221 -0.3410  1.6672 -3.9515
 1872TIP3   OH227174   5.518   5.200   8.032 -0.5454 -0.0932  0.0526
 1872TIP3    H127175   5.548   5.249   7.955  2.8062  1.6581  2.1989
 1872TIP3    H227176   5.471   5.264   8.085 -1.3979 -0.8407  0.2213
 1873TIP3   OH227177   2.843   0.316   0.684  0.2116 -0.3319 -0.0507
 1873TIP3    H127178   2.830   0.316   0.589  0.0581  1.3128 -0.0534
 1873TIP3    H227179   2.933   0.286   0.696 -0.1857 -1.8221 -0.6231
 1874TIP3   OH227180   6.289   0.289   6.523  0.4368  0.7146  0.1704
 1874TIP3    H127181   6.330   0.374   6.506 -0.2613  1.3106  1.3629
 1874TIP3    H227182   6.215   0.309   6.579  0.8436 -0.7946  1.3189
 1875TIP3   OH227183   1.079   2.587   1.260 -0.2494  0.3449 -0.3431
 1875TIP3    H127184   1.058   2.648   1.189 -0.3358 -2.0638 -2.5545
 1875TIP3    H227185   1.173   2.599   1.273  0.2095 -0.5284 -2.3663
 1876TIP3   OH227186   4.746   4.009   6.465  0.0125  0.2654 -0.1853
 1876TIP3    H127187   4.695   4.060   6.528  0.8788  1.1678 -0.1717
 1876TIP3    H227188   4.812   3.964   6.519 -0.8054 -0.9630 -0.1903
 1877TIP3   OH227189   4.688   2.029   7.194 -0.0323  0.2407  0.3100
 1877TIP3    H127190   4.758   1.987   7.244  0.5904  0.3032 -0.4777
 1877TIP3    H227191   4.645   2.088   7.257  0.9233  0.5477  0.6999
 1878TIP3   OH227192   1.953   2.153   6.957  0.3908 -0.5751 -0.5762
 1878TIP3    H127193   2.013   2.196   6.896  1.5668 -1.2024  0.1058
 1878TIP3    H227194   1.965   2.200   7.040  0.0792 -0.8336 -0.3812
 1879TIP3   OH227195   1.840   2.681   6.960 -0.8138  0.0399 -0.7879
 1879TIP3    H127196   1.790   2.649   7.035  1.3784 -0.8458  0.3936
 1879TIP3    H227197   1.804   2.768   6.943 -0.4839  0.9112  2.2520
 1880TIP3   OH227198   6.464   4.951   6.260  0.7045  0.0728 -0.1532
 1880TIP3    H127199   6.528   5.014   6.227  2.5833 -0.7320  1.6864
 1880TIP3    H227200   6.421   4.917   6.181  1.7619  1.4431 -1.3827
 1881TIP3   OH227201   6.317   5.072   6.747 -0.0397  0.4084  0.2923
 1881TIP3    H127202   6.256   5.031   6.809  0.1732 -0.5696 -0.1360
 1881TIP3    H227203   6.291   5.037   6.662  0.2497  1.0569 -0.0690
 1882TIP3   OH227204   2.165   3.898   0.854  0.1426 -0.6935 -0.2559
 1882TIP3    H127205   2.171   3.991   0.833  0.2888 -0.4322  0.8702
 1882TIP3    H227206   2.082   3.890   0.902 -1.3698 -1.6792 -2.8424
 1883TIP3   OH227207   1.028   6.821   6.755  0.3935 -0.0704  0.0312
 1883TIP3    H127208   1.041   6.908   6.717  1.1632 -0.8041 -1.4358
 1883TIP3    H227209   1.018   6.763   6.680  1.2667 -1.4667  0.9496
 1884TIP3   OH227210   4.057   2.608   1.297  0.0784 -0.2658 -0.2185
 1884TIP3    H127211   4.120   2.593   1.367  0.6443 -0.3180 -0.7285
 1884TIP3    H227212   4.103   2.581   1.217 -0.3887  0.2312 -0.6657
 1885TIP3   OH227213   0.187   5.454   6.523 -0.5485  0.5111 -0.7248
 1885TIP3    H127214   0.221   5.532   6.480  1.8696 -0.7430 -1.2887
 1885TIP3    H227215   0.228   5.454   6.609 -3.1582  1.5272  0.6214
 1886TIP3   OH227216   3.608   6.221   6.969 -0.1233  0.4286  0.1594
 1886TIP3    H127217   3.537   6.161   6.992 -1.2631  1.1581 -1.2775
 1886TIP3    H227218   3.573   6.308   6.989  1.9651  0.7023  3.4527
 1887TIP3   OH227219   7.087   3.587   1.018  0.1311 -0.3385 -0.3850
 1887TIP3    H127220   7.182   3.599   1.012  0.2385 -0.3017  1.0902
 1887TIP3    H227221   7.066   3.606   1.110 -0.9081 -3.0868  0.0149
 1888TIP3   OH227222   3.803   4.609   6.757  0.2045  0.6407 -0.3038
 1888TIP3    H127223   3.758   4.648   6.682 -2.3397  0.3335  0.9514
 1888TIP3    H227224   3.894   4.639   6.749  0.6071 -1.1012 -4.5921
 1889TIP3   OH227225   2.534   2.771   0.537 -0.8890  0.3817 -0.7054
 1889TIP3    H127226   2.628   2.785   0.537 -0.7456 -0.1277 -3.0590
 1889TIP3    H227227   2.517   2.715   0.612  0.4486  1.5800  0.5562
 1890TIP3   OH227228   1.830   0.057   0.383  0.0476  0.2658  0.3137
 1890TIP3    H127229   1.856   0.073   0.293  2.4681  1.8801  1.2209
 1890TIP3    H227230   1.894  -0.007   0.415 -0.5151  0.0437  1.0116
 1891TIP3   OH227231   2.920   5.058   6.942  0.3205  0.2865  0.4126
 1891TIP3    H127232   2.977   5.117   6.892  0.2161 -0.9003 -1.2026
 1891TIP3    H227233   2.901   5.106   7.023  0.8601  2.1239 -0.4843
 1892TIP3   OH227234   0.070   5.721   6.929 -0.1289 -0.5695 -0.4080
 1892TIP3    H127235   0.009   5.768   6.873  0.0058 -0.4064 -0.4168
 1892TIP3    H227236   0.155   5.761   6.912 -0.0205 -0.7853 -0.3835
 1893TIP3   OH227237   1.184   6.000   7.513  0.2073  0.1671 -0.4178
 1893TIP3    H127238   1.182   6.079   7.567 -2.3876  0.9976 -1.5857
 1893TIP3    H227239   1.212   6.030   7.427  1.1079 -0.5624 -0.3967
 1894TIP3   OH227240   6.938   6.408   1.010  0.1191  0.2585  0.3615
 1894TIP3    H127241   6.966   6.343   1.074  0.6228 -0.3940 -0.5100
 1894TIP3    H227242   7.002   6.479   1.018  0.5817 -0.1240  0.1196
 1895TIP3   OH227243   2.356   6.343   1.815 -0.5484 -0.3829  0.2853
 1895TIP3    H127244   2.424   6.366   1.752 -0.8976  1.5071  0.5628
 1895TIP3    H227245   2.294   6.416   1.813 -0.3450 -0.0142  3.1370
 1896TIP3   OH227246   0.463   3.423   6.524 -0.2258  0.4315  0.2926
 1896TIP3    H127247   0.452   3.459   6.612  0.3896 -1.0248  0.9925
 1896TIP3    H227248   0.374   3.421   6.488 -0.8679 -1.2947  1.8455
 1897TIP3   OH227249   3.718   0.457   0.070  0.4664  0.2554  0.5979
 1897TIP3    H127250   3.760   0.428  -0.012  0.2498 -0.6384  0.7951
 1897TIP3    H227251   3.788   0.502   0.117  0.5687  0.8794 -0.1237
 1898TIP3   OH227252   6.452   5.025   2.450 -0.6126 -0.2303 -0.4931
 1898TIP3    H127253   6.357   5.018   2.438 -0.6389 -1.3821  0.2086
 1898TIP3    H227254   6.483   4.934   2.446  0.3092  0.0210  0.4536
 1899TIP3   OH227255   5.943   2.029   1.876  0.1415 -0.4118  0.1905
 1899TIP3    H127256   6.022   1.977   1.886  0.0195 -0.4699  0.8940
 1899TIP3    H227257   5.893   2.014   1.956  0.9290  2.1924  1.2732
 1900TIP3   OH227258   2.387   3.362   6.859  0.1057 -0.4664 -0.6835
 1900TIP3    H127259   2.378   3.288   6.799  0.4080 -2.0802  1.1331
 1900TIP3    H227260   2.310   3.356   6.916  1.4136 -1.0811  1.1551
 1901TIP3   OH227261   6.803   5.483   1.878  0.0512 -0.1253  0.0192
 1901TIP3    H127262   6.797   5.389   1.864  0.5436 -0.2920  0.9017
 1901TIP3    H227263   6.897   5.501   1.880 -0.0044  0.1166  1.5450
 1902TIP3   OH227264   3.455   1.702   6.930 -0.2200 -0.2654 -0.2096
 1902TIP3    H127265   3.400   1.701   7.009 -0.0083 -1.0502 -0.0669
 1902TIP3    H227266   3.398   1.668   6.861 -0.9179  1.8523 -0.7751
 1903TIP3   OH227267   7.092   3.119   5.765 -0.7131  0.2471 -0.4219
 1903TIP3    H127268   7.030   3.050   5.790  0.7663 -1.2313 -0.6728
 1903TIP3    H227269   7.051   3.163   5.690 -1.6587 -0.3791 -0.2832
 1904TIP3   OH227270   5.031   1.147   7.643  0.5997 -0.2180  0.5015
 1904TIP3    H127271   5.034   1.192   7.727 -0.7445  0.5027  0.1896
 1904TIP3    H227272   4.985   1.065   7.661 -2.1477  1.1249  0.0118
 1905TIP3   OH227273   4.804   1.187   0.191  0.0101  0.1764  0.4374
 1905TIP3    H127274   4.896   1.170   0.212 -0.1639 -1.0662  0.2817
 1905TIP3    H227275   4.797   1.169   0.098 -0.3290  0.5590  0.3896
 1906TIP3   OH227276   2.689   0.684   7.119 -0.1331 -0.5636 -0.0783
 1906TIP3    H127277   2.640   0.606   7.091 -0.3165 -0.6042  0.3444
 1906TIP3    H227278   2.781   0.660   7.106 -0.1645 -1.0653  0.5778
 1907TIP3   OH227279   2.111   5.794   6.507  0.0611 -0.0076 -0.9189
 1907TIP3    H127280   2.048   5.866   6.496 -1.4848 -1.0558  0.6428
 1907TIP3    H227281   2.076   5.723   6.452  0.9974  0.0335 -1.6005
 1908TIP3   OH227282   3.720   5.596   1.833  0.1475  0.1243 -0.0781
 1908TIP3    H127283   3.813   5.593   1.854  0.0345  0.1871  0.4464
 1908TIP3    H227284   3.694   5.685   1.855 -0.5296 -0.5281  1.9638
 1909TIP3   OH227285   2.972   5.658   7.343  0.0671 -0.1606 -0.0686
 1909TIP3    H127286   2.932   5.597   7.282 -0.8764 -0.5056  0.8583
 1909TIP3    H227287   2.972   5.612   7.427 -0.4545  0.9931  0.6006
 1910TIP3   OH227288   2.655   6.640   5.833  0.4006  0.0991 -1.1586
 1910TIP3    H127289   2.722   6.646   5.765  0.2416 -0.9025 -1.4162
 1910TIP3    H227290   2.572   6.649   5.786  0.3041 -0.1592 -1.0367
 1911TIP3   OH227291   6.764   4.532   1.630 -0.5669 -0.3518 -0.4170
 1911TIP3    H127292   6.767   4.462   1.694  0.0863 -0.9004 -1.0352
 1911TIP3    H227293   6.757   4.488   1.545 -1.2518  0.3564 -0.7438
 1912TIP3   OH227294   1.088   1.938   0.771 -0.1177  0.2796 -0.2498
 1912TIP3    H127295   1.128   1.994   0.838  1.0246  0.3376 -0.9413
 1912TIP3    H227296   1.065   1.999   0.700 -3.6760  0.6241  1.0271
 1913TIP3   OH227297   0.173   2.733   1.081 -0.3463 -0.0672 -0.0236
 1913TIP3    H127298   0.269   2.728   1.078 -0.2800  1.3409 -0.8876
 1913TIP3    H227299   0.155   2.799   1.148 -0.7888 -1.5602  1.3845
 1914TIP3   OH227300   6.264   0.248   1.831  0.5802 -0.0550  0.0862
 1914TIP3    H127301   6.234   0.323   1.882 -0.0868 -0.8087  0.8152
 1914TIP3    H227302   6.296   0.287   1.749  1.2184  1.1134  0.8702
 1915TIP3   OH227303   3.288   3.862   6.974  0.2068  0.3056 -0.2860
 1915TIP3    H127304   3.370   3.835   7.015  0.5716  0.0451 -1.1606
 1915TIP3    H227305   3.270   3.948   7.010 -0.1692 -0.4403  1.3963
 1916TIP3   OH227306   1.154   4.979   7.294  0.2371 -0.5283  0.2639
 1916TIP3    H127307   1.117   4.923   7.226 -0.5677  0.0260  0.2224
 1916TIP3    H227308   1.129   4.936   7.376 -1.1241  0.1878  0.2524
 1917TIP3   OH227309   1.193   4.076   7.501 -0.0059  0.4289  0.6596
 1917TIP3    H127310   1.174   4.106   7.412  2.7377  2.8132  0.7356
 1917TIP3    H227311   1.150   4.140   7.558  1.5558  1.3273  0.9028
 1918TIP3   OH227312   3.423   6.130   7.606 -0.2158 -0.0007  0.0389
 1918TIP3    H127313   3.402   6.200   7.668  1.8624 -0.6806  1.6263
 1918TIP3    H227314   3.441   6.054   7.661  1.3875 -0.7331 -1.3901
 1919TIP3   OH227315   7.022   3.558   6.017  0.0204 -0.9147 -0.6724
 1919TIP3    H127316   6.958   3.598   5.958  1.6787  1.2374 -1.1491
 1919TIP3    H227317   7.072   3.499   5.961  0.8467  0.2602 -1.2154
 1920TIP3   OH227318   6.453   1.179   0.330 -0.0651  0.7486 -0.0766
 1920TIP3    H127319   6.539   1.171   0.371 -0.5712  0.2647  0.9222
 1920TIP3    H227320   6.407   1.099   0.354 -0.4602  0.5542 -1.4291
 1921TIP3   OH227321   6.402   3.776   7.679 -0.1563  0.2610  0.3965
 1921TIP3    H127322   6.365   3.834   7.612 -1.1006  1.1279  1.6016
 1921TIP3    H227323   6.342   3.701   7.681  1.0043 -0.7553 -1.0868
 1922TIP3   OH227324   0.738   2.987   7.504 -0.2490 -0.7417 -0.4178
 1922TIP3    H127325   0.660   2.932   7.500  0.7453 -2.2392  0.3871
 1922TIP3    H227326   0.743   3.016   7.595  1.3357 -2.4834  0.0905
 1923TIP3   OH227327   2.135   6.432   0.253  0.4778 -0.4899  0.3052
 1923TIP3    H127328   2.210   6.475   0.213  0.1088  0.5502  0.7177
 1923TIP3    H227329   2.140   6.342   0.220 -0.0565  0.3875 -2.4812
 1924TIP3   OH227330   2.781   4.572   6.222  0.6816 -0.1355  0.7328
 1924TIP3    H127331   2.795   4.639   6.155  2.4103  0.4412  1.6016
 1924TIP3    H227332   2.703   4.525   6.194  0.8006  0.7267 -1.1481
 1925TIP3   OH227333   6.535   2.367   1.054  0.0903 -0.0410 -0.3888
 1925TIP3    H127334   6.610   2.351   0.996 -0.4491 -0.1456 -1.0610
 1925TIP3    H227335   6.464   2.316   1.016 -0.0459 -0.8170  0.8737
 1926TIP3   OH227336   5.796   6.848   0.193  0.6150  0.2383  0.4236
 1926TIP3    H127337   5.813   6.858   0.099  0.8589  0.0120  0.4412
 1926TIP3    H227338   5.702   6.833   0.199  0.6200  0.1061  0.2015
 1927TIP3   OH227339   1.081   1.013   1.210  1.0019 -0.2378 -0.1898
 1927TIP3    H127340   1.119   0.938   1.165  1.8287  0.8183 -1.3467
 1927TIP3    H227341   0.989   0.991   1.222  1.1592 -1.2857 -0.8324
 1928TIP3   OH227342   4.208   3.740   1.270 -0.4047 -0.5804  0.0186
 1928TIP3    H127343   4.199   3.735   1.365 -0.6983 -1.5378 -0.0481
 1928TIP3    H227344   4.155   3.816   1.245  0.3636  0.2003  0.6890
 1929TIP3   OH227345   0.511   2.815   1.036 -0.4593  0.2223 -0.3200
 1929TIP3    H127346   0.568   2.741   1.056 -1.9301 -0.8197  0.2454
 1929TIP3    H227347   0.544   2.849   0.953 -0.0549 -1.4096 -0.8680
 1930TIP3   OH227348   3.437   1.081   1.805 -0.2284  0.1248  0.4109
 1930TIP3    H127349   3.351   1.040   1.803 -0.8145  1.2819 -1.8845
 1930TIP3    H227350   3.419   1.173   1.823  0.5185  0.3641 -0.0252
 1931TIP3   OH227351   5.739   3.181   7.641  0.0467  0.1314 -0.1343
 1931TIP3    H127352   5.691   3.112   7.596 -1.4857 -0.0870  1.7011
 1931TIP3    H227353   5.702   3.183   7.729  1.6287  1.7725  0.5729
 1932TIP3   OH227354   2.086   2.346   6.834  0.1690  0.6326 -0.0563
 1932TIP3    H127355   2.075   2.418   6.897  0.9832  1.2919 -0.6486
 1932TIP3    H227356   2.136   2.385   6.762 -0.2961 -0.2537 -0.8755
 1933TIP3   OH227357   4.468   1.821   0.159  0.1754 -0.3735 -1.1758
 1933TIP3    H127358   4.387   1.835   0.209  0.9862  0.8424 -0.1493
 1933TIP3    H227359   4.454   1.737   0.115 -0.5227 -1.6394  1.2588
 1934TIP3   OH227360   4.133   5.731   7.032 -0.6219 -0.0612  0.3145
 1934TIP3    H127361   4.178   5.775   7.104 -0.3975  2.6251 -1.3253
 1934TIP3    H227362   4.135   5.794   6.960 -0.4347 -2.7659 -2.2491
 1935TIP3   OH227363   5.072   2.242   6.745 -0.4166 -0.3164  0.5659
 1935TIP3    H127364   5.144   2.205   6.796  0.8209 -0.0748 -0.9298
 1935TIP3    H227365   5.111   2.314   6.696 -2.0419  0.8413  0.8893
 1936TIP3   OH227366   6.146   6.392   6.645  0.4316 -0.1854 -0.2105
 1936TIP3    H127367   6.080   6.392   6.575 -1.0637  0.6771  1.1400
 1936TIP3    H227368   6.229   6.386   6.598 -0.3740  2.4950 -2.2766
 1937TIP3   OH227369   1.042   5.319   6.368  0.6324  0.7347  0.0325
 1937TIP3    H127370   1.113   5.311   6.432  0.7511  0.1432 -0.1698
 1937TIP3    H227371   1.085   5.318   6.283  0.4111  0.6825 -0.0805
 1938TIP3   OH227372   6.491   1.093   5.739  0.9992  0.7961  0.0909
 1938TIP3    H127373   6.431   1.105   5.665 -1.3094 -1.2520  1.4885
 1938TIP3    H227374   6.495   1.179   5.781 -0.3469  1.1883 -0.5177
 1939TIP3   OH227375   5.257   0.685   0.179 -0.4666 -0.0059 -0.7594
 1939TIP3    H127376   5.269   0.633   0.099 -0.5545 -2.1920  0.5402
 1939TIP3    H227377   5.345   0.710   0.205 -0.4541  0.9327 -1.6356
 1940TIP3   OH227378   3.201   6.122   1.405  0.3819 -0.6892 -0.6080
 1940TIP3    H127379   3.171   6.196   1.351 -1.6883 -1.2478 -0.2818
 1940TIP3    H227380   3.163   6.045   1.363 -0.3266 -1.2359  0.9974
 1941TIP3   OH227381   2.313   3.884   0.035  0.0283 -0.0945  0.1654
 1941TIP3    H127382   2.389   3.924  -0.008  0.3199  0.7375  1.4029
 1941TIP3    H227383   2.268   3.837  -0.035  2.1351 -1.3235 -0.4514
 1942TIP3   OH227384   5.736   4.607   1.981  0.1404 -0.0479  0.3282
 1942TIP3    H127385   5.683   4.626   2.059  2.3341  0.0559  1.8768
 1942TIP3    H227386   5.816   4.657   1.994  0.6510 -0.1813 -1.9487
 1943TIP3   OH227387   1.514   4.968   7.264 -0.0823  0.1650  0.9011
 1943TIP3    H127388   1.485   5.058   7.254 -2.5824 -0.7594 -1.5174
 1943TIP3    H227389   1.603   4.967   7.227 -0.8087  1.2945 -1.0352
 1944TIP3   OH227390   6.888   3.102   7.848 -0.0343 -0.3557  0.1538
 1944TIP3    H127391   6.924   3.052   7.922  1.8623 -0.6660 -0.8956
 1944TIP3    H227392   6.805   3.059   7.827  0.0707 -1.1127  1.2322
 1945TIP3   OH227393   3.704   5.499   1.272 -0.4162  0.2831 -0.5259
 1945TIP3    H127394   3.695   5.447   1.351  0.0087  0.1528 -0.5625
 1945TIP3    H227395   3.704   5.435   1.201 -3.4123  0.5188 -0.8735
 1946TIP3   OH227396   3.717   5.270   0.523  0.2198 -0.2417 -0.1530
 1946TIP3    H127397   3.687   5.305   0.607  0.4242 -0.2729 -0.0667
 1946TIP3    H227398   3.790   5.212   0.546 -0.2184 -0.8567 -0.2733
 1947TIP3   OH227399   5.735   3.559   0.147 -0.0914  0.3436  0.5615
 1947TIP3    H127400   5.791   3.482   0.163  0.0767  0.7671  2.2164
 1947TIP3    H227401   5.649   3.522   0.127  0.2029 -0.2837  0.4241
 1948TIP3   OH227402   0.603   3.909   7.785 -0.4752 -0.1170  0.2231
 1948TIP3    H127403   0.659   3.980   7.753 -0.4406 -0.5403 -0.6860
 1948TIP3    H227404   0.516   3.931   7.752 -0.5558 -0.2506  0.3460
 1949TIP3   OH227405   0.875   6.053   6.724  0.1839  0.1198  0.0831
 1949TIP3    H127406   0.796   6.073   6.673  0.4788 -1.0566 -0.8783
 1949TIP3    H227407   0.875   5.958   6.732  0.4660  0.2304  1.8102
 1950TIP3   OH227408   0.659   5.683   1.188 -0.2500  0.1549  0.5286
 1950TIP3    H127409   0.674   5.592   1.161  0.3470  1.0501 -2.5150
 1950TIP3    H227410   0.567   5.686   1.211 -2.5429  0.0591 -6.3463
 1951TIP3   OH227411   6.128   1.069   1.954  0.0534 -0.3419 -0.0211
 1951TIP3    H127412   6.066   1.025   1.896 -1.3301  0.8771  0.4699
 1951TIP3    H227413   6.081   1.079   2.036  0.5149  1.5147  0.0567
 1952TIP3   OH227414   6.521   6.323   7.873 -0.0945  0.9953  0.1993
 1952TIP3    H127415   6.586   6.277   7.926 -0.2185  0.5072 -0.0674
 1952TIP3    H227416   6.527   6.414   7.901  1.8422  1.2771 -0.9320
 1953TIP3   OH227417   5.084   3.772   7.747 -0.4368  0.2139 -0.2818
 1953TIP3    H127418   5.170   3.806   7.723 -0.6096  0.4371 -0.5853
 1953TIP3    H227419   5.092   3.751   7.840  0.1726 -0.4763 -0.4818
 1954TIP3   OH227420   2.489   2.534   6.932 -0.1145  0.1082  0.4275
 1954TIP3    H127421   2.528   2.571   7.011  0.2941 -1.7924  1.1648
 1954TIP3    H227422   2.564   2.514   6.876 -0.0985 -1.7720  1.0492
 1955TIP3   OH227423   0.043   6.321   6.587  0.1770 -0.1305 -0.3480
 1955TIP3    H127424  -0.050   6.345   6.592  0.3194  0.1486  2.0744
 1955TIP3    H227425   0.056   6.260   6.659  1.6268 -1.1619 -1.4359
 1956TIP3   OH227426   6.146   3.254   1.682 -0.0855  0.2647  0.3369
 1956TIP3    H127427   6.220   3.275   1.739 -0.3454 -0.9576  1.1677
 1956TIP3    H227428   6.085   3.326   1.695 -0.5114 -0.3887  2.3008
 1957TIP3   OH227429   2.959   5.950   1.066  0.5047  0.3270  0.3959
 1957TIP3    H127430   3.024   5.968   1.134  1.4891  1.2094 -0.7419
 1957TIP3    H227431   3.002   5.888   1.007  0.6230  1.4981 -0.7802
 1958TIP3   OH227432   0.013   3.484   6.318 -0.5727 -0.0144  0.5519
 1958TIP3    H127433  -0.004   3.577   6.306  0.6967  0.3581  1.4511
 1958TIP3    H227434   0.015   3.448   6.229 -1.1404  0.7867  0.2039
 1959TIP3   OH227435   0.433   4.823   6.510  0.1515  0.0686  0.0996
 1959TIP3    H127436   0.387   4.821   6.426  1.7881  0.3635 -0.8438
 1959TIP3    H227437   0.440   4.916   6.532  0.6670  0.0520  0.0157
 1960TIP3   OH227438   5.335   5.224   0.717  0.2311  0.1895  0.5939
 1960TIP3    H127439   5.305   5.305   0.759  2.4773  1.1998  0.3665
 1960TIP3    H227440   5.353   5.165   0.790 -1.0493 -0.0121  0.7759
 1961TIP3   OH227441   4.642   0.309   7.926  0.2130 -0.1995  0.1071
 1961TIP3    H127442   4.681   0.388   7.964  2.6517 -1.4916  0.5366
 1961TIP3    H227443   4.592   0.271   7.998 -0.4607  0.6121  0.0820
 1962TIP3   OH227444   1.726   7.105   1.843  0.0178  0.3252  0.4770
 1962TIP3    H127445   1.700   7.014   1.826  1.1370  0.2189 -0.9071
 1962TIP3    H227446   1.764   7.104   1.931  0.6137 -0.7054  0.2269
 1963TIP3   OH227447   5.086   4.125   1.326 -0.6672  0.2224  0.2181
 1963TIP3    H127448   5.171   4.169   1.313  0.2005 -1.5857 -0.5075
 1963TIP3    H227449   5.101   4.063   1.397 -1.7857  0.8098  0.9988
 1964TIP3   OH227450   1.558   0.743   0.628  0.4312  0.3370  0.0798
 1964TIP3    H127451   1.576   0.823   0.679 -0.4615  1.5421 -1.3978
 1964TIP3    H227452   1.593   0.762   0.541 -0.6032 -0.5188 -0.5426
 1965TIP3   OH227453   2.654   2.354   0.731 -0.3223  1.0664  0.7058
 1965TIP3    H127454   2.611   2.271   0.710  2.1921 -0.2252  0.2214
 1965TIP3    H227455   2.666   2.352   0.826  0.3606  0.5028  0.6167
 1966TIP3   OH227456   2.106   0.489   0.962 -0.2113 -0.1643 -0.3117
 1966TIP3    H127457   2.109   0.445   0.877  2.0713  1.0774 -0.9882
 1966TIP3    H227458   2.153   0.431   1.021  1.3891  0.5373 -0.8245
 1967TIP3   OH227459   3.012   0.615   1.295 -0.1528  0.2338  0.4986
 1967TIP3    H127460   2.986   0.700   1.257  0.6268  1.1923  2.0286
 1967TIP3    H227461   2.934   0.586   1.342 -0.2340  0.4015  0.4704
 1968TIP3   OH227462   7.135   4.245   7.036  0.5967 -0.5970 -0.0412
 1968TIP3    H127463   7.216   4.286   7.067  0.2872  0.2630 -0.3564
 1968TIP3    H227464   7.108   4.188   7.109 -0.5855  2.0173  1.7360
 1969TIP3   OH227465   4.092   5.965   6.097  0.5647  0.2428  0.7478
 1969TIP3    H127466   4.150   5.946   6.024  0.6918  0.3953  0.8086
 1969TIP3    H227467   4.132   6.041   6.141  0.5466  0.0899  1.0347
 1970TIP3   OH227468   0.956   3.891   6.353  0.2603 -0.0631 -0.5417
 1970TIP3    H127469   1.001   3.941   6.421 -0.5782  0.3813 -0.2930
 1970TIP3    H227470   0.992   3.922   6.271  0.9294 -0.2479 -0.3216
 1971TIP3   OH227471   3.603   1.321   7.871  0.0809  0.1469 -0.0517
 1971TIP3    H127472   3.687   1.276   7.856  1.3023  2.2425  0.0480
 1971TIP3    H227473   3.567   1.278   7.948  1.3497 -0.4328  0.2589
 1972TIP3   OH227474   1.540   6.128   7.972 -0.0844  0.1366 -0.1974
 1972TIP3    H127475   1.634   6.110   7.968  0.4925  2.1307  1.8165
 1972TIP3    H227476   1.513   6.096   8.058 -2.3058 -4.0856 -2.1510
 1973TIP3   OH227477   3.169   2.773   1.245  0.5997  0.1380 -0.4035
 1973TIP3    H127478   3.200   2.863   1.235 -1.5835  1.0260  0.2333
 1973TIP3    H227479   3.237   2.720   1.203  3.6857  1.7278  2.1345
 1974TIP3   OH227480   4.891   3.314   7.634  0.0482 -0.2831  0.1828
 1974TIP3    H127481   4.919   3.361   7.713  0.2386  0.8243 -0.5224
 1974TIP3    H227482   4.819   3.367   7.599  1.4455  0.5170 -1.6195
 1975TIP3   OH227483   0.001   2.266   1.666  0.0210  0.0851  0.8280
 1975TIP3    H127484  -0.080   2.288   1.712 -0.4003  1.0212 -0.3118
 1975TIP3    H227485   0.000   2.171   1.660 -0.7042  0.0527  1.3457
 1976TIP3   OH227486   0.516   4.617   7.623 -0.0745  0.9718 -0.0352
 1976TIP3    H127487   0.508   4.534   7.669 -2.8783  1.3249  0.2721
 1976TIP3    H227488   0.533   4.681   7.692 -0.0959  0.9377  0.0014
 1977TIP3   OH227489   0.658   6.187   7.128 -0.6694 -0.3833 -0.4018
 1977TIP3    H127490   0.593   6.158   7.192 -2.1980  0.4234 -1.5365
 1977TIP3    H227491   0.716   6.245   7.177  0.0038 -2.0794  0.9255
 1978TIP3   OH227492   2.705   0.968   7.379 -0.3042 -0.2484  0.3948
 1978TIP3    H127493   2.636   1.034   7.374  0.1011  0.2385  1.0642
 1978TIP3    H227494   2.663   0.892   7.419 -0.0170  0.7100  2.6901
 1979TIP3   OH227495   0.176   4.858   7.886  0.7073 -0.4525 -0.2642
 1979TIP3    H127496   0.258   4.908   7.894  0.0641  0.7089 -0.7299
 1979TIP3    H227497   0.132   4.872   7.970  0.5434 -0.2593 -0.3817
 1980TIP3   OH227498   5.619   1.543   7.775  0.0156  0.8058  0.0525
 1980TIP3    H127499   5.542   1.591   7.745 -1.1411 -2.0745 -2.1397
 1980TIP3    H227500   5.584   1.465   7.818  1.6710 -0.1955 -0.3073
 1981TIP3   OH227501   4.094   7.121   0.267  0.3036 -0.6972 -0.1726
 1981TIP3    H127502   4.015   7.072   0.243 -0.2920 -0.1477  0.6446
 1981TIP3    H227503   4.099   7.114   0.362 -0.0715  1.2348  0.0210
 1982TIP3   OH227504   3.281   3.229   0.697 -0.4485 -0.3779  0.0552
 1982TIP3    H127505   3.350   3.163   0.699 -0.8575 -0.7926  1.3869
 1982TIP3    H227506   3.234   3.218   0.779 -0.9776  1.1062 -0.0091
 1983TIP3   OH227507   3.568   2.549   7.164 -0.5578 -0.0784 -0.9254
 1983TIP3    H127508   3.537   2.462   7.186  0.8719 -0.7095 -1.2954
 1983TIP3    H227509   3.644   2.563   7.220 -0.4264  0.6832 -1.2775
 1984TIP3   OH227510   6.285   6.224   1.331  0.1314  0.5174 -0.3704
 1984TIP3    H127511   6.201   6.178   1.323 -0.4378  1.3330  0.5780
 1984TIP3    H227512   6.302   6.225   1.425  0.6170  1.3932 -0.4623
 1985TIP3   OH227513   0.246   3.774   6.705 -0.6476  0.5938  0.5232
 1985TIP3    H127514   0.263   3.864   6.735 -1.4751  0.8471  0.2717
 1985TIP3    H227515   0.202   3.733   6.779 -0.9830  0.6374  0.3465
 1986TIP3   OH227516   3.336   3.289   7.264  0.3916 -0.0981 -0.6892
 1986TIP3    H127517   3.397   3.217   7.249 -2.4418 -2.4317 -2.0193
 1986TIP3    H227518   3.311   3.280   7.356  2.6971  1.5602  0.1908
 1987TIP3   OH227519   0.205   0.237   1.429 -0.4507 -0.1637 -0.4586
 1987TIP3    H127520   0.191   0.216   1.521 -2.2130 -0.1045 -0.6778
 1987TIP3    H227521   0.230   0.329   1.429 -2.4420  0.4150 -0.1416
 1988TIP3   OH227522   3.647   3.787   2.158  0.6619 -0.0516 -0.3719
 1988TIP3    H127523   3.738   3.797   2.130  0.6623 -1.2466 -0.8199
 1988TIP3    H227524   3.618   3.705   2.118  0.0939 -0.8747  1.6089
 1989TIP3   OH227525   4.654   5.459   0.574  0.6780  0.3165  0.4120
 1989TIP3    H127526   4.694   5.420   0.496  2.9176  1.9774  0.6302
 1989TIP3    H227527   4.657   5.389   0.640 -1.1060 -1.0550 -0.8847
 1990TIP3   OH227528   6.793   2.073   1.720 -0.3000 -0.3519 -0.2984
 1990TIP3    H127529   6.812   2.166   1.709  0.7641 -0.6141 -0.8835
 1990TIP3    H227530   6.757   2.066   1.808  0.5798  0.4928  0.1531
 1991TIP3   OH227531   2.632   2.458   6.641  0.0693 -0.1028 -0.0276
 1991TIP3    H127532   2.649   2.528   6.578 -0.8152 -0.7054 -0.9625
 1991TIP3    H227533   2.717   2.442   6.682  0.5872  0.5334 -0.8287
 1992TIP3   OH227534   6.515   1.656   6.045 -0.1022  0.4977  0.0107
 1992TIP3    H127535   6.537   1.669   5.953  1.1121 -0.4678  0.1451
 1992TIP3    H227536   6.433   1.608   6.044 -0.4814  1.1446 -0.5544
 1993TIP3   OH227537   3.589   6.240   0.354 -0.4563  0.2814  0.0794
 1993TIP3    H127538   3.595   6.145   0.368 -2.5436  0.2176  1.0495
 1993TIP3    H227539   3.635   6.256   0.272 -1.8113 -1.9024 -1.1944
 1994TIP3   OH227540   2.916   0.436   7.831 -0.1401 -0.2820  0.1687
 1994TIP3    H127541   2.877   0.524   7.837 -0.0555 -0.2562  0.3622
 1994TIP3    H227542   2.973   0.440   7.755  0.6939  0.1641  0.8031
 1995TIP3   OH227543   1.477   3.314   6.117 -0.3474  0.1290  0.2670
 1995TIP3    H127544   1.441   3.402   6.130 -0.7713 -0.2788  2.1626
 1995TIP3    H227545   1.524   3.295   6.199  1.8693 -0.4700 -1.0550
 1996TIP3   OH227546   0.842   0.242   6.709 -0.6771  0.0254  0.4318
 1996TIP3    H127547   0.829   0.275   6.621 -0.5805 -1.4401 -0.1681
 1996TIP3    H227548   0.754   0.221   6.741 -0.7682  1.1215  0.9331
 1997TIP3   OH227549   1.236   6.423   8.031 -0.1307  0.1205 -0.0530
 1997TIP3    H127550   1.318   6.430   7.983 -0.2956  0.8610 -0.2278
 1997TIP3    H227551   1.170   6.459   7.972 -0.6470 -0.7954 -0.0575
 1998TIP3   OH227552   7.146   3.861   7.410 -0.5286 -0.1412 -0.0616
 1998TIP3    H127553   7.231   3.854   7.455  0.1793  1.3011 -1.0902
 1998TIP3    H227554   7.152   3.942   7.360 -1.9572 -0.7911 -1.3770
 1999TIP3   OH227555   0.536   2.376   7.401 -0.3797  0.7161 -0.2499
 1999TIP3    H127556   0.554   2.282   7.391  2.1297  1.0956 -0.0199
 1999TIP3    H227557   0.494   2.384   7.486  2.0845  0.0021  1.1525
 2000TIP3   OH227558   3.929   4.901   1.027  0.1855  0.3181 -0.5699
 2000TIP3    H127559   4.000   4.962   1.045  1.9191 -1.6541 -0.4226
 2000TIP3    H227560   3.924   4.846   1.106 -2.6997  1.4452  0.1778
 2001TIP3   OH227561   4.909   0.282   1.423  0.2722 -0.2571  0.6687
 2001TIP3    H127562   4.996   0.245   1.434 -0.2865 -1.6542  0.6213
 2001TIP3    H227563   4.903   0.350   1.490  1.2120 -0.4887  1.0049
 2002TIP3   OH227564   5.604   3.779   1.371  0.4580  0.2415  0.0194
 2002TIP3    H127565   5.578   3.864   1.336 -0.1563 -0.2167 -0.6762
 2002TIP3    H227566   5.629   3.728   1.294 -1.6988 -1.0538  0.0879
 2003TIP3   OH227567   2.743   4.044   7.504 -0.2765  0.1580 -0.1570
 2003TIP3    H127568   2.649   4.057   7.492 -0.5150  0.5947  1.7461
 2003TIP3    H227569   2.768   3.982   7.436 -1.8361  0.4340 -1.0198
 2004TIP3   OH227570   1.529   0.825   1.741 -0.4423 -0.4747  0.3680
 2004TIP3    H127571   1.447   0.828   1.791 -0.6545  0.0387 -0.0023
 2004TIP3    H227572   1.589   0.879   1.793 -0.6940  0.1468  0.0231
 2005TIP3   OH227573   5.434   4.735   7.065  0.2308  0.1791 -0.5468
 2005TIP3    H127574   5.494   4.700   7.130 -0.2974 -0.0555 -0.1782
 2005TIP3    H227575   5.354   4.756   7.114 -0.5561 -0.9577 -1.2821
 2006TIP3   OH227576   3.338   3.001   6.766 -0.0886 -0.1212  0.1213
 2006TIP3    H127577   3.395   2.929   6.739  0.2563  0.4558 -0.7131
 2006TIP3    H227578   3.388   3.080   6.747 -1.2281  0.3988 -0.8113
 2007TIP3   OH227579   4.118   2.039   6.579 -0.0823  0.0218  0.1095
 2007TIP3    H127580   4.109   1.950   6.613  0.4879 -0.3287 -0.6424
 2007TIP3    H227581   4.112   2.030   6.484  1.0184  0.6434 -0.0385
 2008TIP3   OH227582   1.382   1.183   2.068  0.4098 -0.8646  0.0505
 2008TIP3    H127583   1.303   1.170   2.017  0.1082 -0.5425  0.4268
 2008TIP3    H227584   1.410   1.272   2.047  0.1370 -0.6346  0.6355
 2009TIP3   OH227585   4.818   0.107   7.847 -0.1647  0.1703 -0.5900
 2009TIP3    H127586   4.794   0.047   7.917 -1.2445  0.5791 -0.5947
 2009TIP3    H227587   4.768   0.187   7.866  1.8263  1.3740 -0.1311
 2010TIP3   OH227588   0.141   5.162   5.712  0.1066  0.0645 -0.1772
 2010TIP3    H127589   0.087   5.241   5.709  0.2653  0.1973  0.3597
 2010TIP3    H227590   0.083   5.095   5.747  0.1341  0.0806 -0.1000
 2011TIP3   OH227591   5.537   4.291   7.886 -0.4460  0.1220  0.3779
 2011TIP3    H127592   5.498   4.208   7.860  0.5303 -0.4545  0.7025
 2011TIP3    H227593   5.629   4.271   7.902  0.0486  1.4801 -0.5408
 2012TIP3   OH227594   5.157   2.337   1.643 -0.3499 -0.0141 -0.2806
 2012TIP3    H127595   5.209   2.303   1.715 -2.8453  0.9095  2.1390
 2012TIP3    H227596   5.158   2.268   1.577  0.5457 -1.6831  1.3976
 2013TIP3   OH227597   3.429   4.677   7.090  0.1711 -0.2388 -0.0952
 2013TIP3    H127598   3.373   4.744   7.129  2.5000  2.3147 -0.8800
 2013TIP3    H227599   3.370   4.629   7.030 -1.6195  0.8942  0.6775
 2014TIP3   OH227600   4.453   2.788   1.770 -0.0606 -0.5082 -0.2091
 2014TIP3    H127601   4.549   2.785   1.769 -0.0190 -0.3797 -2.2806
 2014TIP3    H227602   4.429   2.771   1.861  1.8809 -1.9923  0.0975
 2015TIP3   OH227603   4.855   0.878   7.552 -0.3424  0.2496  0.1686
 2015TIP3    H127604   4.808   0.844   7.628 -0.6945 -0.7862 -0.4871
 2015TIP3    H227605   4.825   0.824   7.479 -1.8357  2.7925 -1.1971
 2016TIP3   OH227606   0.601   3.791   7.461 -0.1426 -0.3371  0.1476
 2016TIP3    H127607   0.614   3.877   7.422  1.5495 -0.3142  0.7109
 2016TIP3    H227608   0.630   3.729   7.394  0.5666 -0.3863  0.4971
 2017TIP3   OH227609   1.521   4.394   2.279 -0.2902 -0.8297  0.5419
 2017TIP3    H127610   1.517   4.486   2.308  1.8959 -0.4066 -0.3362
 2017TIP3    H227611   1.613   4.371   2.285 -0.7604 -2.9028  0.4253
 2018TIP3   OH227612   5.643   1.265   7.079 -0.2204 -0.5762 -0.3582
 2018TIP3    H127613   5.712   1.246   7.143  0.4238  0.4326 -0.7250
 2018TIP3    H227614   5.675   1.226   6.998 -1.6299 -2.9912  0.1581
 2019TIP3   OH227615   1.089   2.564   0.356 -0.1097  0.3886 -0.1181
 2019TIP3    H127616   1.086   2.477   0.316 -0.7898  0.1123  0.5110
 2019TIP3    H227617   1.145   2.553   0.432  0.2342  0.6326 -0.3340
 2020TIP3   OH227618   4.957   1.875   1.645 -0.4435 -0.3043 -0.3448
 2020TIP3    H127619   4.884   1.873   1.707 -1.3800 -0.4124 -1.4358
 2020TIP3    H227620   4.920   1.911   1.565  0.6039 -0.7640 -1.0507
 2021TIP3   OH227621   1.998   1.165   7.491 -0.0491  0.5984  0.4963
 2021TIP3    H127622   1.932   1.220   7.448 -0.4771 -0.9591 -0.9695
 2021TIP3    H227623   2.060   1.144   7.421  0.4822 -0.1794  1.1862
 2022TIP3   OH227624   0.827   0.808   7.038 -0.6867  0.3711 -0.1502
 2022TIP3    H127625   0.797   0.830   6.950 -0.3183  0.0927 -0.3496
 2022TIP3    H227626   0.923   0.804   7.030 -0.7175 -1.1242 -0.1026
 2023TIP3   OH227627   3.495   5.695   7.565  1.0576  0.4156  0.0409
 2023TIP3    H127628   3.447   5.647   7.498 -0.5340 -1.1923  2.1622
 2023TIP3    H227629   3.574   5.644   7.580  2.0312  1.4503 -1.4092
 2024TIP3   OH227630   4.285   3.132   6.922 -0.3770  0.3896 -0.0439
 2024TIP3    H127631   4.234   3.052   6.907  0.0382  0.3007 -1.0819
 2024TIP3    H227632   4.374   3.101   6.941 -0.0467  0.6000 -1.1559
 2025TIP3   OH227633   3.554   5.359   7.507 -0.2163 -0.0806 -0.6144
 2025TIP3    H127634   3.487   5.343   7.440 -1.1027  0.4607  0.1221
 2025TIP3    H227635   3.621   5.411   7.462  0.4047 -1.7631 -1.7365
 2026TIP3   OH227636   4.662   0.089   1.131  0.7900  0.0182 -0.7180
 2026TIP3    H127637   4.575   0.120   1.156  1.9259  2.2889  0.6785
 2026TIP3    H227638   4.647  -0.002   1.104 -1.5018 -0.9836  3.0466
 2027TIP3   OH227639   4.311   4.307   0.900  0.0083 -0.1213 -0.0242
 2027TIP3    H127640   4.256   4.243   0.857 -0.6302 -0.0153  0.6206
 2027TIP3    H227641   4.253   4.353   0.961  1.0218 -0.7432  1.4760
 2028TIP3   OH227642   0.911   0.077   1.721  0.2746 -0.5807 -0.4732
 2028TIP3    H127643   0.895   0.090   1.815 -1.3709  0.2455 -0.8159
 2028TIP3    H227644   0.836   0.025   1.691  0.3797 -0.1860 -1.4595
 2029TIP3   OH227645   6.415   4.288   0.959  0.1582 -0.2738  0.0736
 2029TIP3    H127646   6.354   4.265   0.888  0.4773 -1.9064  0.2922
 2029TIP3    H227647   6.376   4.251   1.038  0.4724  0.3768  0.5468
 2030TIP3   OH227648   4.551   3.268   6.960 -0.3793 -0.1913  0.1783
 2030TIP3    H127649   4.564   3.222   6.876  0.5950  0.5148 -0.0792
 2030TIP3    H227650   4.539   3.198   7.023 -0.8210 -0.7496 -0.5030
 2031TIP3   OH227651   5.205   4.114   7.867 -0.4063 -0.5924 -0.2881
 2031TIP3    H127652   5.223   4.128   7.959  0.0996 -1.0103 -0.3149
 2031TIP3    H227653   5.119   4.072   7.865 -0.4339 -0.5476 -0.0091
 2032TIP3   OH227654   6.725   1.478   7.668  0.4015  0.2778 -0.1675
 2032TIP3    H127655   6.819   1.493   7.675  0.1271  1.5448  1.3120
 2032TIP3    H227656   6.696   1.465   7.758 -1.0157  1.0808 -0.4752
 2033TIP3   OH227657   7.100   6.242   1.156  0.5635 -0.7713 -0.1923
 2033TIP3    H127658   7.191   6.227   1.132  0.7697 -0.2353  0.2462
 2033TIP3    H227659   7.083   6.178   1.226  0.1949 -1.7916 -1.1817
 2034TIP3   OH227660   3.547   1.666   0.217  0.2990  0.6634 -0.2579
 2034TIP3    H127661   3.453   1.667   0.197  0.1284  0.8093  0.5223
 2034TIP3    H227662   3.578   1.753   0.190  0.2733  0.5010 -0.8096
 2035TIP3   OH227663   5.667   1.825   6.866  0.6527  0.2211 -0.1303
 2035TIP3    H127664   5.664   1.749   6.808 -1.1578 -0.0749  0.2736
 2035TIP3    H227665   5.596   1.811   6.928  0.9815  1.7151  0.6486
 2036TIP3   OH227666   3.941   3.393   1.301  0.9842 -0.4187  0.1545
 2036TIP3    H127667   3.920   3.364   1.212  1.0925 -0.2419  0.0726
 2036TIP3    H227668   3.962   3.312   1.347  1.5694 -0.4477 -0.1529
 2037TIP3   OH227669   5.802   6.923   7.562  0.2115 -0.0552 -0.0627
 2037TIP3    H127670   5.868   6.863   7.528  1.6444  1.4882 -0.1385
 2037TIP3    H227671   5.799   6.905   7.656  3.0331  1.8682  0.4981
 2038TIP3   OH227672   5.481   5.808   6.895 -0.1122  0.0432  0.5482
 2038TIP3    H127673   5.448   5.748   6.828 -0.4311  0.6820  0.1239
 2038TIP3    H227674   5.575   5.790   6.900  0.0433  0.4898 -0.5936
 2039TIP3   OH227675   2.568   4.675   5.907 -0.0325  0.0430  0.6389
 2039TIP3    H127676   2.516   4.654   5.985 -2.6498 -1.2934 -1.3043
 2039TIP3    H227677   2.627   4.745   5.936 -2.7568  1.5628  3.1652
 2040TIP3   OH227678   4.320   4.610   6.533  0.1475 -0.3786  0.0782
 2040TIP3    H127679   4.408   4.648   6.527 -0.7105  1.7608 -0.1073
 2040TIP3    H227680   4.306   4.568   6.449  0.7301 -0.0604 -0.1822
 2041TIP3   OH227681   1.021   2.814   7.246 -0.5291  0.4759  0.1503
 2041TIP3    H127682   1.062   2.791   7.162  0.4805  3.1416 -0.1786
 2041TIP3    H227683   0.940   2.859   7.221 -0.3942  0.9769  0.5919
 2042TIP3   OH227684   0.578   3.733   0.508 -0.1972  0.6527 -0.9192
 2042TIP3    H127685   0.540   3.694   0.587 -0.0437  0.0374 -1.1375
 2042TIP3    H227686   0.611   3.658   0.459 -1.7208  0.8381 -2.3349
 2043TIP3   OH227687   4.894   1.431   7.692 -0.0438  0.1341  0.4204
 2043TIP3    H127688   4.863   1.511   7.737  0.3061  0.0167  0.8806
 2043TIP3    H227689   4.987   1.428   7.711  0.0222 -0.1654  0.0506
 2044TIP3   OH227690   2.598   4.861   1.060  0.5722 -0.1544 -0.3199
 2044TIP3    H127691   2.541   4.913   1.117  0.5281  0.0039 -0.5075
 2044TIP3    H227692   2.586   4.898   0.973 -0.1565 -1.0718 -0.6202
 2045TIP3   OH227693   6.739   1.015   7.490  0.0976 -0.1817  0.0491
 2045TIP3    H127694   6.719   1.019   7.583 -0.0112  1.5518 -0.0165
 2045TIP3    H227695   6.661   0.977   7.449  0.4685 -1.7498  0.7155
 2046TIP3   OH227696   1.923   0.334   0.468 -0.4075  0.4458 -0.1383
 2046TIP3    H127697   1.860   0.404   0.485 -1.0024  0.3757 -1.8929
 2046TIP3    H227698   1.874   0.268   0.419  0.6086 -0.3635 -0.1111
 2047TIP3   OH227699   6.391   3.822   7.401  0.5406 -0.1628 -0.0797
 2047TIP3    H127700   6.321   3.758   7.388 -1.1706  1.5736  0.0831
 2047TIP3    H227701   6.471   3.777   7.372 -0.6283 -2.2079 -0.3006
 2048TIP3   OH227702   0.152   6.882   6.715 -0.6778  0.0190  0.0266
 2048TIP3    H127703   0.228   6.929   6.681 -0.5986  0.2084  0.4508
 2048TIP3    H227704   0.078   6.914   6.663 -0.2275 -1.5593 -1.6961
 2049TIP3   OH227705   1.831   4.167   6.024 -0.2852  0.1516  0.1128
 2049TIP3    H127706   1.877   4.098   5.976 -0.4761  0.3161 -0.3121
 2049TIP3    H227707   1.773   4.120   6.084  0.6519 -0.0571  0.8707
 2050TIP3   OH227708   3.228   0.050   0.430  0.6328 -0.0806  0.4545
 2050TIP3    H127709   3.228  -0.021   0.366 -1.5625 -0.5074  0.8624
 2050TIP3    H227710   3.136   0.065   0.449  1.1133  1.9609  1.4194
 2051TIP3   OH227711   7.136   2.891   2.411 -0.1664 -0.1546  0.2163
 2051TIP3    H127712   7.044   2.893   2.436  0.2278  2.7248  1.8552
 2051TIP3    H227713   7.136   2.924   2.321 -0.7667 -0.7080  0.0039
 2052TIP3   OH227714   1.344   0.084   6.059 -0.5788 -0.5100 -0.7464
 2052TIP3    H127715   1.258   0.071   6.019 -0.1815 -0.2474 -1.7311
 2052TIP3    H227716   1.402   0.027   6.008 -0.4087 -1.8169  0.8535
 2053TIP3   OH227717   6.824   0.734   7.460 -0.1841  1.1930 -0.1647
 2053TIP3    H127718   6.836   0.670   7.390 -1.1596  0.2778  0.4685
 2053TIP3    H227719   6.729   0.745   7.466 -0.0982  1.4835  0.8039
 2054TIP3   OH227720   4.701   0.670   7.433 -0.3854  0.1341 -0.2656
 2054TIP3    H127721   4.694   0.735   7.364  0.1835 -1.0618 -1.4876
 2054TIP3    H227722   4.635   0.604   7.411 -0.0190 -0.3919  0.1916
 2055TIP3   OH227723   1.669   1.714   7.585  0.3114 -0.0590 -0.0165
 2055TIP3    H127724   1.622   1.736   7.665 -0.2669 -3.0441  0.5996
 2055TIP3    H227725   1.678   1.619   7.588  0.2407 -0.3014 -3.5410
 2056TIP3   OH227726   0.869   4.689   7.092  0.2141 -0.0598 -0.3326
 2056TIP3    H127727   0.902   4.613   7.139  1.4846  0.8357  0.2803
 2056TIP3    H227728   0.868   4.759   7.157  1.1822  0.9882 -1.3962
 2057TIP3   OH227729   6.887   0.476   6.306 -0.0935  0.4646 -0.0334
 2057TIP3    H127730   6.797   0.500   6.283 -0.5493 -0.8846  0.2148
 2057TIP3    H227731   6.935   0.558   6.305 -0.8675  0.9623 -2.2444
 2058TIP3   OH227732   5.918   7.082   0.911 -0.0938  0.3627 -0.4413
 2058TIP3    H127733   6.006   7.047   0.898  0.1339  0.9476 -0.5254
 2058TIP3    H227734   5.900   7.130   0.830  0.2246  1.7154  0.2639
 2059TIP3   OH227735   0.155   6.761   6.373  0.8373 -0.1808 -0.1271
 2059TIP3    H127736   0.157   6.843   6.422  4.5653 -0.6895  0.8615
 2059TIP3    H227737   0.180   6.694   6.437  1.2063 -1.5857 -1.6756
 2060TIP3   OH227738   2.107   1.882   7.084 -0.4071  0.1485  0.1155
 2060TIP3    H127739   2.148   1.816   7.028  0.2072  0.7700 -0.1889
 2060TIP3    H227740   2.143   1.965   7.053  2.1246  0.3884  3.1364
 2061TIP3   OH227741   2.852   2.560   1.805  0.4660 -0.0032 -0.0350
 2061TIP3    H127742   2.830   2.648   1.834  0.0751 -0.1786  0.2082
 2061TIP3    H227743   2.792   2.503   1.854 -1.4816 -0.2002 -2.4370
 2062TIP3   OH227744   2.623   3.492   0.138  0.5689 -0.3798  0.0902
 2062TIP3    H127745   2.636   3.419   0.078  1.8473 -0.8553  0.9234
 2062TIP3    H227746   2.582   3.453   0.215  1.5576 -0.2978  0.6718
 2063TIP3   OH227747   6.234   4.124   6.232 -0.1266 -0.5167  0.1240
 2063TIP3    H127748   6.262   4.210   6.200  1.0349 -0.5242  1.0163
 2063TIP3    H227749   6.244   4.066   6.157  0.2201 -0.0869 -0.1657
 2064TIP3   OH227750   1.416   4.869   0.856  0.2161  0.6779 -0.3124
 2064TIP3    H127751   1.490   4.902   0.805 -0.0199  1.4625 -0.1582
 2064TIP3    H227752   1.343   4.867   0.795  0.0584  1.1208 -0.1385
 2065TIP3   OH227753   3.100   6.319   6.594  0.3037  0.2168  0.2037
 2065TIP3    H127754   3.087   6.231   6.629  0.5112 -0.2024 -0.7455
 2065TIP3    H227755   3.036   6.374   6.641  1.1244 -0.1509  1.8166
 2066TIP3   OH227756   6.471   5.991   7.274  0.6210 -0.0678 -0.2077
 2066TIP3    H127757   6.458   6.054   7.345  0.5832  0.0657 -0.3320
 2066TIP3    H227758   6.383   5.976   7.239  0.8105  1.1325 -1.3069
 2067TIP3   OH227759   5.043   6.951   7.097 -0.4106 -0.3203  0.3094
 2067TIP3    H127760   5.004   6.969   7.183  0.6819  2.1079  0.3969
 2067TIP3    H227761   5.006   7.019   7.040  1.0493 -0.0967 -0.4112
 2068TIP3   OH227762   6.069   1.711   7.600 -0.5458 -0.4976  0.5825
 2068TIP3    H127763   6.113   1.784   7.558 -1.8601  0.5382  0.9272
 2068TIP3    H227764   6.102   1.633   7.554  0.2640  0.3655 -0.3474
 2069TIP3   OH227765   3.799   6.521   6.966  0.1209 -0.1052  0.0588
 2069TIP3    H127766   3.709   6.487   6.964  0.4340 -1.0758 -2.9181
 2069TIP3    H227767   3.852   6.449   6.932  1.9455  0.7583  0.9375
 2070TIP3   OH227768   1.205   2.683   2.062 -0.7074 -0.2926 -0.0938
 2070TIP3    H127769   1.265   2.687   2.137  0.1216  2.5101 -0.7647
 2070TIP3    H227770   1.119   2.672   2.101 -0.1992  0.2206  1.2263
 2071TIP3   OH227771   3.614   2.073   6.253 -0.1758 -0.0083  0.4112
 2071TIP3    H127772   3.546   2.129   6.291 -0.3090 -0.3797  0.7303
 2071TIP3    H227773   3.624   2.105   6.164 -1.4222 -0.5196  0.0562
 2072TIP3   OH227774   1.285   4.246   2.289  0.3490 -0.2646  0.4790
 2072TIP3    H127775   1.226   4.296   2.232 -0.0297 -1.2903 -0.0638
 2072TIP3    H227776   1.372   4.281   2.271  0.5863 -2.0252 -2.4843
 2073TIP3   OH227777   5.065   3.001   6.728  0.0761 -0.0444  0.4555
 2073TIP3    H127778   5.069   3.029   6.637 -1.6731 -1.2680 -0.0629
 2073TIP3    H227779   5.154   2.970   6.747  0.5795  0.6157 -0.6952
 2074TIP3   OH227780   3.726   6.933   2.138 -1.2899  0.2021 -0.0101
 2074TIP3    H127781   3.685   7.018   2.121 -0.1647  0.8170  0.2222
 2074TIP3    H227782   3.815   6.943   2.106 -0.8696 -0.5867  0.8697
 2075TIP3   OH227783   2.978   2.841   7.193  0.0115  0.3761 -0.1678
 2075TIP3    H127784   3.057   2.890   7.215 -0.0446  0.9410 -1.1706
 2075TIP3    H227785   2.932   2.896   7.130 -0.7671 -0.3314 -0.2426
 2076TIP3   OH227786   4.354   4.775   0.490  0.2516 -0.0470  0.5943
 2076TIP3    H127787   4.296   4.827   0.436 -1.4266 -1.5813  0.8204
 2076TIP3    H227788   4.440   4.784   0.450 -0.7655 -0.4257 -1.8268
 2077TIP3   OH227789   1.860   4.710   6.511  0.4725  0.1967 -0.1565
 2077TIP3    H127790   1.798   4.692   6.582  0.4643 -0.0829 -0.2336
 2077TIP3    H227791   1.888   4.623   6.481  0.2021  0.3081 -0.7374
 2078TIP3   OH227792   5.138   1.674   0.336  0.5334 -0.1102 -0.2403
 2078TIP3    H127793   5.193   1.615   0.285  1.3381 -0.8829  1.4387
 2078TIP3    H227794   5.052   1.668   0.295  1.5894  0.9971 -2.8276
 2079TIP3   OH227795   2.282   5.000   1.400  0.5003 -0.3392 -0.0531
 2079TIP3    H127796   2.251   4.958   1.480 -0.5792  0.2891 -0.1201
 2079TIP3    H227797   2.299   4.928   1.340  0.3510 -0.7641  0.4092
 2080TIP3   OH227798   5.023   4.649   7.551 -0.0671  0.0377 -0.0525
 2080TIP3    H127799   4.987   4.737   7.561  0.9270  0.2851  1.9011
 2080TIP3    H227800   4.985   4.616   7.470 -1.3697  1.8204 -0.2177
 2081TIP3   OH227801   4.700   3.728   5.872 -0.0882  0.0097  0.0084
 2081TIP3    H127802   4.630   3.664   5.884  0.3670 -0.2111  1.6682
 2081TIP3    H227803   4.684   3.795   5.938  0.2568  0.8955 -0.7824
 2082TIP3   OH227804   3.350   5.467   1.304 -0.1154  0.2295  0.3414
 2082TIP3    H127805   3.292   5.412   1.251  0.4297  0.7026 -0.7784
 2082TIP3    H227806   3.437   5.428   1.294  0.1391  0.8228  0.1651
 2083TIP3   OH227807   7.117   2.323   5.573  0.3866 -0.5214 -0.2556
 2083TIP3    H127808   7.158   2.284   5.651  0.1314  0.3040  0.3123
 2083TIP3    H227809   7.050   2.381   5.608  1.8610  1.7376 -0.9360
 2084TIP3   OH227810   0.721   4.783   1.116  0.0651  0.2649 -0.5293
 2084TIP3    H127811   0.724   4.785   1.020 -3.6209  1.1372 -0.8105
 2084TIP3    H227812   0.675   4.702   1.137  1.7138 -0.4197  0.6396
 2085TIP3   OH227813   0.350   5.969   6.924 -0.1091 -0.2041 -0.2520
 2085TIP3    H127814   0.284   6.018   6.974 -1.3097 -0.1971 -1.7591
 2085TIP3    H227815   0.389   5.910   6.988 -0.6445  0.7255  0.9792
 2086TIP3   OH227816   1.506   5.167   7.527 -0.5042  0.0654  0.2831
 2086TIP3    H127817   1.466   5.253   7.539  0.5288  0.7384 -0.9234
 2086TIP3    H227818   1.515   5.157   7.432  1.5485 -0.3422  0.4791
 2087TIP3   OH227819   2.088   0.591   0.427  0.4229 -0.5479  0.0733
 2087TIP3    H127820   2.034   0.512   0.433  0.8781 -0.8092  0.8402
 2087TIP3    H227821   2.151   0.582   0.498  0.7147  0.3336 -0.0698
 2088TIP3   OH227822   5.619   4.866   7.428 -0.1204  0.3254  0.4276
 2088TIP3    H127823   5.625   4.795   7.364  0.7700 -0.5262  1.4039
 2088TIP3    H227824   5.630   4.946   7.377  1.1457 -0.3607 -0.4269
 2089TIP3   OH227825   4.469   0.048   7.736  0.1421 -0.4902  0.2200
 2089TIP3    H127826   4.553   0.082   7.764  0.5274 -1.0278 -0.2628
 2089TIP3    H227827   4.490  -0.017   7.669 -0.7248  0.3262 -0.8840
 2090TIP3   OH227828   2.275   3.701   7.008 -0.4301  0.1721 -0.3577
 2090TIP3    H127829   2.180   3.704   7.009 -0.4886 -0.5649 -1.5117
 2090TIP3    H227830   2.299   3.665   7.093 -1.0173  2.8036  1.0226
 2091TIP3   OH227831   5.953   2.636   6.403  0.2914 -0.6498  0.5460
 2091TIP3    H127832   6.017   2.609   6.336  0.2803 -3.2103  1.4442
 2091TIP3    H227833   5.884   2.570   6.396 -2.8786  2.4978 -1.0161
 2092TIP3   OH227834   3.388   3.067   6.208 -0.2002 -0.4065  0.6687
 2092TIP3    H127835   3.359   3.130   6.142  1.4579  1.3784  1.5231
 2092TIP3    H227836   3.313   3.056   6.266 -1.5103 -1.6251 -1.1716
 2093TIP3   OH227837   2.191   1.361   7.622  0.0260  0.4096 -0.7974
 2093TIP3    H127838   2.213   1.436   7.567 -0.2643  1.3125  0.2846
 2093TIP3    H227839   2.161   1.294   7.560 -0.6456  1.5195 -1.7044
 2094TIP3   OH227840   2.579   6.837   2.052  0.3265 -0.1094  0.1374
 2094TIP3    H127841   2.651   6.818   1.992  0.2800 -1.4174  0.4697
 2094TIP3    H227842   2.620   6.845   2.137  0.5441  2.8276 -0.1405
 2095TIP3   OH227843   5.417   0.297   0.353 -0.3380  0.0897 -0.0343
 2095TIP3    H127844   5.479   0.245   0.302  1.5611 -0.8996  3.0180
 2095TIP3    H227845   5.465   0.377   0.375 -1.7146  1.2593 -1.0900
 2096TIP3   OH227846   4.264   1.356   7.805  0.4856  0.5444 -0.0103
 2096TIP3    H127847   4.243   1.263   7.803 -3.9457  1.3145 -2.8977
 2096TIP3    H227848   4.236   1.385   7.892  0.8198 -0.5817  0.4966
 2097TIP3   OH227849   6.219   4.544   1.424 -0.5803 -0.4615  0.3405
 2097TIP3    H127850   6.295   4.563   1.369 -0.7744 -0.9612 -0.1067
 2097TIP3    H227851   6.248   4.471   1.480 -0.8973 -0.9999 -0.1907
 2098TIP3   OH227852   0.525   4.592   1.181  0.2118 -0.3481  0.0267
 2098TIP3    H127853   0.516   4.497   1.179  0.0912 -0.3369 -0.0039
 2098TIP3    H227854   0.452   4.624   1.127  0.6289 -0.2629 -0.4942
 2099TIP3   OH227855   5.748   2.213   7.772 -0.2480 -0.5987  0.1086
 2099TIP3    H127856   5.822   2.253   7.818  3.2108 -2.8865 -2.9538
 2099TIP3    H227857   5.719   2.143   7.830 -0.4797  0.6638  1.5911
 2100TIP3   OH227858   3.535   2.696   0.845  0.2678 -0.0909 -0.0197
 2100TIP3    H127859   3.472   2.768   0.849  1.3428  0.8912 -0.3254
 2100TIP3    H227860   3.559   2.679   0.936 -0.7772 -0.7982  0.1406
 2101TIP3   OH227861   5.786   1.969   0.878 -0.4887  0.3263 -0.1339
 2101TIP3    H127862   5.878   1.996   0.890 -0.8199  0.4885  2.4775
 2101TIP3    H227863   5.735   2.042   0.912 -1.5644 -0.5490  0.1766
 2102TIP3   OH227864   3.605   2.297   6.006 -0.7116  0.1908 -0.4068
 2102TIP3    H127865   3.699   2.309   6.012 -0.7875  0.1045  1.5265
 2102TIP3    H227866   3.568   2.385   6.017 -0.8753  0.3539 -1.9693
 2103TIP3   OH227867   3.025   1.326   0.542 -0.8778  0.6079 -0.3717
 2103TIP3    H127868   2.955   1.360   0.486 -0.8249 -0.1768 -0.9372
 2103TIP3    H227869   2.979   1.279   0.612 -0.9283  0.8103 -0.2679
 2104TIP3   OH227870   0.630   5.721   0.651  0.0262  0.1491  0.2271
 2104TIP3    H127871   0.715   5.700   0.687 -0.0754  0.4951  0.6804
 2104TIP3    H227872   0.584   5.637   0.647  0.8235 -0.2500 -1.2207
 2105TIP3   OH227873   1.310   0.015   0.681 -0.4727 -0.5637 -0.1123
 2105TIP3    H127874   1.317   0.006   0.776  0.8478 -0.5179 -0.1801
 2105TIP3    H227875   1.391  -0.024   0.648  0.5484  2.0873 -1.0160
 2106TIP3   OH227876   1.278   3.496   6.002 -0.4440 -0.0041 -0.3674
 2106TIP3    H127877   1.327   3.546   5.937 -2.1395 -1.0911 -2.6582
 2106TIP3    H227878   1.293   3.404   5.977 -0.4666 -0.5026  1.3396
 2107TIP3   OH227879   4.135   6.419   0.212 -0.7646  0.6204  0.3338
 2107TIP3    H127880   4.056   6.471   0.198 -0.0458  1.0484 -3.0466
 2107TIP3    H227881   4.196   6.450   0.145  0.3353 -3.3439 -0.7836
 2108TIP3   OH227882   1.698   0.662   0.127  0.6765  0.1131  0.0016
 2108TIP3    H127883   1.626   0.652   0.065 -1.1211  2.4640  1.5721
 2108TIP3    H227884   1.658   0.697   0.206  3.4433  0.7542  1.2520
 2109TIP3   OH227885   0.364   4.623   7.298 -0.0050  0.6678 -0.5510
 2109TIP3    H127886   0.446   4.671   7.287  0.3029  0.0098 -1.2433
 2109TIP3    H227887   0.355   4.573   7.217 -0.0216 -0.8879  0.3775
 2110TIP3   OH227888   2.578   4.420   0.392  0.8491  0.0681 -0.3652
 2110TIP3    H127889   2.553   4.498   0.443  1.7111 -0.3541  0.7704
 2110TIP3    H227890   2.495   4.383   0.363  0.2544  0.0144  1.2520
 2111TIP3   OH227891   0.888   5.487   8.024  0.2152  0.1534 -0.6623
 2111TIP3    H127892   0.821   5.547   7.989 -0.7221 -0.7318 -0.4287
 2111TIP3    H227893   0.840   5.431   8.085  1.1752 -0.5288 -0.5237
 2112TIP3   OH227894   5.642   3.019   2.009  0.1426  0.3147 -0.2632
 2112TIP3    H127895   5.582   2.959   2.054 -0.6616  0.6461 -0.8686
 2112TIP3    H227896   5.585   3.081   1.964  0.9565  2.0017  0.9252
 2113TIP3   OH227897   5.329   0.613   6.571  0.3379  0.4561  0.0860
 2113TIP3    H127898   5.366   0.660   6.646  1.3214  0.3829 -0.3276
 2113TIP3    H227899   5.238   0.641   6.567  0.5726  1.3341  0.6294
 2114TIP3   OH227900   0.955   3.664   1.542 -0.2451  0.3049  0.1240
 2114TIP3    H127901   0.949   3.754   1.573  1.1663  0.7788 -0.9018
 2114TIP3    H227902   0.958   3.611   1.622 -0.6637  1.1887  0.7325
 2115TIP3   OH227903   3.009   6.852   0.556  0.7214 -0.5188 -0.1957
 2115TIP3    H127904   2.937   6.829   0.614  1.0210  1.6751  1.1691
 2115TIP3    H227905   3.088   6.833   0.607  1.0133  0.3809 -0.2855
 2116TIP3   OH227906   0.070   1.213   5.624 -0.0937 -0.0778 -0.2065
 2116TIP3    H127907  -0.016   1.183   5.593  0.8722 -2.0970 -1.1327
 2116TIP3    H227908   0.055   1.238   5.715 -1.7504  0.0240 -0.4744
 2117TIP3   OH227909   3.311   1.199   7.689 -0.3169 -0.2746 -0.3009
 2117TIP3    H127910   3.322   1.106   7.667 -1.0582 -0.0824 -1.5648
 2117TIP3    H227911   3.223   1.204   7.727 -0.3023 -0.0824 -0.2920
 2118TIP3   OH227912   4.194   6.867   1.027  0.3964 -0.9421  0.5813
 2118TIP3    H127913   4.240   6.922   1.090  1.5431 -1.1960 -0.0180
 2118TIP3    H227914   4.249   6.789   1.017  0.6241 -0.5769 -1.2786
 2119TIP3   OH227915   4.369   6.707   0.600 -0.4437  0.3921  0.1762
 2119TIP3    H127916   4.301   6.649   0.635  0.4209 -0.4749  0.4347
 2119TIP3    H227917   4.451   6.671   0.631  0.2906  0.2395 -1.8009
 2120TIP3   OH227918   5.358   1.550   7.522  0.5363  0.2829 -0.0021
 2120TIP3    H127919   5.410   1.613   7.472  0.0113  0.3756 -0.4336
 2120TIP3    H227920   5.342   1.594   7.605 -1.7527  1.7028 -1.1054
 2121TIP3   OH227921   6.894   6.691   1.290 -0.5791 -0.0624  0.0871
 2121TIP3    H127922   6.841   6.690   1.211 -0.2521 -2.4293 -0.1869
 2121TIP3    H227923   6.844   6.744   1.352 -1.6433  0.4728 -1.1876
 2122TIP3   OH227924   4.180   0.381   0.391  0.0344 -0.0019 -0.4513
 2122TIP3    H127925   4.267   0.360   0.426  0.0726  0.5184 -0.2322
 2122TIP3    H227926   4.123   0.384   0.467 -0.4559 -1.5991 -0.7051
 2123TIP3   OH227927   0.074   5.632   6.295 -0.3169 -0.0892 -0.2652
 2123TIP3    H127928   0.027   5.590   6.367  0.5252 -1.7677 -0.6613
 2123TIP3    H227929   0.039   5.592   6.216 -1.0643  1.5716 -0.8234
 2124TIP3   OH227930   2.199   1.431   0.349  0.5050  0.0755 -0.1040
 2124TIP3    H127931   2.260   1.482   0.403  1.5120 -1.3323  0.1480
 2124TIP3    H227932   2.205   1.342   0.384 -1.3815 -0.1915 -0.3811
 2125TIP3   OH227933   5.180   5.560   6.352 -0.2581  0.0996  0.4270
 2125TIP3    H127934   5.190   5.535   6.260  0.4572 -0.3553  0.6126
 2125TIP3    H227935   5.213   5.650   6.356 -0.0011  0.0142  0.2898
 2126TIP3   OH227936   3.590   4.171   7.712  0.3251  0.1783 -0.0821
 2126TIP3    H127937   3.582   4.173   7.616  0.5602  3.4981 -0.1539
 2126TIP3    H227938   3.502   4.193   7.743  0.1242 -1.3759  0.5452
 2127TIP3   OH227939   0.720   2.584   0.780  0.5559  0.1816  0.5255
 2127TIP3    H127940   0.757   2.607   0.694 -0.5923  0.6179  0.1318
 2127TIP3    H227941   0.684   2.666   0.813 -1.6686 -0.5412  0.0785
 2128TIP3   OH227942   6.354   4.163   6.704  0.3457  0.7594  0.5278
 2128TIP3    H127943   6.409   4.241   6.710  0.6869  0.7364 -1.6886
 2128TIP3    H227944   6.368   4.129   6.616 -2.9961  0.5919 -0.0871
 2129TIP3   OH227945   3.576   2.396   1.307 -0.2350 -0.3076  0.1782
 2129TIP3    H127946   3.556   2.340   1.382 -1.5959 -1.3545 -0.9296
 2129TIP3    H227947   3.594   2.482   1.346  2.3365 -1.5255  1.9439
 2130TIP3   OH227948   5.923   4.258   0.365 -0.0473 -0.4564  0.1114
 2130TIP3    H127949   5.872   4.185   0.330  0.3584 -1.5336  1.6977
 2130TIP3    H227950   5.877   4.283   0.445 -0.2414  1.1375 -0.4524
 2131TIP3   OH227951   3.882   0.210   6.678 -0.6155 -0.3845 -0.0241
 2131TIP3    H127952   3.923   0.255   6.605  0.1448 -0.8652  0.0975
 2131TIP3    H227953   3.877   0.277   6.747  0.2954 -0.4119  0.0812
 2132TIP3   OH227954   6.550   1.366   7.484  0.2093  1.0427 -0.2481
 2132TIP3    H127955   6.461   1.340   7.508  0.8664  0.2010  1.3999
 2132TIP3    H227956   6.592   1.390   7.566  1.7919  0.5510 -0.8665
 2133TIP3   OH227957   3.154   6.156   5.695  0.4338 -0.1251  1.1122
 2133TIP3    H127958   3.184   6.131   5.783 -0.5632 -1.2692  1.1451
 2133TIP3    H227959   3.230   6.199   5.656  0.6287  1.2439  2.8469
 2134TIP3   OH227960   1.986   2.970   1.540 -0.1778  0.3685 -0.0865
 2134TIP3    H127961   1.951   3.055   1.565  1.7405  0.3054  3.5432
 2134TIP3    H227962   2.049   2.949   1.609  0.4353 -3.4072 -1.5458
 2135TIP3   OH227963   5.970   0.936   1.771  1.1488  0.0281  0.6139
 2135TIP3    H127964   5.986   0.845   1.746  1.5651  0.1219  0.5315
 2135TIP3    H227965   5.879   0.937   1.802  1.3720 -0.5665  1.3101
 2136TIP3   OH227966   0.313   5.855   5.825  0.2911 -0.1894 -0.3550
 2136TIP3    H127967   0.391   5.890   5.869 -0.5085  0.4236  0.6231
 2136TIP3    H227968   0.321   5.885   5.734 -0.6084  3.1685  0.5143
 2137TIP3   OH227969   5.744   3.725   7.221 -0.2966  0.1748  0.0158
 2137TIP3    H127970   5.739   3.749   7.313  1.3936  0.7562 -0.0192
 2137TIP3    H227971   5.776   3.803   7.177 -0.2805 -0.3545 -0.9527
 2138TIP3   OH227972   0.115   1.902   7.663 -0.2582 -0.3361  0.3093
 2138TIP3    H127973   0.150   1.817   7.691  2.3619  0.7369  0.5276
 2138TIP3    H227974   0.110   1.953   7.744  0.7677  0.5655 -0.1777
 2139TIP3   OH227975   5.989   2.678   0.663 -0.0500 -0.1879 -0.2941
 2139TIP3    H127976   5.931   2.618   0.709  0.7689 -1.1475 -0.4874
 2139TIP3    H227977   6.064   2.625   0.636  1.4829  1.2067  0.9275
 2140TIP3   OH227978   2.298   6.767   1.946  0.2373  0.4383 -0.0224
 2140TIP3    H127979   2.329   6.789   1.859 -0.0702  0.2190 -0.1890
 2140TIP3    H227980   2.370   6.790   2.004  1.1655 -1.1316 -0.5043
 2141TIP3   OH227981   2.367   0.976   1.139 -0.0775 -0.1341  0.6439
 2141TIP3    H127982   2.326   0.892   1.119 -0.6331 -0.1761  1.8993
 2141TIP3    H227983   2.420   0.995   1.062 -0.7927 -1.1088 -0.1197
 2142TIP3   OH227984   6.971   1.506   6.554  0.4505 -0.0403  0.7489
 2142TIP3    H127985   7.041   1.473   6.498 -1.3934  0.7321 -2.2187
 2142TIP3    H227986   7.012   1.574   6.607  2.0383  0.0954 -0.6017
 2143TIP3   OH227987   4.233   3.637   0.601 -0.4532  0.2764  0.1776
 2143TIP3    H127988   4.197   3.669   0.518  1.4340  0.6531 -0.5444
 2143TIP3    H227989   4.224   3.711   0.661 -0.9615  0.3255  0.0462
 2144TIP3   OH227990   4.655   2.298   1.153 -0.4064 -0.0524 -0.3914
 2144TIP3    H127991   4.652   2.391   1.134  0.3457 -0.4572 -2.8826
 2144TIP3    H227992   4.592   2.285   1.224  0.6635  2.5476  1.1524
 2145TIP3   OH227993   1.173   2.456   6.481  0.8544  0.2607  0.0053
 2145TIP3    H127994   1.233   2.442   6.554  0.0505  0.8678  0.7975
 2145TIP3    H227995   1.228   2.494   6.412  1.5276  0.1011  0.4446
 2146TIP3   OH227996   2.578   5.981   5.970  0.1224  0.0536  0.1408
 2146TIP3    H127997   2.526   5.911   5.931  0.5890 -0.3851  0.2966
 2146TIP3    H227998   2.577   6.051   5.906  0.2602 -0.3755 -0.3355
 2147TIP3   OH227999   2.606   6.708   6.654  0.1233 -0.6074  0.2092
 2147TIP3    H128000   2.600   6.730   6.747 -1.2242  2.2677 -0.4186
 2147TIP3    H228001   2.699   6.711   6.634  0.3414 -0.0432  1.2392
 2148TIP3   OH228002   3.476   4.463   7.706  0.3263 -0.3177  0.2317
 2148TIP3    H128003   3.407   4.528   7.717 -0.3668 -1.2735  1.9109
 2148TIP3    H228004   3.526   4.493   7.630 -1.6305  0.6697 -0.7294
 2149TIP3   OH228005   5.252   6.026   1.614 -0.2051  0.4660 -0.5458
 2149TIP3    H128006   5.287   6.075   1.689  0.6869 -0.2080 -0.5114
 2149TIP3    H228007   5.176   5.979   1.649 -0.2335  0.7327 -0.2481
 2150TIP3   OH228008   6.732   1.170   1.943 -0.8509 -0.2203  0.3057
 2150TIP3    H128009   6.771   1.241   1.893 -0.6521 -0.8404 -0.4392
 2150TIP3    H228010   6.662   1.211   1.994  0.2396  0.7586  1.0351
 2151TIP3   OH228011   3.140   4.905   6.662  0.5605  0.2159  0.1269
 2151TIP3    H128012   3.189   4.829   6.632 -1.0575 -0.4214 -1.0142
 2151TIP3    H228013   3.146   4.902   6.757  0.5141 -1.3557  0.1015
 2152TIP3   OH228014   6.326   1.846   7.535  0.6974 -0.2399  0.5511
 2152TIP3    H128015   6.369   1.784   7.477  1.1464  0.5092  0.0752
 2152TIP3    H228016   6.379   1.845   7.615  0.3267 -0.9473  0.7950
 2153TIP3   OH228017   2.855   6.728   6.568 -0.1686  0.6269 -0.2838
 2153TIP3    H128018   2.936   6.689   6.601  0.5854  2.7878  0.5755
 2153TIP3    H228019   2.864   6.724   6.473  0.5022  0.0236 -0.2065
 2154TIP3   OH228020   5.227   0.195   1.226  0.6790 -0.4210 -0.5713
 2154TIP3    H128021   5.248   0.141   1.150  0.8067 -0.8472 -0.2398
 2154TIP3    H228022   5.218   0.284   1.191  0.6067 -0.6340 -1.1001
 2155TIP3   OH228023   2.188   4.145   0.749  0.5485 -0.0058  0.4735
 2155TIP3    H128024   2.124   4.133   0.679  1.1918 -1.1902  0.0611
 2155TIP3    H228025   2.251   4.207   0.713  0.5795 -0.1847  0.2199
 2156TIP3   OH228026   1.633   2.653   7.206  0.0938 -0.0698 -0.6013
 2156TIP3    H128027   1.624   2.737   7.251 -1.3484  0.0909 -1.1401
 2156TIP3    H228028   1.645   2.589   7.277  4.3117  0.8246 -0.2486
 2157TIP3   OH228029   2.675   7.013   7.711  0.0140 -0.0067 -0.2648
 2157TIP3    H128030   2.627   7.089   7.679 -0.4810 -0.4718 -0.6353
 2157TIP3    H228031   2.650   6.941   7.652  0.6333 -0.4111 -0.0492
 2158TIP3   OH228032   1.865   2.703   7.695  0.1405  0.2848 -0.0316
 2158TIP3    H128033   1.870   2.745   7.781  0.2713  0.8418 -0.3063
 2158TIP3    H228034   1.836   2.614   7.713  2.3743 -0.3431  0.8144
 2159TIP3   OH228035   0.166   0.716   6.428 -0.4716  0.4419  0.4738
 2159TIP3    H128036   0.168   0.665   6.347 -0.3056 -0.1554  0.8426
 2159TIP3    H228037   0.074   0.742   6.438 -1.0110 -1.5778  1.3486
 2160TIP3   OH228038   6.620   2.960   2.515  0.0629 -0.1152  0.5755
 2160TIP3    H128039   6.591   3.047   2.487  0.4275  0.1707  1.0682
 2160TIP3    H228040   6.593   2.902   2.444 -1.5459  0.1526  0.9283
 2161TIP3   OH228041   4.069   1.210   6.246  0.3796  0.2357 -0.3146
 2161TIP3    H128042   4.102   1.135   6.296 -0.7824  1.2294  2.1015
 2161TIP3    H228043   3.977   1.190   6.230  0.5468  0.2938 -1.3907
 2162TIP3   OH228044   6.136   2.315   6.521 -0.9168  0.5813  0.1310
 2162TIP3    H128045   6.045   2.322   6.550 -0.3917 -0.1237  2.1855
 2162TIP3    H228046   6.137   2.240   6.461 -1.6240  0.3077  0.4546
 2163TIP3   OH228047   2.293   0.438   6.676  0.0136  0.1365  0.3332
 2163TIP3    H128048   2.319   0.346   6.669  1.0706  0.5443 -1.7545
 2163TIP3    H228049   2.301   0.457   6.769  2.5551 -1.1387  0.4783
 2164TIP3   OH228050   4.020   5.222   6.158 -0.3147 -0.1744 -0.3012
 2164TIP3    H128051   3.990   5.313   6.150 -1.4489 -0.3011  1.7753
 2164TIP3    H228052   4.113   5.231   6.182 -0.8784  0.5630  1.8174
 2165TIP3   OH228053   1.367   0.600   7.798  0.6383 -0.1108  0.0202
 2165TIP3    H128054   1.422   0.624   7.723  0.2501  0.2568 -0.1461
 2165TIP3    H228055   1.316   0.678   7.817 -0.1066 -0.5659 -0.0680
 2166TIP3   OH228056   1.093   2.733   5.759  0.0536  0.3424  0.0116
 2166TIP3    H128057   1.042   2.663   5.800 -0.4693  0.1833 -0.8779
 2166TIP3    H228058   1.169   2.744   5.817  0.1024 -0.8939  0.2250
 2167TIP3   OH228059   5.776   3.487   7.050  0.0788 -0.1437  0.0546
 2167TIP3    H128060   5.683   3.473   7.035 -0.2032  2.0342 -0.5418
 2167TIP3    H228061   5.781   3.561   7.110  1.3798  1.2217 -1.6079
 2168TIP3   OH228062   5.190   3.608   1.112  0.8620 -0.1842 -0.7513
 2168TIP3    H128063   5.127   3.558   1.059  1.6423 -0.6695 -1.2471
 2168TIP3    H228064   5.139   3.680   1.148 -0.0860 -0.8244 -0.7671
 2169TIP3   OH228065   4.119   4.905   7.566 -0.3861 -0.1714 -0.1280
 2169TIP3    H128066   4.181   4.900   7.493 -0.0816  1.1187  0.0250
 2169TIP3    H228067   4.131   4.993   7.602 -2.0950 -0.0027  0.1104
 2170TIP3   OH228068   1.783   6.170   5.850 -0.0227 -0.4120 -0.2622
 2170TIP3    H128069   1.864   6.138   5.810  0.3371  0.1316  0.0175
 2170TIP3    H228070   1.806   6.188   5.941 -1.4142 -3.8818  0.9348
 2171TIP3   OH228071   7.002   5.054   6.140 -1.0614 -0.2637  0.0500
 2171TIP3    H128072   6.989   5.077   6.049 -1.8622 -0.9943 -0.0331
 2171TIP3    H228073   7.066   4.983   6.138 -0.0013  0.6671  0.1720
 2172TIP3   OH228074   6.454   6.828   0.099 -0.1451  0.2664  0.2017
 2172TIP3    H128075   6.373   6.854   0.144  0.3028  0.2305  1.0475
 2172TIP3    H228076   6.438   6.850   0.007 -1.4020 -0.4028  0.2283
 2173TIP3   OH228077   0.123   1.999   0.267 -0.2476  0.2677 -0.4704
 2173TIP3    H128078   0.093   1.937   0.334  0.5011  0.5420  0.1419
 2173TIP3    H228079   0.061   2.071   0.271 -1.3942 -0.6202 -1.5016
 2174TIP3   OH228080   5.580   5.496   0.474 -0.0046 -0.1843  0.2627
 2174TIP3    H128081   5.529   5.576   0.487  0.8792  0.2583  1.1469
 2174TIP3    H228082   5.593   5.461   0.562 -0.5461 -1.4228 -0.1240
 2175TIP3   OH228083   0.086   6.643   0.307 -0.1683  0.2422 -0.0464
 2175TIP3    H128084   0.154   6.702   0.339  0.8356 -0.7338 -0.3149
 2175TIP3    H228085   0.133   6.564   0.282 -1.6086 -1.1952  1.5533
 2176TIP3   OH228086   2.828   4.740   1.157  0.5001 -0.2860 -0.8695
 2176TIP3    H128087   2.898   4.796   1.190  0.5278 -0.9199  0.1823
 2176TIP3    H228088   2.773   4.799   1.104 -1.2127  1.5701  2.6217
 2177TIP3   OH228089   6.677   6.462   7.530  0.0213  0.2355  0.6391
 2177TIP3    H128090   6.699   6.535   7.588  0.6197 -1.0054  2.0461
 2177TIP3    H228091   6.606   6.416   7.575  1.3069 -1.4570  1.0499
 2178TIP3   OH228092   6.993   6.052   7.147  0.3897 -0.3380  0.9580
 2178TIP3    H128093   7.021   6.032   7.236  0.2870 -0.8878  0.8695
 2178TIP3    H228094   6.902   6.024   7.143  0.3987 -0.3338  0.6754
 2179TIP3   OH228095   7.028   4.440   0.963 -0.2208  0.3320 -0.3190
 2179TIP3    H128096   6.940   4.440   0.924 -1.2052 -2.5601  1.5870
 2179TIP3    H228097   7.012   4.435   1.057  2.0339  0.9509  0.1435
 2180TIP3   OH228098   4.720   4.254   0.731  0.4781 -0.2081 -0.1256
 2180TIP3    H128099   4.629   4.242   0.705 -0.1051  2.0714  0.6343
 2180TIP3    H228100   4.738   4.183   0.792 -1.4809  0.4883  1.3412
 2181TIP3   OH228101   4.913   6.637   6.885  0.3161 -0.1755  0.0196
 2181TIP3    H128102   5.005   6.652   6.907 -0.6169  3.1405  2.5621
 2181TIP3    H228103   4.876   6.592   6.961 -1.0942  3.4317  1.7556
 2182TIP3   OH228104   5.229   2.270   0.222  0.2263 -0.1035  0.1810
 2182TIP3    H128105   5.144   2.283   0.180  0.1916 -0.9173 -0.0204
 2182TIP3    H228106   5.208   2.225   0.304  0.3415  0.9818  0.8208
 2183TIP3   OH228107   0.025   6.095   6.444 -0.3483 -0.0715  0.2687
 2183TIP3    H128108  -0.054   6.124   6.398  1.6120  2.1447 -2.0380
 2183TIP3    H228109   0.054   6.171   6.494  1.3024 -0.1817 -0.4477
 2184TIP3   OH228110   0.977   0.531   0.826 -0.1366  0.0766 -0.2111
 2184TIP3    H128111   1.059   0.503   0.867  0.1809 -0.0617 -0.9094
 2184TIP3    H228112   0.910   0.478   0.867 -0.0155  0.9198  1.1108
 2185TIP3   OH228113   3.194   1.631   6.991  0.1753  0.0113 -0.4905
 2185TIP3    H128114   3.125   1.667   6.937  0.4574  1.1299 -0.1382
 2185TIP3    H228115   3.182   1.672   7.077  1.2680  0.2555 -0.4286
 2186TIP3   OH228116   4.033   6.363   7.516  0.1671 -0.1975 -0.3901
 2186TIP3    H128117   4.058   6.376   7.607 -0.9104  0.6147 -0.1884
 2186TIP3    H228118   4.024   6.452   7.481 -1.6820 -0.4331 -0.6347
 2187TIP3   OH228119   6.275   3.597   1.843 -0.1567  0.8143  0.3954
 2187TIP3    H128120   6.198   3.616   1.895  0.7359  2.3496  1.2394
 2187TIP3    H228121   6.310   3.515   1.878 -1.2271  0.2578  0.1831
 2188TIP3   OH228122   3.340   0.953   6.983  0.4431 -0.1846  0.5026
 2188TIP3    H128123   3.304   0.891   7.046  0.8098  1.2315  2.2035
 2188TIP3    H228124   3.319   1.039   7.019  0.4734  0.6968 -1.4610
 2189TIP3   OH228125   4.209   5.874   0.543 -0.0565 -0.7097 -0.2580
 2189TIP3    H128126   4.271   5.897   0.473  0.1779 -0.4675  0.0271
 2189TIP3    H228127   4.260   5.823   0.605  0.1273  0.3700  0.4945
 2190TIP3   OH228128   0.722   2.639   7.161 -0.1536 -0.0396 -0.1984
 2190TIP3    H128129   0.663   2.563   7.160  0.0435 -0.3262  2.6509
 2190TIP3    H228130   0.696   2.689   7.238 -1.0573  3.5410 -2.5928
 2191TIP3   OH228131   4.533   0.420   1.127 -0.5089  0.1063 -0.0176
 2191TIP3    H128132   4.588   0.416   1.049 -0.5100 -0.2095 -0.0013
 2191TIP3    H228133   4.585   0.376   1.195 -0.1382  1.1157  0.3788
 2192TIP3   OH228134   0.607   1.224   1.371 -0.2584  0.2281 -0.3101
 2192TIP3    H128135   0.582   1.132   1.385  1.4925 -0.4045 -1.1136
 2192TIP3    H228136   0.681   1.238   1.429 -0.1917  0.9868 -0.5704
 2193TIP3   OH228137   3.079   2.416   6.619 -0.0491  0.4763 -0.2163
 2193TIP3    H128138   3.140   2.372   6.678  0.2765 -2.6415 -2.5986
 2193TIP3    H228139   2.992   2.397   6.655  0.1835 -0.1242  0.0348
 2194TIP3   OH228140   5.437   1.604   6.304 -0.5704  0.2663 -0.2427
 2194TIP3    H128141   5.401   1.599   6.393 -1.7684  0.1700 -0.7196
 2194TIP3    H228142   5.406   1.688   6.271  2.3722  1.7589  0.4500
 2195TIP3   OH228143   7.054   4.464   6.076  0.0354  0.0330  0.0119
 2195TIP3    H128144   7.087   4.397   6.017  2.5028  0.6632  0.5497
 2195TIP3    H228145   7.018   4.531   6.019 -1.2709 -1.1094 -0.5752
 2196TIP3   OH228146   4.348   5.352   0.697 -0.0821 -0.1016 -0.2840
 2196TIP3    H128147   4.370   5.445   0.704 -1.2402  0.2023 -0.3695
 2196TIP3    H228148   4.333   5.338   0.604 -1.3884  0.0049 -0.1067
 2197TIP3   OH228149   6.643   6.568   6.534  0.0840  0.3554 -0.3289
 2197TIP3    H128150   6.616   6.491   6.584  1.2232 -0.3043 -0.6772
 2197TIP3    H228151   6.581   6.637   6.559  0.8426  0.1836  2.3220
 2198TIP3   OH228152   4.991   0.721   0.810  0.8135 -0.3052  0.3295
 2198TIP3    H128153   5.030   0.784   0.871  1.2305  0.2263 -0.4672
 2198TIP3    H228154   4.950   0.776   0.743  3.4129 -0.7845 -1.8260
 2199TIP3   OH228155   5.246   4.125   7.568 -0.2863  0.1132  0.8482
 2199TIP3    H128156   5.276   4.201   7.619  2.2977 -1.2131  1.4724
 2199TIP3    H228157   5.175   4.088   7.619  0.4076  0.4182  2.0712
 2200TIP3   OH228158   7.081   5.378   5.723  0.2114 -0.3290  0.6078
 2200TIP3    H128159   7.067   5.466   5.759 -2.0713  0.2367 -1.4280
 2200TIP3    H228160   7.004   5.328   5.750  1.2312 -1.5871  1.2848
 2201TIP3   OH228161   7.146   1.087   6.209  0.3204  0.4187 -0.3099
 2201TIP3    H128162   7.111   1.092   6.120 -0.0424 -0.3420 -0.2155
 2201TIP3    H228163   7.202   1.165   6.217 -0.5716  1.1268 -0.7964
 2202TIP3   OH228164   4.279   4.222   7.332 -0.1442 -0.4214  0.4115
 2202TIP3    H128165   4.216   4.294   7.327  1.0542  0.5861 -1.8469
 2202TIP3    H228166   4.327   4.238   7.414 -0.2231  1.1150  0.1896
 2203TIP3   OH228167   5.119   0.404   1.087  0.6787 -0.2654 -0.1172
 2203TIP3    H128168   5.128   0.477   1.149 -0.4566 -1.2767  1.3028
 2203TIP3    H228169   5.059   0.437   1.020  0.6049  0.2888  0.2107
 2204TIP3   OH228170   4.952   6.530   1.345 -0.8513  0.0484  0.1132
 2204TIP3    H128171   4.982   6.619   1.324  1.1478 -0.4973  0.4425
 2204TIP3    H228172   4.976   6.519   1.437  1.2481 -1.6512 -0.5485
 2205TIP3   OH228173   2.837   4.862   0.774  0.5722  0.3596  0.0587
 2205TIP3    H128174   2.749   4.898   0.780  0.1771 -0.3648 -0.9101
 2205TIP3    H228175   2.824   4.767   0.783  1.3237  0.2943  0.4876
 2206TIP3   OH228176   4.648   4.049   2.172 -0.3521 -0.0839  0.1151
 2206TIP3    H128177   4.580   4.011   2.227 -0.5691 -0.1668 -0.2097
 2206TIP3    H228178   4.669   3.980   2.109 -0.5434  0.2341 -0.2990
 2207TIP3   OH228179   4.209   6.623   1.834 -0.0443  0.4660  0.0374
 2207TIP3    H128180   4.252   6.538   1.844 -0.7317 -0.1613 -1.7469
 2207TIP3    H228181   4.280   6.684   1.817  0.5313  0.4367  2.1125
 2208TIP3   OH228182   1.199   4.266   7.854  0.1502 -0.0151 -0.2031
 2208TIP3    H128183   1.209   4.341   7.913  0.7454  0.7954 -1.2983
 2208TIP3    H228184   1.166   4.305   7.773  0.0019 -1.0169 -0.6309
 2209TIP3   OH228185   4.400   1.364   0.987 -0.5118  0.4824 -0.0545
 2209TIP3    H128186   4.442   1.356   1.072 -0.9927  0.2329  0.1597
 2209TIP3    H228187   4.326   1.424   1.002 -0.0727  1.1499 -0.4909
 2210TIP3   OH228188   1.606   4.704   0.024 -0.1885  0.2107  0.1797
 2210TIP3    H128189   1.656   4.640   0.073  0.4126  0.8907  0.4664
 2210TIP3    H228190   1.565   4.653  -0.047 -0.2544 -0.5939  0.7811
 2211TIP3   OH228191   1.877   6.208   1.439 -0.0512  0.0651 -0.5330
 2211TIP3    H128192   1.904   6.212   1.530 -0.1581  1.3262 -0.5470
 2211TIP3    H228193   1.925   6.279   1.396 -0.4760 -0.1188 -1.3319
 2212TIP3   OH228194   0.802   0.513   6.965 -0.1004 -0.7125  0.1089
 2212TIP3    H128195   0.876   0.466   7.006 -0.6588 -1.1454  0.6420
 2212TIP3    H228196   0.792   0.592   7.019  1.0523  0.2274 -0.9853
 2213TIP3   OH228197   4.588   4.360   7.761 -0.5935 -0.1129 -0.5904
 2213TIP3    H128198   4.660   4.421   7.775  1.1253 -2.0965 -0.3106
 2213TIP3    H228199   4.554   4.382   7.674 -0.0581  1.2318 -0.4771
 2214TIP3   OH228200   5.894   0.260   0.516  0.1616 -0.5177  0.0013
 2214TIP3    H128201   5.803   0.275   0.542  0.4773 -0.0877  0.8932
 2214TIP3    H228202   5.901   0.165   0.506 -0.6691 -0.4786 -1.1926
 2215TIP3   OH228203   2.140   4.478   1.630 -0.5289 -0.2025 -0.2159
 2215TIP3    H128204   2.224   4.524   1.623 -0.9365  0.4260 -1.2828
 2215TIP3    H228205   2.134   4.454   1.723  0.6934 -0.0124 -0.0651
 2216TIP3   OH228206   4.023   0.482   1.298 -0.0077  0.2563  0.0130
 2216TIP3    H128207   3.959   0.463   1.231 -0.7614  0.6801  0.5958
 2216TIP3    H228208   4.050   0.573   1.281  1.0509 -0.1726 -0.7136
 2217TIP3   OH228209   0.384   2.165   8.010  0.1281 -0.3832  0.2690
 2217TIP3    H128210   0.368   2.074   8.036 -0.9575  0.0580  1.1878
 2217TIP3    H228211   0.475   2.165   7.980  0.2954 -1.6657  0.7178
 2218TIP3   OH228212   4.888   2.280   7.353  0.3643 -0.0149  0.1467
 2218TIP3    H128213   4.829   2.332   7.298  1.5094  1.6700  0.4316
 2218TIP3    H228214   4.837   2.259   7.431 -0.6925 -0.8934 -0.7441
 2219TIP3   OH228215   5.237   5.629   6.090 -0.2228  0.2904 -0.5872
 2219TIP3    H128216   5.205   5.539   6.081 -0.9623  0.4948 -0.1279
 2219TIP3    H228217   5.169   5.683   6.049  0.9998  0.5514 -2.3651
 2220TIP3   OH228218   1.328   3.087   7.762 -0.6474 -0.0404  0.3320
 2220TIP3    H128219   1.307   3.002   7.725  0.2629 -0.0046 -0.3083
 2220TIP3    H228220   1.335   3.071   7.856 -0.5440 -0.6622  0.2219
 2221TIP3   OH228221   0.849   2.825   0.067  0.2935 -0.1148 -0.0047
 2221TIP3    H128222   0.937   2.792   0.050  0.4600  0.3955 -0.1310
 2221TIP3    H228223   0.859   2.920   0.077 -0.0048 -0.2050  1.5180
 2222TIP3   OH228224   0.849   3.525   0.531 -0.4394  0.5947 -0.1277
 2222TIP3    H128225   0.786   3.455   0.549  0.4372 -0.2336 -0.2393
 2222TIP3    H228226   0.926   3.502   0.583  0.4861  0.5623 -1.4576
 2223TIP3   OH228227   0.785   5.940   0.523 -0.3074 -0.0541  0.4964
 2223TIP3    H128228   0.799   5.946   0.429  1.8028  3.4981  0.8558
 2223TIP3    H228229   0.710   5.882   0.533 -0.7322 -0.3833 -3.3540
 2224TIP3   OH228230   0.193   0.881   6.116 -0.2666  0.3369 -0.3656
 2224TIP3    H128231   0.255   0.820   6.076  0.4142  0.4121  0.5584
 2224TIP3    H228232   0.121   0.826   6.145 -0.0096  0.0736 -0.2244
 2225TIP3   OH228233   6.736   1.131   0.722 -0.0599 -0.6101 -0.3471
 2225TIP3    H128234   6.754   1.102   0.632  1.8992 -4.9476  1.1413
 2225TIP3    H228235   6.822   1.133   0.764 -0.9434  1.0494  1.5906
 2226TIP3   OH228236   6.251   4.862   1.604 -0.2432 -0.3686  0.1049
 2226TIP3    H128237   6.344   4.862   1.580 -0.4600  0.5324 -0.8370
 2226TIP3    H228238   6.250   4.877   1.698  0.5786 -0.7009  0.1719
 2227TIP3   OH228239   3.282   3.607   6.082  0.0424  0.2103  0.2431
 2227TIP3    H128240   3.366   3.571   6.108 -0.5525 -0.7661  0.9089
 2227TIP3    H228241   3.217   3.551   6.126 -0.9509  0.8778 -0.3167
 2228TIP3   OH228242   5.165   5.926   6.622  0.0588 -0.7830  0.8450
 2228TIP3    H128243   5.216   5.923   6.703  3.1455  2.7194 -0.6723
 2228TIP3    H228244   5.214   5.870   6.561 -0.2732 -0.6590  0.4582
 2229TIP3   OH228245   7.010   1.855   7.567 -0.2355 -0.0855 -0.1931
 2229TIP3    H128246   7.095   1.889   7.594 -1.0868  2.4455 -0.3526
 2229TIP3    H228247   6.960   1.848   7.648 -0.1079 -0.8350 -0.1796
 2230TIP3   OH228248   3.116   1.186   6.667 -0.1473 -0.4738 -1.2789
 2230TIP3    H128249   3.049   1.229   6.720  2.8612  0.6660  1.9875
 2230TIP3    H228250   3.142   1.252   6.603  0.6598  0.6122  0.1380
 2231TIP3   OH228251   2.506   2.470   1.718  0.5924 -0.3029 -0.1376
 2231TIP3    H128252   2.473   2.559   1.725 -0.4420 -0.6198 -0.7832
 2231TIP3    H228253   2.493   2.432   1.805 -3.1184 -1.1868 -0.9323
 2232TIP3   OH228254   2.161   1.744   0.004  0.3766  0.2247  0.0881
 2232TIP3    H128255   2.195   1.656  -0.013  2.5066  0.9610  0.1193
 2232TIP3    H228256   2.087   1.754  -0.054  0.1444 -1.5651  0.0450
 2233TIP3   OH228257   5.781   3.696   6.215  0.6171  0.2980 -0.1547
 2233TIP3    H128258   5.821   3.610   6.203  0.9464  0.5103 -0.6166
 2233TIP3    H228259   5.696   3.678   6.255  0.4313 -0.2840 -0.7899
 2234TIP3   OH228260   3.180   2.277   5.794 -0.2349 -0.4178 -0.3073
 2234TIP3    H128261   3.263   2.231   5.783 -1.0184 -1.7784 -0.8226
 2234TIP3    H228262   3.203   2.360   5.835  1.0203 -2.2398  3.0083
 2235TIP3   OH228263   1.116   0.454   7.339 -0.8151  0.3930  0.4599
 2235TIP3    H128264   1.086   0.435   7.251 -2.1022  0.2541  0.9126
 2235TIP3    H228265   1.192   0.396   7.352  0.1034  1.2268 -0.9316
 2236TIP3   OH228266   1.983   2.670   0.802  0.0827 -0.6488 -0.4718
 2236TIP3    H128267   1.966   2.737   0.868  0.5135 -2.8707  2.0884
 2236TIP3    H228268   2.076   2.648   0.814  0.1703 -1.1012 -1.8352
 2237TIP3   OH228269   2.517   4.370   6.420  0.0745  0.2056  0.4234
 2237TIP3    H128270   2.562   4.286   6.424 -0.0607  0.1824  2.5385
 2237TIP3    H228271   2.433   4.355   6.464 -1.1645  0.7879 -1.5995
 2238TIP3   OH228272   2.489   3.365   7.545 -0.4266  0.4032 -0.3288
 2238TIP3    H128273   2.467   3.424   7.617  0.5965  0.6886 -0.2228
 2238TIP3    H228274   2.528   3.289   7.587  0.5239  0.7338 -0.5801
 2239TIP3   OH228275   4.169   0.288   7.322 -0.0968  0.2018  0.3356
 2239TIP3    H128276   4.107   0.361   7.320  2.9598  3.0129  0.0514
 2239TIP3    H228277   4.196   0.282   7.413 -0.6604 -0.9443  0.4442
 2240TIP3   OH228278   6.887   1.416   7.204 -0.1130  0.7323  0.1891
 2240TIP3    H128279   6.833   1.495   7.211 -1.5554 -0.3600  2.3672
 2240TIP3    H228280   6.836   1.347   7.247  2.3727 -0.7132  1.0787
 2241TIP3   OH228281   4.158   3.017   2.193 -0.3931  0.2589  0.4127
 2241TIP3    H128282   4.181   3.090   2.136  0.6258  0.1311  0.6535
 2241TIP3    H228283   4.236   3.001   2.246 -0.4113 -1.3533 -0.0050
 2242TIP3   OH228284   0.502   0.066   1.022  0.4603  0.4506 -0.1600
 2242TIP3    H128285   0.440   0.109   1.081  0.7876  0.4359  0.1999
 2242TIP3    H228286   0.456  -0.012   0.991 -0.5207  1.5618 -1.6013
 2243TIP3   OH228287   4.304   7.030   0.086 -0.5455 -0.4417 -0.6143
 2243TIP3    H128288   4.218   7.047   0.124  0.3794  0.8854  0.9663
 2243TIP3    H228289   4.363   7.022   0.161  1.0694  0.6783 -1.7016
 2244TIP3   OH228290   1.936   4.707   0.404 -0.0963  0.8811 -0.4424
 2244TIP3    H128291   2.016   4.658   0.418 -0.3382  0.7972  0.6964
 2244TIP3    H228292   1.939   4.731   0.311 -0.1958 -1.6707 -1.1982
 2245TIP3   OH228293   4.555   2.509   1.875  0.2203  0.4612  0.6129
 2245TIP3    H128294   4.524   2.482   1.788 -0.8873 -2.6314  1.8040
 2245TIP3    H228295   4.589   2.597   1.862  1.3068 -0.3126 -3.2148
 2246TIP3   OH228296   1.107   5.029   6.881  0.8967  0.2661  0.0456
 2246TIP3    H128297   1.126   5.098   6.818  0.7197  0.1294 -0.1624
 2246TIP3    H228298   1.021   4.995   6.854  1.2097 -0.3763 -0.1679
 2247TIP3   OH228299   5.964   1.599   0.585  0.4006 -0.3039  0.7428
 2247TIP3    H128300   5.877   1.589   0.547 -0.1355 -1.1913  2.1130
 2247TIP3    H228301   5.984   1.692   0.577 -0.9005 -0.0001  0.8930
 2248TIP3   OH228302   2.114   2.828   1.296 -0.2241 -0.2638 -0.3751
 2248TIP3    H128303   2.056   2.826   1.372 -0.5938 -0.3072 -0.6611
 2248TIP3    H228304   2.192   2.779   1.325 -1.0719 -1.8113 -0.5881
 2249TIP3   OH228305   3.126   0.683   7.226 -0.1470 -0.4107 -0.1645
 2249TIP3    H128306   3.065   0.674   7.153 -2.1252  2.2991  1.0053
 2249TIP3    H228307   3.140   0.777   7.234  2.0476 -0.7950  1.3799
 2250TIP3   OH228308   1.192   1.981   1.311 -0.0864  0.0378  0.0776
 2250TIP3    H128309   1.284   2.000   1.330  0.0058  1.5701 -1.6107
 2250TIP3    H228310   1.143   2.046   1.360 -0.3658 -1.3053  1.6495
 2251TIP3   OH228311   0.390   4.114   0.919  0.0158 -0.0246  0.3803
 2251TIP3    H128312   0.455   4.086   0.983 -0.9797 -1.9803  0.6027
 2251TIP3    H228313   0.375   4.036   0.865 -2.3157  0.2795  0.4970
 2252TIP3   OH228314   3.581   0.516   1.710 -0.0726 -0.4492  0.6169
 2252TIP3    H128315   3.574   0.527   1.615  0.5760 -1.4362  0.4377
 2252TIP3    H228316   3.502   0.469   1.735 -0.0115 -0.6250  0.4823
 2253TIP3   OH228317   0.655   5.040   7.839 -0.1577 -0.0858  0.7367
 2253TIP3    H128318   0.735   5.046   7.891  0.2848  0.7468 -0.0226
 2253TIP3    H228319   0.636   5.130   7.813  0.4676 -0.6110 -1.7648
 2254TIP3   OH228320   1.104   3.358   7.494  0.4903  0.1860 -0.4951
 2254TIP3    H128321   1.137   3.278   7.534  0.1286 -0.1438 -0.8403
 2254TIP3    H228322   1.083   3.332   7.404 -0.7155  0.3795 -0.2842
 2255TIP3   OH228323   5.508   4.232   6.254 -0.5289 -0.3865  0.1902
 2255TIP3    H128324   5.440   4.293   6.284  0.1379  1.5705 -2.0085
 2255TIP3    H228325   5.483   4.211   6.164  1.7454  0.4506 -0.7061
 2256TIP3   OH228326   3.420   2.116   0.230 -0.3658 -0.5486  0.2111
 2256TIP3    H128327   3.355   2.140   0.296 -0.4355 -1.4588  0.4850
 2256TIP3    H228328   3.409   2.181   0.161  1.8261  2.4249  2.3867
 2257TIP3   OH228329   6.934   2.613   1.941 -0.0797 -0.4033 -0.2513
 2257TIP3    H128330   6.992   2.636   2.013  0.7108  0.1454 -1.0369
 2257TIP3    H228331   6.849   2.651   1.965  0.0993 -0.4716  0.5102
 2258TIP3   OH228332   6.420   4.641   0.497 -0.4361  0.1279  0.2605
 2258TIP3    H128333   6.504   4.684   0.483  0.0703 -0.6242  0.9198
 2258TIP3    H228334   6.374   4.699   0.559 -0.2750  0.3688  0.1564
 2259TIP3   OH228335   1.229   1.820   6.195 -0.1670  0.1834  0.2410
 2259TIP3    H128336   1.293   1.772   6.247 -1.2979  0.9308  2.4386
 2259TIP3    H228337   1.273   1.836   6.112  1.2065 -2.2915  0.3833
 2260TIP3   OH228338   5.495   5.589   6.228 -0.2796  0.3514  0.1274
 2260TIP3    H128339   5.476   5.507   6.183 -0.7612 -0.5861  1.9646
 2260TIP3    H228340   5.415   5.641   6.218  0.0161  0.6231 -1.0107
 2261TIP3   OH228341   5.268   5.001   7.862 -0.0539 -0.0169 -0.1738
 2261TIP3    H128342   5.356   5.030   7.837  0.1978 -0.8130 -0.2368
 2261TIP3    H228343   5.241   4.944   7.790 -0.3531 -0.3015  0.1627
 2262TIP3   OH228344   2.440   3.574   2.142 -0.2213 -0.2553 -0.2393
 2262TIP3    H128345   2.474   3.556   2.054 -1.2687 -1.8596 -0.3591
 2262TIP3    H228346   2.463   3.496   2.193 -2.5661 -0.8813 -0.0231
 2263TIP3   OH228347   0.273   4.959   6.742  0.0303 -0.4971  0.0155
 2263TIP3    H128348   0.232   5.035   6.702  3.1341  0.0809 -2.5136
 2263TIP3    H228349   0.235   4.884   6.695  1.7981  0.0424 -2.5350
 2264TIP3   OH228350   3.735   3.562   0.479 -0.1556  0.6551 -0.4205
 2264TIP3    H128351   3.659   3.505   0.474 -0.5203  0.8706  1.6961
 2264TIP3    H228352   3.766   3.553   0.569  2.3699  0.5431 -1.2297
 2265TIP3   OH228353   5.039   2.738   6.040 -0.1007 -0.0560  0.5133
 2265TIP3    H128354   5.056   2.727   5.946 -0.3389  0.2242  0.4362
 2265TIP3    H228355   4.985   2.662   6.063 -0.4196  0.1108  0.3234
 2266TIP3   OH228356   0.095   3.221   1.164 -0.1420  0.1691  0.4380
 2266TIP3    H128357   0.129   3.310   1.180 -0.5574  0.5409 -0.6426
 2266TIP3    H228358   0.016   3.216   1.217  1.3087 -0.5613  2.6650
 2267TIP3   OH228359   7.059   0.857   1.327  0.1901  0.0031  0.2647
 2267TIP3    H128360   7.050   0.817   1.241 -0.5611 -1.2387  0.8898
 2267TIP3    H228361   7.150   0.842   1.352  0.5580  0.8586 -0.5339
 2268TIP3   OH228362   4.812   2.969   6.854 -0.0642  0.3452 -0.1917
 2268TIP3    H128363   4.894   2.950   6.809 -0.5474 -1.4872 -0.3495
 2268TIP3    H228364   4.805   2.902   6.922 -0.6705  1.4419  0.8678
 2269TIP3   OH228365   1.341   0.518   0.308 -0.4308 -0.2073  0.2873
 2269TIP3    H128366   1.272   0.582   0.324  1.1070  1.5752  0.2229
 2269TIP3    H228367   1.371   0.536   0.219 -0.2148 -1.2804  0.1272
 2270TIP3   OH228368   0.116   5.062   1.417  0.6231 -0.0896 -0.7653
 2270TIP3    H128369   0.129   4.977   1.459  0.9514  0.3880  0.1196
 2270TIP3    H228370   0.204   5.095   1.401  0.5234  0.8329  0.4627
 2271TIP3   OH228371   3.882   3.717   6.851  0.3887 -0.1398 -0.1959
 2271TIP3    H128372   3.887   3.640   6.908 -0.9758 -0.7232 -0.8272
 2271TIP3    H228373   3.822   3.777   6.896 -2.0683 -1.2981 -1.7077
 2272TIP3   OH228374   6.769   0.011   0.844 -0.4475  0.4483 -0.3651
 2272TIP3    H128375   6.694  -0.037   0.808 -0.2057 -0.1818 -0.0482
 2272TIP3    H228376   6.789   0.077   0.778 -0.4494 -0.2407 -1.0718
 2273TIP3   OH228377   1.491   6.576   7.307 -0.0661 -0.1930  1.0010
 2273TIP3    H128378   1.409   6.559   7.261  0.2228 -1.2289  0.8277
 2273TIP3    H228379   1.496   6.507   7.374 -0.5700  1.3910  2.7466
 2274TIP3   OH228380   2.015   3.092   1.244  0.6566 -0.3147 -0.1015
 2274TIP3    H128381   2.064   3.010   1.244  1.1169 -0.0450  0.1507
 2274TIP3    H228382   1.995   3.109   1.336 -0.3365 -0.6662 -0.2447
 2275TIP3   OH228383   3.207   3.925   5.700  0.3495  0.0857 -0.4025
 2275TIP3    H128384   3.269   3.910   5.628  1.0727 -0.6908  0.3544
 2275TIP3    H228385   3.214   3.847   5.754 -0.6461  0.3880  0.1868
 2276TIP3   OH228386   1.044   1.964   6.362 -0.1518 -0.3434  0.4196
 2276TIP3    H128387   1.093   1.906   6.303  0.3096  3.7575 -3.8556
 2276TIP3    H228388   1.112   2.014   6.409 -0.4301 -0.4178  0.9046
 2277TIP3   OH228389   1.720   5.130   1.114 -0.1953 -0.1034 -0.0912
 2277TIP3    H128390   1.769   5.093   1.188  0.3985  0.3239 -0.2618
 2277TIP3    H228391   1.663   5.196   1.154 -1.1316 -1.0518  0.1919
 2278TIP3   OH228392   5.894   2.371   7.929 -0.1688  0.3390 -0.5602
 2278TIP3    H128393   5.858   2.454   7.899  0.5573  0.4760 -1.0851
 2278TIP3    H228394   5.903   2.382   8.024  0.7214  1.1907 -0.7265
 2279TIP3   OH228395   3.784   4.542   6.156 -0.6337 -0.5394 -0.5857
 2279TIP3    H128396   3.828   4.472   6.109 -0.7823 -1.3146  0.4057
 2279TIP3    H228397   3.812   4.622   6.111 -0.5017 -1.2177 -1.7585
 2280TIP3   OH228398   1.420   5.431   6.169 -0.0872 -0.5202  0.4515
 2280TIP3    H128399   1.336   5.466   6.139  0.1179 -0.7318 -0.3745
 2280TIP3    H228400   1.440   5.359   6.110  1.0065 -0.0451  0.2078
 2281TIP3   OH228401   7.118   5.595   7.510  0.1006  0.2506 -0.2245
 2281TIP3    H128402   7.122   5.688   7.491 -0.3287 -0.0825 -2.1436
 2281TIP3    H228403   7.036   5.565   7.470  0.7360 -1.1312 -0.5654
 2282TIP3   OH228404   7.126   6.226   1.830  0.1687 -0.0480  0.3157
 2282TIP3    H128405   7.175   6.182   1.761 -0.2603 -0.3121  0.1826
 2282TIP3    H228406   7.047   6.174   1.842  0.4738 -0.3099  1.3643
 2283TIP3   OH228407   2.869   4.932   6.605 -0.0386 -0.5653 -0.1844
 2283TIP3    H128408   2.959   4.948   6.632 -0.8203  1.9254  1.2545
 2283TIP3    H228409   2.854   4.839   6.623  1.4347 -0.4281  2.0891
 2284TIP3   OH228410   6.813   4.756   7.682  0.2934 -0.5009 -0.0110
 2284TIP3    H128411   6.774   4.842   7.668 -0.0718 -0.7588 -0.5908
 2284TIP3    H228412   6.908   4.772   7.680  0.2438 -0.2981 -1.3273
 2285TIP3   OH228413   1.144   5.528   1.904  0.3441  0.3889  0.0609
 2285TIP3    H128414   1.069   5.514   1.847 -0.2927 -0.4486  1.0762
 2285TIP3    H228415   1.217   5.489   1.856 -0.1321 -0.0739 -0.2999
 2286TIP3   OH228416   1.813   0.815   7.973 -0.4589 -0.7150  0.4350
 2286TIP3    H128417   1.805   0.739   8.031  1.3196 -2.9812 -2.0598
 2286TIP3    H228418   1.739   0.808   7.914 -0.9836  0.2741  0.9461
 2287TIP3   OH228419   2.266   4.336   6.539  0.1598 -0.3056  0.1142
 2287TIP3    H128420   2.206   4.306   6.471 -2.2966  1.8598  1.1544
 2287TIP3    H228421   2.239   4.289   6.618  0.2635  0.1993  0.4571
 2288TIP3   OH228422   4.775   0.143   6.727 -0.6855  0.3953  0.0236
 2288TIP3    H128423   4.855   0.120   6.775 -1.4661 -0.2552  1.0549
 2288TIP3    H228424   4.739   0.058   6.701 -1.1229  0.6814 -0.2963
 2289TIP3   OH228425   3.691   5.869   6.456  0.1316  0.3837  0.5029
 2289TIP3    H128426   3.785   5.880   6.443  0.2896 -0.2111  1.1195
 2289TIP3    H228427   3.654   5.953   6.428  0.5151 -0.4106 -2.8056
 2290TIP3   OH228428   6.118   3.648   6.201  0.2144  0.3850  0.1418
 2290TIP3    H128429   6.062   3.639   6.124  0.7975  2.2750 -0.5588
 2290TIP3    H228430   6.099   3.735   6.235  1.0215  0.1412  1.2956
 2291TIP3   OH228431   1.056   6.181   0.303  0.4211  0.4823  0.5855
 2291TIP3    H128432   1.118   6.116   0.335  0.3334 -0.3391 -0.8129
 2291TIP3    H228433   1.031   6.232   0.380  2.2173  0.3249  1.3004
 2292TIP3   OH228434   2.524   3.225   1.347 -0.2627 -0.2181 -0.0868
 2292TIP3    H128435   2.601   3.283   1.350 -0.7864  0.4874 -0.1127
 2292TIP3    H228436   2.494   3.222   1.438 -0.0063 -0.7685 -0.0188
 2293TIP3   OH228437   5.507   3.585   1.572 -0.3208 -0.3976  0.2235
 2293TIP3    H128438   5.542   3.601   1.660  1.4184 -2.1659 -0.0809
 2293TIP3    H228439   5.553   3.647   1.516  0.0350 -0.6067  0.2812
 2294TIP3   OH228440   2.998   4.460   7.421  0.3504 -0.1496 -0.6467
 2294TIP3    H128441   2.957   4.531   7.469 -0.6388 -0.4042 -1.0949
 2294TIP3    H228442   3.091   4.483   7.418  0.1319  0.8055 -0.2637
 2295TIP3   OH228443   6.049   0.228   0.139 -0.0002 -0.1404 -0.2213
 2295TIP3    H128444   5.968   0.260   0.099  0.0476  3.3226  2.0113
 2295TIP3    H228445   6.030   0.137   0.161 -2.6087  0.0142 -1.4097
 2296TIP3   OH228446   5.636   5.371   7.840  0.0896 -0.2770  1.2481
 2296TIP3    H128447   5.652   5.452   7.793 -0.1537 -0.5324  0.7148
 2296TIP3    H228448   5.709   5.363   7.901  0.1678  0.2863  1.2281
 2297TIP3   OH228449   6.888   0.122   7.284  0.2873  0.2760  0.3418
 2297TIP3    H128450   6.844   0.051   7.331  1.0585 -0.0568  0.5903
 2297TIP3    H228451   6.975   0.087   7.265  0.0273  0.4494 -1.2496
 2298TIP3   OH228452   2.592   2.200   6.998 -0.7709 -0.1131  0.6374
 2298TIP3    H128453   2.587   2.116   6.953 -0.2919  0.3108 -0.2482
 2298TIP3    H228454   2.546   2.261   6.939  1.0659  0.7225  0.0002
 2299TIP3   OH228455   2.217   6.262   6.429 -0.4513  0.3970  0.1734
 2299TIP3    H128456   2.305   6.233   6.454  0.5296  2.4930 -0.6576
 2299TIP3    H228457   2.194   6.329   6.494 -0.9364  0.6946 -0.2947
 2300TIP3   OH228458   4.541   3.693   6.782  0.5977 -0.5781 -0.2257
 2300TIP3    H128459   4.465   3.747   6.760  1.2298  0.0013 -1.0666
 2300TIP3    H228460   4.529   3.613   6.730 -0.4136 -1.3471  1.1314
 2301TIP3   OH228461   1.634   7.073   7.142 -0.4538 -0.0635 -0.1891
 2301TIP3    H128462   1.605   7.136   7.076  0.8484  1.0337  0.2450
 2301TIP3    H228463   1.702   7.022   7.098 -0.5221 -0.2267 -0.1059
 2302TIP3   OH228464   2.757   6.695   0.279 -0.6023  0.3622 -0.5291
 2302TIP3    H128465   2.832   6.654   0.321 -0.0626  1.7458 -0.1039
 2302TIP3    H228466   2.747   6.779   0.323 -0.5529  1.4929 -2.5571
 2303TIP3   OH228467   0.566   6.743   1.217  0.7316  0.2988 -0.2339
 2303TIP3    H128468   0.473   6.765   1.216  0.4893 -0.6494  0.2435
 2303TIP3    H228469   0.574   6.667   1.160  1.1950  0.3254 -0.2076
 2304TIP3   OH228470   6.789   3.441   7.886  1.0134 -0.1475 -0.4344
 2304TIP3    H128471   6.877   3.476   7.884  0.2861  1.7668 -1.3132
 2304TIP3    H228472   6.774   3.417   7.977  1.7690  1.3250  0.1068
 2305TIP3   OH228473   1.510   6.848   7.505  0.2102  0.4785 -0.5524
 2305TIP3    H128474   1.540   6.763   7.473 -0.1334  1.4635 -3.8072
 2305TIP3    H228475   1.420   6.832   7.534  0.8935 -0.6737  1.1165
 2306TIP3   OH228476   1.568   0.970   0.181 -0.0178 -0.5237  0.3340
 2306TIP3    H128477   1.529   0.948   0.097  0.4389  2.2018 -0.7111
 2306TIP3    H228478   1.658   0.938   0.176 -0.3824 -1.5913  0.3817
 2307TIP3   OH228479   5.114   5.023   0.676  0.0668 -0.1032  0.1895
 2307TIP3    H128480   5.135   4.942   0.723 -0.3923 -0.3148  0.0418
 2307TIP3    H228481   5.187   5.081   0.694 -0.2834 -0.0444  1.5032
 2308TIP3   OH228482   1.161   3.110   0.514  0.1482 -0.3798  0.2571
 2308TIP3    H128483   1.167   3.023   0.475  2.6760 -0.3670  0.4719
 2308TIP3    H228484   1.150   3.094   0.608  1.9586 -0.5292  0.4717
 2309TIP3   OH228485   6.485   3.657   0.265 -0.1699  0.6469 -0.2714
 2309TIP3    H128486   6.403   3.607   0.273  0.3863 -0.6803 -2.2579
 2309TIP3    H228487   6.543   3.619   0.331 -1.6701  2.9261  2.5870
 2310TIP3   OH228488   4.912   1.356   0.856  0.2229  0.5217  0.1271
 2310TIP3    H128489   4.886   1.293   0.923  0.1281 -0.1323 -0.5216
 2310TIP3    H228490   4.834   1.365   0.801  0.9900 -0.6236 -1.1883
 2311TIP3   OH228491   2.331   1.577   7.777  0.1894  0.2699 -0.0365
 2311TIP3    H128492   2.286   1.504   7.735 -2.0628  1.2154  0.5426
 2311TIP3    H228493   2.311   1.567   7.871  0.5316  1.1612  0.1454
 2312TIP3   OH228494   2.217   2.490   6.662 -0.0914  0.6412  0.0444
 2312TIP3    H128495   2.196   2.509   6.571  2.0251  1.0322 -0.4196
 2312TIP3    H228496   2.243   2.574   6.699 -1.0176  0.5051  1.0591
 2313TIP3   OH228497   2.075   5.459   1.106 -0.7407 -0.2832 -0.1597
 2313TIP3    H128498   2.128   5.539   1.100 -0.4429 -0.5110 -0.6153
 2313TIP3    H228499   2.069   5.442   1.200  1.4320 -1.1873 -0.1251
 2314TIP3   OH228500   0.920   5.872   6.409  0.7425 -0.0609 -0.4488
 2314TIP3    H128501   0.930   5.776   6.412  2.3671  0.0859  0.3954
 2314TIP3    H228502   0.826   5.887   6.420  0.6227 -1.5351  1.0145
 2315TIP3   OH228503   4.753   0.545   0.003 -0.0366  0.4597 -0.0041
 2315TIP3    H128504   4.815   0.610  -0.031 -4.0856  3.3702 -2.9304
 2315TIP3    H228505   4.702   0.593   0.069 -0.9666 -0.8464  0.2611
 2316TIP3   OH228506   2.470   1.055   6.674  0.7094 -0.2299  0.8759
 2316TIP3    H128507   2.486   0.961   6.662  1.5913 -0.0312  0.3593
 2316TIP3    H228508   2.557   1.095   6.662  0.1257  0.7717 -0.2365
 2317TIP3   OH228509   3.008   0.238   1.770 -0.7240 -0.5461  0.4984
 2317TIP3    H128510   3.099   0.217   1.790 -0.7143 -2.6260 -1.3465
 2317TIP3    H228511   2.957   0.172   1.818 -1.1968 -0.1372  0.5647
 2318TIP3   OH228512   3.481   2.160   6.978 -0.1506 -0.1010 -0.3657
 2318TIP3    H128513   3.449   2.243   7.013  3.0045  1.1038  0.0224
 2318TIP3    H228514   3.504   2.180   6.888 -1.5774 -1.2729 -1.0289
 2319TIP3   OH228515   4.428   0.754   7.599  0.2554  0.3160  0.0059
 2319TIP3    H128516   4.512   0.745   7.643 -1.1180 -0.5733  2.6921
 2319TIP3    H228517   4.407   0.666   7.568  0.2717  0.5249 -0.6189
 2320TIP3   OH228518   6.890   6.372   6.858 -0.0862 -0.0685  0.2561
 2320TIP3    H128519   6.889   6.279   6.831 -1.2435 -0.3050  1.0496
 2320TIP3    H228520   6.921   6.370   6.948  1.4404  0.4969 -0.2266
 2321TIP3   OH228521   4.856   6.068   7.853 -0.6567 -0.0611  0.1955
 2321TIP3    H128522   4.867   6.161   7.834 -0.7686 -0.5122 -2.4182
 2321TIP3    H228523   4.930   6.046   7.910  0.4982  1.2290 -0.7425
 2322TIP3   OH228524   6.289   6.190   6.867  0.1090 -0.4345 -0.4615
 2322TIP3    H128525   6.238   6.266   6.896  3.4916  0.9914  2.6743
 2322TIP3    H228526   6.292   6.198   6.772 -0.1560  3.1470 -0.3218
 2323TIP3   OH228527   5.289   6.889   0.843 -0.3720 -0.7956  0.6379
 2323TIP3    H128528   5.245   6.943   0.778 -1.2377 -0.0758  1.7681
 2323TIP3    H228529   5.286   6.800   0.807  0.0917 -0.2622 -0.7443
 2324TIP3   OH228530   2.146   3.224   0.719 -0.0144 -0.4109  0.6240
 2324TIP3    H128531   2.106   3.291   0.775  0.1253  0.1375  0.0786
 2324TIP3    H228532   2.224   3.196   0.766 -1.1116 -1.6649  1.8271
 2325TIP3   OH228533   3.984   1.783   7.877 -0.2961 -0.0297  0.1643
 2325TIP3    H128534   4.040   1.842   7.928  0.0010  0.3489 -0.5748
 2325TIP3    H228535   3.901   1.830   7.870 -0.4557 -0.2427  0.5980
 2326TIP3   OH228536   3.154   0.925   6.738 -0.1000  0.0975  0.2897
 2326TIP3    H128537   3.130   1.014   6.714  1.7152  0.9257  1.3148
 2326TIP3    H228538   3.191   0.932   6.826 -0.2031 -1.7228  0.5321
 2327TIP3   OH228539   6.629   2.843   0.599  0.3428  0.5719 -0.2946
 2327TIP3    H128540   6.624   2.866   0.692 -0.2446 -1.0393  0.1121
 2327TIP3    H228541   6.719   2.862   0.575  0.1809  2.1786  0.2615
 2328TIP3   OH228542   2.056   1.207   5.670  0.2694  0.1912 -0.1651
 2328TIP3    H128543   2.143   1.173   5.653  0.4303  1.0591 -1.2081
 2328TIP3    H228544   2.071   1.295   5.705 -0.1636 -0.2417  1.1712
 2329TIP3   OH228545   6.864   4.687   1.836 -0.4423 -0.0410 -0.2711
 2329TIP3    H128546   6.794   4.700   1.773  1.6719  0.8478 -2.6042
 2329TIP3    H228547   6.827   4.627   1.902 -2.9392 -0.5473 -2.0035
 2330TIP3   OH228548   2.646   1.265   0.611 -0.0210  0.6831 -0.3837
 2330TIP3    H128549   2.627   1.358   0.622  1.1899  0.9031 -0.0282
 2330TIP3    H228550   2.668   1.255   0.518 -2.2450  0.3278 -0.9278
 2331TIP3   OH228551   3.235   0.138   5.940 -0.6477  0.3391 -0.3819
 2331TIP3    H128552   3.245   0.158   5.848  0.0529  0.8735 -0.1920
 2331TIP3    H228553   3.220   0.222   5.982 -1.2518  0.0700 -0.0374
 2332TIP3   OH228554   0.546   7.075   7.368 -0.3075  0.1827 -0.1367
 2332TIP3    H128555   0.456   7.046   7.358 -0.5814  0.4361  1.3456
 2332TIP3    H228556   0.539   7.164   7.403  0.5097  0.3413 -0.3618
 2333TIP3   OH228557   3.231   3.467   0.566  0.2553  0.7494 -0.2480
 2333TIP3    H128558   3.151   3.496   0.611  0.6235  1.1864  0.1382
 2333TIP3    H228559   3.264   3.396   0.620 -0.3026  0.0202 -0.8486
 2334TIP3   OH228560   5.109   6.773   7.725  0.3975  0.0991 -0.9338
 2334TIP3    H128561   5.113   6.689   7.770  1.5741  0.4227 -0.4037
 2334TIP3    H228562   5.018   6.779   7.695  0.2465 -1.2719 -0.8346
 2335TIP3   OH228563   2.279   5.429   1.363  0.5148 -0.5319  0.1967
 2335TIP3    H128564   2.287   5.521   1.388 -3.5606  1.5012 -4.1734
 2335TIP3    H228565   2.354   5.412   1.306  1.1777  0.0900  0.8662
 2336TIP3   OH228566   1.321   3.980   5.812  0.3967  0.2071 -0.3521
 2336TIP3    H128567   1.307   4.060   5.864 -0.5175 -0.6070  0.7114
 2336TIP3    H228568   1.291   4.004   5.724  0.5140  1.1519 -0.1516
 2337TIP3   OH228569   0.069   6.827   0.753  0.5843  0.2735  0.0852
 2337TIP3    H128570   0.070   6.838   0.658  0.1590 -0.4061 -0.0021
 2337TIP3    H228571  -0.023   6.836   0.777  0.1410 -2.8073  0.0014
 2338TIP3   OH228572   1.911   0.892   0.682 -0.2053 -0.2921 -0.4385
 2338TIP3    H128573   1.831   0.938   0.706  1.2949  2.1583  0.2571
 2338TIP3    H228574   1.900   0.804   0.717 -3.1446 -0.5271 -1.6367
 2339TIP3   OH228575   1.163   0.663   0.063  0.2853 -0.6803 -0.1289
 2339TIP3    H128576   1.122   0.662   0.149  0.1527 -3.4956 -0.1378
 2339TIP3    H228577   1.094   0.634   0.003 -0.1124  2.6978 -1.5623
 2340TIP3   OH228578   2.971   4.704   0.127 -0.0704 -0.0658  0.3005
 2340TIP3    H128579   2.944   4.795   0.118  0.3806  0.0593  0.1447
 2340TIP3    H228580   2.890   4.654   0.137 -0.2762  0.4718  1.4757
 2341TIP3   OH228581   0.317   1.598   8.016  0.7812 -0.0195  0.1715
 2341TIP3    H128582   0.226   1.586   7.988  1.0612  0.1131 -0.8307
 2341TIP3    H228583   0.344   1.512   8.048  0.3411 -0.0842  0.3857
 2342TIP3   OH228584   3.626   5.914   8.024 -0.2517  0.2986  0.1735
 2342TIP3    H128585   3.718   5.919   8.051  0.0583  0.8478 -0.9205
 2342TIP3    H228586   3.586   5.853   8.086  1.1451 -0.9744 -0.1208
 2343TIP3   OH228587   2.902   2.262   5.873 -0.2313 -0.0451  0.0991
 2343TIP3    H128588   2.979   2.252   5.817 -0.8739 -0.4722 -0.7228
 2343TIP3    H228589   2.881   2.356   5.868 -0.9009 -0.2432 -1.2276
 2344TIP3   OH228590   4.093   4.938   0.754  0.4140  0.1252 -0.6414
 2344TIP3    H128591   4.048   4.953   0.838  1.5999  1.3981 -0.1992
 2344TIP3    H228592   4.184   4.963   0.770  0.9302 -0.7968 -1.9818
 2345TIP3   OH228593   4.275   2.814   1.096 -0.6954 -0.7973 -0.6141
 2345TIP3    H128594   4.197   2.868   1.084 -2.6162 -3.7698 -2.5849
 2345TIP3    H228595   4.256   2.732   1.050  3.7713 -1.5545 -1.6178
 2346TIP3   OH228596   2.035   6.645   1.140 -0.1848 -0.2099  0.1935
 2346TIP3    H128597   2.037   6.686   1.054  0.0907  1.6826  1.0424
 2346TIP3    H228598   1.984   6.706   1.194 -2.6108 -2.5979  0.8017
 2347TIP3   OH228599   6.831   2.873   7.219 -0.2701  0.5860  0.6267
 2347TIP3    H128600   6.901   2.843   7.277  0.4363  1.8360  0.4613
 2347TIP3    H228601   6.842   2.968   7.215 -0.3703  0.5584 -1.4399
 2348TIP3   OH228602   1.189   1.305   6.139  0.5086 -0.1816 -0.3601
 2348TIP3    H128603   1.229   1.376   6.088  0.9460  0.2865  0.5928
 2348TIP3    H228604   1.251   1.233   6.132 -0.4099 -0.8606 -2.1632
 2349TIP3   OH228605   1.093   6.241   6.605  0.1625  0.1812 -0.2747
 2349TIP3    H128606   1.049   6.322   6.631  0.0337 -0.2280  0.8551
 2349TIP3    H228607   1.035   6.172   6.637 -0.6977 -0.4084 -2.8866
 2350TIP3   OH228608   5.360   6.491   0.055  0.0197 -0.3660 -0.1789
 2350TIP3    H128609   5.410   6.544  -0.007  1.3955 -2.2001 -0.7250
 2350TIP3    H228610   5.423   6.464   0.121 -0.6773 -1.1907  0.1739
 2351TIP3   OH228611   6.599   3.174   6.954 -0.0367 -0.5697  0.2461
 2351TIP3    H128612   6.513   3.162   6.912  0.1124 -0.0417 -0.2239
 2351TIP3    H228613   6.640   3.087   6.949 -0.9857 -1.1156  1.5069
 2352TIP3   OH228614   1.895   5.183   6.713  0.8575 -0.2396 -0.4061
 2352TIP3    H128615   1.912   5.159   6.804  1.3194  3.4390  0.6067
 2352TIP3    H228616   1.807   5.149   6.695 -0.6421  1.6780  2.5813
 2353TIP3   OH228617   3.365   6.996   0.295 -0.3639  1.0436 -0.6263
 2353TIP3    H128618   3.407   7.041   0.368 -0.4953  0.7726 -0.3777
 2353TIP3    H228619   3.435   6.945   0.255 -0.4547  0.5491 -0.1782
 2354TIP3   OH228620   5.037   3.809   1.293 -0.7974  0.2833  0.0243
 2354TIP3    H128621   5.115   3.773   1.334 -1.0586  0.8000  1.0139
 2354TIP3    H228622   5.019   3.889   1.342 -2.0090  0.1123 -0.0973
 2355TIP3   OH228623   5.629   5.391   0.696 -0.7648 -0.0470  0.2346
 2355TIP3    H128624   5.659   5.301   0.686  0.4144  0.4424 -0.9273
 2355TIP3    H228625   5.634   5.408   0.790 -1.7209 -1.4026  0.5697
 2356TIP3   OH228626   3.024   4.064   0.119 -0.6269  0.6432  0.3548
 2356TIP3    H128627   3.069   4.087   0.038  0.5671  2.0669  1.3756
 2356TIP3    H228628   3.085   4.088   0.188 -0.9472 -2.0426  1.6733
 2357TIP3   OH228629   5.746   2.721   0.773 -0.2362 -0.2947 -0.6835
 2357TIP3    H128630   5.685   2.787   0.805  1.2751  0.6036  0.4821
 2357TIP3    H228631   5.693   2.642   0.762 -1.2856 -0.0463  1.9622
 2358TIP3   OH228632   0.851   0.725   7.303  0.3470  0.2798 -0.3338
 2358TIP3    H128633   0.801   0.727   7.221  1.1676  1.2714 -0.8347
 2358TIP3    H228634   0.913   0.797   7.295  1.1944 -0.3023  0.6958
 2359TIP3   OH228635   5.059   6.187   1.226 -0.9144  0.5580 -0.3945
 2359TIP3    H128636   5.046   6.201   1.132  0.1535  0.0401 -0.6234
 2359TIP3    H228637   5.140   6.233   1.247 -0.4520 -0.4053  0.0049
 2360TIP3   OH228638   0.512   6.491   0.607 -0.1601  0.0855  0.5761
 2360TIP3    H128639   0.564   6.510   0.685 -0.4048  0.0519  0.7466
 2360TIP3    H228640   0.508   6.574   0.560  0.2313  0.0373  0.4517
 2361TIP3   OH228641   5.986   2.565   0.311 -0.2707 -0.1129 -0.4352
 2361TIP3    H128642   5.985   2.620   0.233  1.3942  1.0719  0.2976
 2361TIP3    H228643   5.905   2.587   0.357  0.1037  1.3976 -0.4233
 2362TIP3   OH228644   0.412   6.943   6.659  0.0656  0.2682 -0.4782
 2362TIP3    H128645   0.470   7.018   6.653 -1.7767  1.9332  1.1802
 2362TIP3    H228646   0.435   6.900   6.741 -0.5558  0.5186 -0.1670
 2363TIP3   OH228647   0.090   4.943   7.521 -0.9054  0.0464  0.0930
 2363TIP3    H128648   0.110   5.012   7.459 -0.5578 -0.5880 -0.5158
 2363TIP3    H228649  -0.005   4.948   7.532 -0.9563  0.2430 -0.3979
 2364TIP3   OH228650   2.354   2.966   1.492  0.0252  0.0990 -0.0881
 2364TIP3    H128651   2.371   2.996   1.403 -0.7681 -1.0481 -0.6504
 2364TIP3    H228652   2.431   2.993   1.542  1.9609 -1.9172 -1.7694
 2365TIP3   OH228653   3.226   1.371   7.145 -0.2024 -0.2119  0.4231
 2365TIP3    H128654   3.238   1.460   7.110 -0.1867  0.4667  2.0731
 2365TIP3    H228655   3.264   1.314   7.077 -2.9126  0.7492 -2.1059
 2366TIP3   OH228656   1.541   4.551   5.987  0.0549 -0.1135  0.8566
 2366TIP3    H128657   1.476   4.481   5.984  0.5408 -0.6342  1.8675
 2366TIP3    H228658   1.620   4.509   6.021  0.2903  0.9646  1.7198
 2367TIP3   OH228659   0.914   6.895   2.129 -0.0270  0.1029 -0.5050
 2367TIP3    H128660   1.002   6.858   2.129  1.4419  3.2241 -1.1464
 2367TIP3    H228661   0.866   6.846   2.063  1.3836 -1.3320 -0.4991
 2368TIP3   OH228662   0.358   6.093   0.482  0.0021 -0.2251 -0.1096
 2368TIP3    H128663   0.407   6.173   0.463 -0.3800 -0.0620 -0.4369
 2368TIP3    H228664   0.330   6.103   0.573 -1.1244  0.6132 -0.5251
 2369TIP3   OH228665   5.346   6.567   1.490 -0.6972  0.0875 -0.2532
 2369TIP3    H128666   5.428   6.587   1.536 -0.6443  0.7806 -0.6354
 2369TIP3    H228667   5.328   6.645   1.438 -1.9322  0.1923  0.2961
 2370TIP3   OH228668   3.814   6.276   1.738  0.0007  0.2678  0.3448
 2370TIP3    H128669   3.780   6.198   1.782  0.7185  0.0754  0.5578
 2370TIP3    H228670   3.901   6.288   1.774  1.8901 -1.6354 -3.0660
 2371TIP3   OH228671   2.198   1.540   0.877 -0.4257 -0.1998 -0.1814
 2371TIP3    H128672   2.130   1.485   0.915  0.9297 -0.4991  2.0163
 2371TIP3    H228673   2.265   1.479   0.848 -0.3090  0.1711 -0.7067
 2372TIP3   OH228674   5.751   3.382   6.655  0.0737  0.1801 -0.1068
 2372TIP3    H128675   5.794   3.318   6.712  0.1317  1.0521  0.8622
 2372TIP3    H228676   5.792   3.370   6.569  1.2892  0.0532  0.4684
 2373TIP3   OH228677   0.796   1.941   1.085 -0.0455  0.0816  0.4649
 2373TIP3    H128678   0.803   1.947   1.180 -0.3340  2.8469  0.3912
 2373TIP3    H228679   0.885   1.923   1.056 -0.0756 -1.5250  1.2343
 2374TIP3   OH228680   6.278   4.422   5.623  0.0893  0.6315  0.5512
 2374TIP3    H128681   6.371   4.409   5.641  0.2242  0.8937  0.0526
 2374TIP3    H228682   6.247   4.336   5.594  0.4721  0.8367 -0.5293
 2375TIP3   OH228683   5.781   5.816   1.478 -0.1161 -0.1566  0.8027
 2375TIP3    H128684   5.772   5.723   1.503 -0.7132 -0.2752  0.1685
 2375TIP3    H228685   5.693   5.841   1.450  0.7619 -0.4541 -2.6574
 2376TIP3   OH228686   1.013   6.413   5.787  0.3547 -0.2447  0.0549
 2376TIP3    H128687   1.090   6.432   5.840  1.4942 -0.8315 -1.3186
 2376TIP3    H228688   1.037   6.335   5.737 -1.1169 -0.4036 -0.4617
 2377TIP3   OH228689   3.173   1.680   7.738  0.1256  0.1451 -0.5581
 2377TIP3    H128690   3.091   1.709   7.779  0.1560  1.1848 -1.1855
 2377TIP3    H228691   3.183   1.738   7.662  0.8224 -0.7711 -1.1829
 2378TIP3   OH228692   3.018   2.678   0.471  0.4635  0.4489  0.4923
 2378TIP3    H128693   3.057   2.591   0.475  0.9262  0.6207 -0.0902
 2378TIP3    H228694   2.978   2.691   0.557  0.4594 -0.3049  0.6107
 2379TIP3   OH228695   3.066   1.412   6.233 -0.3192 -0.2138  0.5503
 2379TIP3    H128696   3.144   1.459   6.204 -0.8169  0.0477 -0.4010
 2379TIP3    H228697   3.078   1.323   6.200  0.8718 -0.9856  2.7925
 2380TIP3   OH228698   6.366   5.089   2.178  0.2481 -0.4731 -0.0918
 2380TIP3    H128699   6.404   5.053   2.259 -1.1659 -1.1412  0.3030
 2380TIP3    H228700   6.310   5.019   2.145 -0.2520  0.3009 -0.9184
 2381TIP3   OH228701   6.577   3.985   7.661 -0.4471 -0.2918  0.1454
 2381TIP3    H128702   6.649   3.986   7.724  0.0262  0.0250 -0.3910
 2381TIP3    H228703   6.529   3.904   7.681  0.0296 -0.4826  0.5406
 2382TIP3   OH228704   6.459   0.141   6.659  0.2998 -0.3189 -0.6981
 2382TIP3    H128705   6.453   0.205   6.730 -0.9203 -0.8451 -0.3024
 2382TIP3    H228706   6.395   0.171   6.594  0.3426 -0.6618 -0.9008
 2383TIP3   OH228707   0.219   2.002   6.373 -0.1776 -0.0969 -0.0560
 2383TIP3    H128708   0.311   1.987   6.394 -0.8506 -4.2775  0.8928
 2383TIP3    H228709   0.193   2.074   6.430  2.7677  2.3938 -1.5632
 2384TIP3   OH228710   1.210   5.901   1.120 -0.0928  0.1926  0.0905
 2384TIP3    H128711   1.258   5.967   1.170  0.6007  0.5437 -0.9881
 2384TIP3    H228712   1.125   5.895   1.163 -1.1452  3.5942 -1.1449
 2385TIP3   OH228713   7.009   0.695   0.394  0.0626 -0.4298 -0.5992
 2385TIP3    H128714   7.018   0.601   0.379 -0.6416 -0.6340  0.1917
 2385TIP3    H228715   6.915   0.712   0.385 -0.2390 -0.3275  1.9970
 2386TIP3   OH228716   1.566   1.973   2.483  0.7434  0.3656 -0.2549
 2386TIP3    H128717   1.499   1.919   2.525  0.4153  0.5462 -0.5406
 2386TIP3    H228718   1.520   2.017   2.412  1.4059 -0.3150 -1.1131
 2387TIP3   OH228719   5.010   5.480   2.302  0.1081  0.0550 -0.0174
 2387TIP3    H128720   4.916   5.477   2.321  0.1611  0.2553  0.2852
 2387TIP3    H228721   5.035   5.388   2.290 -0.4614  0.1007 -1.8044
 2388TIP3   OH228722   2.747   0.950   7.000 -0.2496 -0.5617 -0.8478
 2388TIP3    H128723   2.800   0.919   6.926 -1.5896 -1.9060 -1.2956
 2388TIP3    H228724   2.717   0.870   7.043  1.3139  0.1701  1.8198
 2389TIP3   OH228725   3.093   2.487   1.428 -0.1711  0.0055 -0.5477
 2389TIP3    H128726   3.090   2.444   1.513 -0.8825  0.9597 -0.0742
 2389TIP3    H228727   3.157   2.557   1.439  0.6844 -0.6548 -1.1927
 2390TIP3   OH228728   0.642   2.844   0.777  0.2550 -0.1765 -0.1736
 2390TIP3    H128729   0.587   2.819   0.703 -2.0244  0.1000  1.3242
 2390TIP3    H228730   0.695   2.917   0.745 -1.7291  0.8982 -1.1417
 2391TIP3   OH228731   2.206   5.448   7.460  0.2421 -0.0108  0.3783
 2391TIP3    H128732   2.291   5.406   7.449  1.2327  1.3452  2.2364
 2391TIP3    H228733   2.197   5.461   7.554 -0.7578  2.3012  0.0530
 2392TIP3   OH228734   6.318   6.893   5.786  0.6382  0.1878 -0.6320
 2392TIP3    H128735   6.374   6.962   5.820 -0.5294  0.4761  0.8024
 2392TIP3    H228736   6.378   6.828   5.749  1.9053  0.4570  0.8962
 2393TIP3   OH228737   0.070   1.207   0.745  0.0683  0.4150  1.1844
 2393TIP3    H128738   0.136   1.139   0.737 -0.5241 -0.1274  0.7517
 2393TIP3    H228739   0.089   1.268   0.674  0.8156  0.8913  1.7931
 2394TIP3   OH228740   4.016   0.562   0.945 -0.0293 -0.1156  0.5241
 2394TIP3    H128741   4.098   0.596   0.982  1.3410 -1.4325 -1.1393
 2394TIP3    H228742   3.953   0.633   0.958  1.9477  1.8843 -0.1695
 2395TIP3   OH228743   0.540   1.810   6.189  0.0160  0.1859 -0.0639
 2395TIP3    H128744   0.507   1.778   6.273 -0.4362  0.4060 -0.1576
 2395TIP3    H228745   0.463   1.814   6.133  0.2725  0.3010 -0.4100
 2396TIP3   OH228746   4.877   6.326   7.725  0.4982 -0.0489  0.0805
 2396TIP3    H128747   4.971   6.341   7.722  0.3629  0.6130 -1.2393
 2396TIP3    H228748   4.844   6.392   7.787  0.7796  0.3631 -0.2103
 2397TIP3   OH228749   5.294   5.925   7.486  0.2470  0.0367  0.1835
 2397TIP3    H128750   5.246   5.894   7.563 -1.5511  0.0315 -0.8974
 2397TIP3    H228751   5.321   6.014   7.509 -0.4553  0.1171  0.7331
 2398TIP3   OH228752   0.518   6.302   0.430  0.4420  0.1419 -0.0848
 2398TIP3    H128753   0.607   6.292   0.397  0.5988  0.3123  0.2790
 2398TIP3    H228754   0.523   6.377   0.490  0.8211 -1.9550  2.6543
 2399TIP3   OH228755   6.750   5.580   1.016  0.0402  0.2618 -0.3032
 2399TIP3    H128756   6.706   5.637   0.954 -0.5613 -0.6719 -0.7599
 2399TIP3    H228757   6.682   5.557   1.080  0.3420  0.2539  0.0197
 2400TIP3   OH228758   3.052   6.595   0.374 -0.1039  0.2692 -0.5182
 2400TIP3    H128759   3.106   6.656   0.323  0.2113  0.0319 -0.4752
 2400TIP3    H228760   3.115   6.545   0.426 -0.4677  0.9112  0.5599
 2401TIP3   OH228761   0.026   6.556   7.940  0.2866 -0.2318 -0.4376
 2401TIP3    H128762   0.103   6.614   7.948  0.4812 -0.2886 -1.6298
 2401TIP3    H228763   0.052   6.476   7.985  0.2008  0.4091  0.8067
 2402TIP3   OH228764   3.285   6.492   0.499 -0.3615  0.2521 -0.2506
 2402TIP3    H128765   3.371   6.454   0.520 -0.0583  1.6991  1.3095
 2402TIP3    H228766   3.297   6.586   0.513 -1.9900  0.5623 -0.8205
 2403TIP3   OH228767   2.627   0.547   6.722  0.2848 -1.1857  0.1034
 2403TIP3    H128768   2.722   0.552   6.716  0.3533 -2.9145 -0.9371
 2403TIP3    H228769   2.600   0.503   6.641 -1.4301 -0.4260  0.2244
 2404TIP3   OH228770   0.109   2.668   7.377  0.8781 -0.8530  0.2945
 2404TIP3    H128771   0.200   2.674   7.350  1.4330  0.5068  2.2601
 2404TIP3    H228772   0.059   2.704   7.303  2.3572  3.6095  1.1549
 2405TIP3   OH228773   1.150   3.393   6.257  0.5578  0.0705  0.3950
 2405TIP3    H128774   1.136   3.470   6.311  1.7905  0.0291  0.8001
 2405TIP3    H228775   1.198   3.426   6.180  0.7320 -0.2236  0.3746
 2406TIP3   OH228776   3.853   0.679   7.711  0.1199  0.6152  0.2945
 2406TIP3    H128777   3.947   0.701   7.712  0.0149  1.1116  1.5600
 2406TIP3    H228778   3.844   0.612   7.779 -0.0701 -1.2783 -1.5075
 2407TIP3   OH228779   0.706   0.040   0.529  0.4352 -0.6283  0.3630
 2407TIP3    H128780   0.672   0.025   0.441  0.0555 -0.6467  0.5111
 2407TIP3    H228781   0.801   0.031   0.521  0.2362 -3.9679  0.6053
 2408TIP3   OH228782   2.721   3.392   1.280  0.1705  0.1485 -0.3538
 2408TIP3    H128783   2.804   3.409   1.325 -0.8048  0.0083  1.5856
 2408TIP3    H228784   2.726   3.445   1.200  0.7942  2.8131  1.3236
 2409TIP3   OH228785   5.613   0.584   0.341  0.1647  0.1330 -0.7879
 2409TIP3    H128786   5.704   0.562   0.359  0.2611  0.9522 -0.1842
 2409TIP3    H228787   5.586   0.635   0.417  0.2585  2.8398 -2.4423
 2410TIP3   OH228788   3.191   3.057   1.223 -0.1122 -0.7498 -0.0805
 2410TIP3    H128789   3.189   3.075   1.129 -0.4823 -2.2533 -0.3859
 2410TIP3    H228790   3.146   3.131   1.263  1.1369  0.5275 -0.9576
 2411TIP3   OH228791   1.265   2.358   7.569  1.1794 -0.3264 -0.4985
 2411TIP3    H128792   1.299   2.329   7.653  0.5522  0.0590 -0.1078
 2411TIP3    H228793   1.260   2.454   7.576  1.3165 -0.2724 -1.0459
 2412TIP3   OH228794   3.703   4.778   7.840 -0.1765  0.3176 -0.0117
 2412TIP3    H128795   3.702   4.736   7.926 -0.4063  1.1859  0.4267
 2412TIP3    H228796   3.682   4.870   7.858  2.1205  1.0676 -0.6751
 2413TIP3   OH228797   0.444   6.370   6.631 -0.5081 -0.0476 -0.2785
 2413TIP3    H128798   0.414   6.327   6.551  3.3610 -2.8692 -0.4633
 2413TIP3    H228799   0.404   6.320   6.701  1.3343 -2.0271 -0.5346
 2414TIP3   OH228800   1.840   0.139   7.696  0.3912  0.5486 -0.0478
 2414TIP3    H128801   1.831   0.135   7.601  0.6694  1.9165 -0.1671
 2414TIP3    H228802   1.907   0.074   7.717  2.2025  1.9506 -1.1261
 2415TIP3   OH228803   2.988   5.066   5.831  0.1393  0.5568 -0.2655
 2415TIP3    H128804   3.048   5.109   5.770  0.7394  1.0137  0.6348
 2415TIP3    H228805   2.999   5.113   5.913 -0.2715 -0.3907  0.3484
 2416TIP3   OH228806   6.276   5.139   1.456  0.0254 -0.1627  0.1791
 2416TIP3    H128807   6.335   5.213   1.440  0.2110 -0.2779  0.3256
 2416TIP3    H228808   6.331   5.073   1.499 -0.6911  0.5225  2.2706
 2417TIP3   OH228809   2.316   3.469   0.588 -0.3700  0.4779  0.5908
 2417TIP3    H128810   2.272   3.425   0.661 -1.8930  2.0271  0.6791
 2417TIP3    H228811   2.246   3.485   0.525  1.0003 -1.2407 -1.5014
 2418TIP3   OH228812   5.929   5.631   0.203 -0.6410  1.0833 -0.3455
 2418TIP3    H128813   5.868   5.558   0.208  0.5398  0.0504 -0.4046
 2418TIP3    H228814   6.011   5.596   0.238  1.0286  1.1726 -3.6979
 2419TIP3   OH228815   6.392   0.642   6.460  0.1216 -0.5040 -1.0744
 2419TIP3    H128816   6.345   0.716   6.423  1.1176  0.5498 -0.3367
 2419TIP3    H228817   6.389   0.656   6.555 -0.4479 -1.9184 -0.8502
 2420TIP3   OH228818   0.766   3.907   5.995  0.8761 -0.2685  0.1885
 2420TIP3    H128819   0.846   3.867   5.961  1.6330  0.4707  1.0456
 2420TIP3    H228820   0.792   3.997   6.016 -0.1399 -0.0707  0.6425
 2421TIP3   OH228821   4.248   0.041   6.031  0.1782 -0.4152 -0.2320
 2421TIP3    H128822   4.340   0.032   6.057 -0.2552  0.4141  1.8028
 2421TIP3    H228823   4.201   0.050   6.114 -1.6243  0.3110 -1.2799
 2422TIP3   OH228824   6.584   6.412   1.391  0.1874  0.5783  0.1618
 2422TIP3    H128825   6.536   6.426   1.310 -3.3235  0.8151  2.0769
 2422TIP3    H228826   6.571   6.319   1.411 -2.2948  1.2370  2.1760
 2423TIP3   OH228827   2.301   2.025   6.071  0.3496  0.1881 -0.0702
 2423TIP3    H128828   2.348   1.943   6.055 -0.4714 -0.6091  1.4057
 2423TIP3    H228829   2.247   2.037   5.993 -1.4776 -2.0895  0.7335
 2424TIP3   OH228830   3.757   7.109   1.345 -0.5264 -0.5500 -0.2742
 2424TIP3    H128831   3.716   7.132   1.429 -1.0490 -1.3456 -0.3050
 2424TIP3    H228832   3.763   7.193   1.298 -0.7020 -0.1808  0.3473
 2425TIP3   OH228833   6.075   2.306   0.290  0.3973 -0.1854 -0.4991
 2425TIP3    H128834   6.060   2.400   0.275  2.0783 -0.1123 -2.0674
 2425TIP3    H228835   6.002   2.263   0.246 -0.1239  0.3472 -0.1816
 2426TIP3   OH228836   2.768   6.789   0.702 -0.1945 -0.0233  0.1324
 2426TIP3    H128837   2.690   6.735   0.713  1.6273 -2.6255  1.4079
 2426TIP3    H228838   2.745   6.873   0.741 -3.1046  0.1675 -1.7596
 2427TIP3   OH228839   4.649   1.042   6.804 -0.5765  0.0950  0.4518
 2427TIP3    H128840   4.630   0.963   6.753  1.0646 -0.6989  0.9921
 2427TIP3    H228841   4.579   1.103   6.781 -1.7339 -1.4106 -0.1922
 2428TIP3   OH228842   4.916   3.607   5.775  0.3317 -0.6341  0.2195
 2428TIP3    H128843   4.929   3.569   5.688  2.3085  2.6757 -1.1093
 2428TIP3    H228844   4.824   3.635   5.776  0.0742 -1.4197 -0.4610
 2429TIP3   OH228845   1.448   6.464   6.396  0.2683 -0.1610  0.2849
 2429TIP3    H128846   1.398   6.385   6.420 -0.5023  0.2752  0.1283
 2429TIP3    H228847   1.429   6.477   6.304  1.3338 -0.4548  0.0079
 2430TIP3   OH228848   1.826   3.400   0.653  0.6091  0.0880 -0.1863
 2430TIP3    H128849   1.909   3.387   0.608  0.4328 -2.4934  0.0560
 2430TIP3    H228850   1.792   3.482   0.618  4.2379  2.5235  1.3379
 2431TIP3   OH228851   0.065   1.074   6.522 -0.5988  0.6005 -0.9212
 2431TIP3    H128852   0.143   1.127   6.541  1.4054 -2.0315 -1.2535
 2431TIP3    H228853   0.075   1.047   6.431 -0.1780 -2.3020 -0.1109
 2432TIP3   OH228854   1.306   1.965   0.321  0.1537 -0.1572  0.2814
 2432TIP3    H128855   1.229   1.919   0.290 -0.2499  0.2397  0.6835
 2432TIP3    H228856   1.274   2.051   0.348  0.1660 -0.9663  3.2503
 2433TIP3   OH228857   1.447   4.090   1.449 -0.1267 -0.5355 -0.1625
 2433TIP3    H128858   1.499   4.095   1.369  0.7597  0.3622  0.4598
 2433TIP3    H228859   1.472   4.167   1.499  0.4181 -1.8138  1.6377
 2434TIP3   OH228860   0.059   5.217   1.189  0.0563  0.0568  0.0020
 2434TIP3    H128861   0.143   5.263   1.187  1.0967 -1.7328 -0.9450
 2434TIP3    H228862   0.065   5.159   1.266  0.2620 -1.0076 -0.7882
 2435TIP3   OH228863   0.273   0.631   5.672  0.3567  0.1062  0.0215
 2435TIP3    H128864   0.184   0.662   5.655  0.9097  1.5830 -0.3219
 2435TIP3    H228865   0.315   0.632   5.586  0.5680 -1.0999  0.0947
 2436TIP3   OH228866   6.192   2.749   7.989  0.0158  0.2382  1.0906
 2436TIP3    H128867   6.163   2.828   8.034  0.9359  1.1328  0.1639
 2436TIP3    H228868   6.120   2.728   7.929  0.5234  1.4933 -0.0176
 2437TIP3   OH228869   3.080   4.875   1.157 -0.0990  0.4558 -0.4732
 2437TIP3    H128870   3.087   4.827   1.074 -2.2299 -0.2922 -0.2712
 2437TIP3    H228871   3.129   4.822   1.220  0.7918  0.5708 -1.0570
 2438TIP3   OH228872   4.854   6.126   6.850  0.0438  0.0464  0.0985
 2438TIP3    H128873   4.912   6.101   6.778 -0.1745 -0.6493  0.1529
 2438TIP3    H228874   4.908   6.181   6.906  0.8261 -0.9833  0.4010
 2439TIP3   OH228875   6.661   4.450   1.394 -0.1496  0.5294  0.3023
 2439TIP3    H128876   6.589   4.503   1.361 -0.0678  0.5660  0.1847
 2439TIP3    H228877   6.657   4.369   1.343  1.4096  1.4888 -1.4466
 2440TIP3   OH228878   2.526   5.193   0.199  0.1813  0.9232  0.0388
 2440TIP3    H128879   2.516   5.242   0.117 -0.6348  0.3204 -0.2350
 2440TIP3    H228880   2.607   5.227   0.238 -0.7058  2.9853  0.2072
 2441TIP3   OH228881   4.901   0.420   0.914 -0.1767  0.2920 -0.0948
 2441TIP3    H128882   4.828   0.402   0.853  0.4206  0.3342 -0.8333
 2441TIP3    H228883   4.874   0.378   0.996 -0.6769 -0.3891 -0.5937
 2442TIP3   OH228884   3.855   4.751   0.302 -0.6904  0.2123  0.2793
 2442TIP3    H128885   3.895   4.768   0.387  0.5666 -3.4938  0.6094
 2442TIP3    H228886   3.927   4.761   0.239 -1.8330  4.0066 -0.6977
 2443TIP3   OH228887   1.532   6.025   1.183  0.1015 -0.1476 -0.2992
 2443TIP3    H128888   1.549   5.984   1.268 -1.8918  1.7636  1.1571
 2443TIP3    H228889   1.610   6.077   1.165 -0.3858  1.4128  1.6955
 2444TIP3   OH228890   6.498   6.354   6.967  0.1331 -0.6651  0.1642
 2444TIP3    H128891   6.502   6.449   6.963 -1.3605 -0.5451  0.9023
 2444TIP3    H228892   6.438   6.330   6.896  0.4311 -1.0566  0.0400
 2445TIP3   OH228893   5.231   0.590   0.745  0.0654 -0.2611 -0.6960
 2445TIP3    H128894   5.136   0.587   0.757 -0.3095  0.7936 -2.9039
 2445TIP3    H228895   5.251   0.682   0.732  1.6055 -0.3248  0.8692
 2446TIP3   OH228896   3.147   2.877   6.623  0.5730  0.1215 -0.0964
 2446TIP3    H128897   3.178   2.793   6.591  0.3984  0.4859 -1.3039
 2446TIP3    H228898   3.200   2.896   6.700  2.0608 -0.1344 -1.0169
 2447TIP3   OH228899   6.892   2.586   6.862 -0.1068  0.3504 -0.4554
 2447TIP3    H128900   6.868   2.594   6.954  1.4907  0.4941 -0.0134
 2447TIP3    H228901   6.817   2.544   6.821 -1.2146  1.0933  0.7263
 2448TIP3   OH228902   4.562   4.543   1.120  0.4461  0.2171  0.0000
 2448TIP3    H128903   4.561   4.520   1.213  0.7102 -2.2509 -0.5449
 2448TIP3    H228904   4.518   4.470   1.076  0.5700  1.1923 -1.8680
 2449TIP3   OH228905   3.009   3.879   6.956  0.4672 -0.4214  0.6767
 2449TIP3    H128906   3.102   3.857   6.944  0.8523  0.8139  1.2115
 2449TIP3    H228907   2.986   3.842   7.041 -0.3691 -3.2363 -0.6705
 2450TIP3   OH228908   1.302   4.405   1.243 -0.6663 -0.2214 -0.5126
 2450TIP3    H128909   1.372   4.344   1.266  0.5004  0.8569 -1.0847
 2450TIP3    H228910   1.304   4.409   1.148  0.2617  1.7660 -0.4594
 2451TIP3   OH228911   6.290   5.423   1.231 -0.5973 -1.1259 -0.6114
 2451TIP3    H128912   6.227   5.426   1.158 -0.0712 -0.4569 -1.0523
 2451TIP3    H228913   6.238   5.447   1.308 -1.3118 -2.5089 -0.6364
 2452TIP3   OH228914   1.175   6.636   0.666  0.0617  0.0628 -0.1039
 2452TIP3    H128915   1.225   6.623   0.747  0.9272 -1.2495 -0.8079
 2452TIP3    H228916   1.240   6.670   0.604 -0.4872  0.6092 -0.3879
 2453TIP3   OH228917   3.231   4.210   7.361  0.7224 -0.0641  0.2649
 2453TIP3    H128918   3.324   4.193   7.376  1.2222  0.0822 -2.2923
 2453TIP3    H228919   3.226   4.306   7.353 -0.2587  0.2978  3.4804
 2454TIP3   OH228920   3.005   5.442   0.360 -0.4217 -0.4335 -0.0132
 2454TIP3    H128921   3.029   5.447   0.268 -1.1481 -1.5414 -0.2861
 2454TIP3    H228922   2.916   5.478   0.364 -1.0989 -2.0151 -0.0739
 2455TIP3   OH228923   6.801   6.571   7.268  0.6202  0.1516 -0.0717
 2455TIP3    H128924   6.749   6.557   7.347  1.2386  1.7238  0.6533
 2455TIP3    H228925   6.795   6.488   7.221 -1.2152 -0.2389  0.7553
 2456TIP3   OH228926   5.320   5.009   0.946  0.0952  0.3619 -0.1215
 2456TIP3    H128927   5.266   4.931   0.934  0.4663  0.1692 -0.5943
 2456TIP3    H228928   5.287   5.049   1.026 -1.9528  1.2235 -1.3118
 2457TIP3   OH228929   3.278   6.760   0.549 -0.6577  0.3579 -0.5536
 2457TIP3    H128930   3.332   6.818   0.604 -0.5934 -0.0179 -0.2161
 2457TIP3    H228931   3.268   6.808   0.467 -0.4034  0.7448 -0.3636
 2458TIP3   OH228932   4.456   2.092   0.151 -0.5751 -0.3442  0.2512
 2458TIP3    H128933   4.467   1.998   0.142 -2.2762 -0.5515 -0.0035
 2458TIP3    H228934   4.450   2.107   0.246 -2.5922 -0.8316  0.2396
 2459TIP3   OH228935   6.448   1.091   7.120  0.5170  0.3207  0.2773
 2459TIP3    H128936   6.459   1.111   7.027 -0.8272  0.7365  0.1818
 2459TIP3    H228937   6.358   1.119   7.140 -0.2212 -2.3100  1.0175
 2460TIP3   OH228938   4.365   2.157   6.634 -0.3232  0.3059 -0.2864
 2460TIP3    H128939   4.390   2.167   6.542  1.3562 -0.7783  0.0076
 2460TIP3    H228940   4.276   2.122   6.631 -0.4248  0.6200 -1.4875
 2461TIP3   OH228941   0.915   7.142   2.003 -0.1262  0.3202  0.2603
 2461TIP3    H128942   0.921   7.072   2.067 -0.2032 -1.1817 -1.3177
 2461TIP3    H228943   0.823   7.142   1.976 -0.1892  1.2294  0.4101
 2462TIP3   OH228944   5.122   1.033   6.507 -0.4810 -0.4658 -0.4732
 2462TIP3    H128945   5.058   1.015   6.576 -2.2574 -0.8551 -2.1292
 2462TIP3    H228946   5.174   1.105   6.540 -0.4626 -1.4313  1.7615
 2463TIP3   OH228947   1.347   5.341   1.132 -0.1378  0.0120  0.2922
 2463TIP3    H128948   1.351   5.292   1.213 -1.5164 -1.3723 -0.4330
 2463TIP3    H228949   1.274   5.402   1.144  0.8004  1.0828  0.7353
 2464TIP3   OH228950   6.567   5.877   5.732  0.0891 -0.4590  0.7651
 2464TIP3    H128951   6.603   5.964   5.720 -1.8966  0.1716 -1.2830
 2464TIP3    H228952   6.536   5.876   5.823  1.5052  0.3739  1.2867
 2465TIP3   OH228953   4.066   0.531   6.528 -0.2001  0.2059 -0.3774
 2465TIP3    H128954   4.100   0.560   6.612  0.1874 -2.1024  0.3312
 2465TIP3    H228955   4.108   0.588   6.463  0.0224  1.5601  0.9181
 2466TIP3   OH228956   6.094   2.528   6.886 -0.4469  0.3318  0.1686
 2466TIP3    H128957   6.120   2.460   6.824  0.0494  0.1347  0.5892
 2466TIP3    H228958   6.155   2.519   6.959 -1.0037  0.5891  0.6724
 2467TIP3   OH228959   6.489   7.068   7.660 -0.0851 -0.1234  0.0002
 2467TIP3    H128960   6.463   7.004   7.594 -0.5865 -0.5714  0.6244
 2467TIP3    H228961   6.458   7.032   7.743 -0.4961  0.9787  0.3542
 2468TIP3   OH228962   4.958   3.476   5.520  0.3511 -0.8528  0.2909
 2468TIP3    H128963   4.989   3.562   5.491 -0.6547 -0.4019  0.4854
 2468TIP3    H228964   4.863   3.481   5.510  0.2578 -1.8451  0.5851
 2469TIP3   OH228965   4.350   0.388   5.760  0.0502 -0.2223  0.8017
 2469TIP3    H128966   4.262   0.352   5.747 -0.4607 -0.1202  3.4694
 2469TIP3    H228967   4.407   0.327   5.714 -1.2325 -1.6430  0.9949
 2470TIP3   OH228968   0.373   6.964   0.941 -0.1625 -0.4624  0.7385
 2470TIP3    H128969   0.392   6.871   0.938 -0.2310 -0.4421 -0.6251
 2470TIP3    H228970   0.296   6.975   0.885 -0.3039  0.3870  1.0719
 2471TIP3   OH228971   5.080   0.489   6.128 -0.4769  0.1195 -0.0816
 2471TIP3    H128972   5.157   0.465   6.178  1.9307  0.5549 -3.2431
 2471TIP3    H228973   5.102   0.573   6.088 -2.9722  0.6898 -0.4583
 2472TIP3   OH228974   0.543   5.007   0.168  0.4325 -0.3835 -0.5019
 2472TIP3    H128975   0.610   5.029   0.234 -1.0527 -0.2484  1.0355
 2472TIP3    H228976   0.462   5.042   0.204 -0.6387 -1.3614 -1.8694
 2473TIP3   OH228977   5.597   5.571   7.082 -0.3116  0.5146  0.0558
 2473TIP3    H128978   5.611   5.538   6.993 -0.6830 -0.6888  0.4177
 2473TIP3    H228979   5.625   5.499   7.139 -2.4691  0.2511  0.8730
 2474TIP3   OH228980   2.443   4.711   5.671 -0.5037  0.3224  0.3297
 2474TIP3    H128981   2.464   4.702   5.764 -0.8935  0.6510  0.4552
 2474TIP3    H228982   2.363   4.764   5.670  0.4069  1.7304 -0.2700
 2475TIP3   OH228983   1.078   2.382   7.938 -0.4749 -0.3179 -0.0869
 2475TIP3    H128984   0.988   2.384   7.971 -1.0887 -0.6486 -1.6655
 2475TIP3    H228985   1.105   2.473   7.937 -1.4593 -0.0151 -1.2850
 2476TIP3   OH228986   3.113   5.495   7.168  0.5067 -0.0118 -0.2607
 2476TIP3    H128987   3.144   5.586   7.161 -1.0110  0.4929 -0.8285
 2476TIP3    H228988   3.034   5.492   7.114  1.8839 -2.3293 -2.3631
 2477TIP3   OH228989   3.718   0.573   7.287 -0.2244 -0.0829  0.7717
 2477TIP3    H128990   3.719   0.490   7.335 -1.9000 -0.9912 -0.6471
 2477TIP3    H228991   3.761   0.552   7.204 -1.7305  0.1030 -0.0900
 2478TIP3   OH228992   6.420   5.186   5.756  0.3011  0.0486 -0.0798
 2478TIP3    H128993   6.465   5.123   5.812  0.3631 -0.0541 -0.2464
 2478TIP3    H228994   6.481   5.260   5.749 -0.2691  0.6562  1.1098
 2479TIP3   OH228995   0.907   1.678   0.828 -0.0581  0.2096  0.9398
 2479TIP3    H128996   0.938   1.595   0.793 -1.9193 -0.4402  0.7527
 2479TIP3    H228997   0.986   1.722   0.859  1.0538 -1.2544  0.2719
 2480TIP3   OH228998   3.042   4.878   6.308 -0.0068 -0.0619  0.0771
 2480TIP3    H128999   3.066   4.854   6.219 -2.1803 -1.1349 -0.3094
 2480TIP3    H229000   2.950   4.905   6.301  0.3657  1.8530  1.6812
 2481TIP3   OH229001   2.505   1.279   7.973 -0.4527  0.4590 -0.1189
 2481TIP3    H129002   2.567   1.333   7.923 -1.4424  1.9742  0.1937
 2481TIP3    H229003   2.457   1.230   7.907  0.4239  0.0055 -0.4267
 2482TIP3   OH229004   4.041   0.908   1.421  0.2433 -0.3354  0.1137
 2482TIP3    H129005   4.054   0.854   1.343  0.4004  0.4410 -0.4077
 2482TIP3    H229006   3.947   0.922   1.426  0.2775  0.0558 -0.2520
 2483TIP3   OH229007   2.898   5.621   7.644  0.5424 -0.5002 -0.0481
 2483TIP3    H129008   2.813   5.579   7.626  0.6777 -0.0163 -2.0431
 2483TIP3    H229009   2.956   5.548   7.665  0.3500 -1.1727 -1.7276
 2484TIP3   OH229010   4.262   0.464   6.285 -0.1531  0.1305  0.1006
 2484TIP3    H129011   4.180   0.496   6.248 -0.0484  0.3126  0.0239
 2484TIP3    H229012   4.322   0.458   6.211 -0.4068 -1.0548 -0.0384
 2485TIP3   OH229013   5.267   3.779   6.782  0.2614 -0.1743  0.4228
 2485TIP3    H129014   5.190   3.806   6.731  1.1156 -0.1842 -0.9079
 2485TIP3    H229015   5.230   3.739   6.861 -1.0758  1.6360  0.7903
 2486TIP3   OH229016   3.569   6.420   5.749 -0.5062  0.0531  0.1411
 2486TIP3    H129017   3.660   6.391   5.759 -1.0967 -1.4104  1.8736
 2486TIP3    H229018   3.567   6.507   5.790  0.0365 -0.0519  0.3940
 2487TIP3   OH229019   0.495   1.072   6.847  0.0763  0.1461  0.4757
 2487TIP3    H129020   0.437   1.148   6.853  0.1231  0.3011 -0.6882
 2487TIP3    H229021   0.577   1.107   6.813  0.0243 -0.4530 -0.2940
 2488TIP3   OH229022   5.660   0.021   6.078  0.0217 -0.0614 -0.2916
 2488TIP3    H129023   5.722   0.054   6.013  1.8340  1.1688  1.9080
 2488TIP3    H229024   5.613   0.099   6.107  0.5165 -0.2698  1.1216
 2489TIP3   OH229025   5.516   1.699   1.666 -0.5646 -0.1339  0.2096
 2489TIP3    H129026   5.463   1.724   1.742 -0.5553  2.4344 -0.5415
 2489TIP3    H229027   5.589   1.649   1.703 -2.0210 -1.3902  1.5469
 2490TIP3   OH229028   1.884   3.908   1.867  0.0787 -0.4904 -0.2964
 2490TIP3    H129029   1.948   3.980   1.865 -0.4508  0.1159  1.8398
 2490TIP3    H229030   1.935   3.832   1.896  0.1360 -0.3666 -0.0687
 2491TIP3   OH229031   0.568   0.330   1.903  0.4335  0.1878 -0.1387
 2491TIP3    H129032   0.641   0.322   1.841  0.4616  0.5098 -0.1494
 2491TIP3    H229033   0.610   0.334   1.989  0.3891 -0.3612 -0.0896
 2492TIP3   OH229034   5.008   6.875   1.714  0.4572  0.2665  0.8264
 2492TIP3    H129035   4.927   6.919   1.691  0.3066 -0.5105 -0.1762
 2492TIP3    H229036   5.077   6.937   1.689  0.2005  0.6120  0.9712
 2493TIP3   OH229037   3.544   3.571   7.531  0.4788  0.1477  0.1100
 2493TIP3    H129038   3.593   3.648   7.559  0.4800  1.0154 -2.0493
 2493TIP3    H229039   3.609   3.501   7.530  0.1048 -0.4371  3.8128
 2494TIP3   OH229040   1.759   3.618   0.519 -0.0251  0.3685 -0.1279
 2494TIP3    H129041   1.830   3.683   0.524  0.6351 -0.3945  3.4567
 2494TIP3    H229042   1.680   3.668   0.537  0.1966  0.5814  0.2873
 2495TIP3   OH229043   5.457   1.099   0.561  0.3935  0.0708  0.3142
 2495TIP3    H129044   5.552   1.101   0.546  0.2182 -0.0708 -0.9850
 2495TIP3    H229045   5.423   1.048   0.487 -0.6343 -0.5073  1.1587
 2496TIP3   OH229046   1.182   6.918   1.229  0.1286 -0.6984 -0.1599
 2496TIP3    H129047   1.246   6.869   1.179 -1.3733 -1.9134 -0.9768
 2496TIP3    H229048   1.112   6.938   1.166 -0.2507  0.6978  0.6550
 2497TIP3   OH229049   1.151   2.849   0.459  0.6232  0.8235  0.7758
 2497TIP3    H129050   1.068   2.835   0.414  0.6910 -1.1484  1.1595
 2497TIP3    H229051   1.165   2.769   0.510  3.0249  0.8323  0.2675
 2498TIP3   OH229052   6.828   6.119   6.796 -0.2824 -0.4609 -0.4000
 2498TIP3    H129053   6.876   6.070   6.863 -1.7770 -0.3041  0.8361
 2498TIP3    H229054   6.761   6.059   6.765 -1.1631  0.2487  0.0499
 2499TIP3   OH229055   4.050   4.174   7.621 -0.3631 -0.2613 -0.3541
 2499TIP3    H129056   4.006   4.212   7.545  0.3854  0.0222 -0.6628
 2499TIP3    H229057   4.022   4.083   7.622 -1.5296  0.0782 -0.0938
 2500TIP3   OH229058   3.828   3.242   6.635  0.6493 -0.2934  0.4006
 2500TIP3    H129059   3.749   3.274   6.679 -0.2060 -2.1994  0.3416
 2500TIP3    H229060   3.897   3.253   6.700 -0.0307 -0.3878  1.1623
 2501TIP3   OH229061   4.665   6.144   0.893  0.2001  0.0444  0.1871
 2501TIP3    H129062   4.630   6.233   0.892  0.1031  0.0573  2.0527
 2501TIP3    H229063   4.589   6.088   0.875 -0.3287  0.2093  1.7726
 2502TIP3   OH229064   0.259   0.992   1.131  0.1904  0.0361  0.3944
 2502TIP3    H129065   0.311   1.045   1.191  1.3079 -2.0412  1.3786
 2502TIP3    H229066   0.319   0.970   1.060  0.0335 -0.6312  0.4580
 2503TIP3   OH229067   1.190   6.630   0.212  0.5978 -0.3027 -0.2930
 2503TIP3    H129068   1.261   6.616   0.150 -0.1408 -1.6062 -0.8874
 2503TIP3    H229069   1.111   6.608   0.163 -0.2931  1.6407  0.1762
 2504TIP3   OH229070   1.284   4.405   0.341  0.2659  0.4475  0.2695
 2504TIP3    H129071   1.346   4.476   0.322  0.0943  0.6844  0.5696
 2504TIP3    H229072   1.338   4.327   0.346  0.5877  0.6979  0.8252
 2505TIP3   OH229073   6.270   5.149   7.399 -0.1171 -0.6789 -0.2657
 2505TIP3    H129074   6.305   5.233   7.367  1.3523 -1.2561 -0.2353
 2505TIP3    H229075   6.324   5.128   7.475  0.1815 -2.1206 -0.8481
 2506TIP3   OH229076   5.865   1.579   0.168 -0.3589  0.2656 -0.2956
 2506TIP3    H129077   5.857   1.597   0.075 -1.0517  0.0881 -0.2703
 2506TIP3    H229078   5.776   1.584   0.202 -0.1901 -0.2743  0.2446
 2507TIP3   OH229079   0.520   2.116   2.132  0.0131  0.1161 -0.0446
 2507TIP3    H129080   0.517   2.024   2.106 -0.2800 -0.0262  0.4821
 2507TIP3    H229081   0.442   2.154   2.092  0.0200  0.0891 -0.0843
 2508TIP3   OH229082   1.553   3.371   0.682  0.1334 -0.6463 -0.0270
 2508TIP3    H129083   1.648   3.369   0.683  0.1415 -0.2692  1.2014
 2508TIP3    H229084   1.529   3.458   0.713 -0.6188 -1.0231  0.4870
 2509TIP3   OH229085   1.437   1.995   6.697 -0.1452  0.0342  0.1197
 2509TIP3    H129086   1.497   1.933   6.736 -0.3563 -0.0221  0.3608
 2509TIP3    H229087   1.383   2.026   6.770  0.9648  1.6801  0.3128
 2510TIP3   OH229088   3.273   1.684   6.423 -0.3488  0.4494  0.1048
 2510TIP3    H129089   3.292   1.767   6.379  1.5130 -0.3954 -0.7952
 2510TIP3    H229090   3.267   1.620   6.353 -1.3808 -0.2687  0.8175
 2511TIP3   OH229091   3.525   3.191   6.821  0.0502 -0.4145 -0.3311
 2511TIP3    H129092   3.600   3.250   6.825 -0.0017 -0.2207 -1.6164
 2511TIP3    H229093   3.532   3.137   6.899  1.0096  0.2166  0.0348
 2512TIP3   OH229094   5.318   6.411   7.377 -0.5367 -0.0636  0.7406
 2512TIP3    H129095   5.236   6.434   7.422 -1.2454  0.8551 -0.9149
 2512TIP3    H229096   5.300   6.429   7.285  1.8967  1.2975  0.4437
 2513TIP3   OH229097   2.100   4.697   7.544 -0.0393 -0.4404 -0.8597
 2513TIP3    H129098   2.034   4.633   7.516  1.7962 -1.6611 -2.7163
 2513TIP3    H229099   2.055   4.781   7.543 -1.0835 -0.8916 -4.3364
 2514TIP3   OH229100   4.423   5.783   0.680  0.2243  0.4365  0.0221
 2514TIP3    H129101   4.487   5.790   0.609 -1.1495 -0.9843 -1.4149
 2514TIP3    H229102   4.441   5.698   0.721 -0.1635  0.4333  0.1925
 2515TIP3   OH229103   0.610   1.553   7.241 -0.7475 -0.3251  0.0032
 2515TIP3    H129104   0.548   1.625   7.239 -0.2408  0.1532  0.9039
 2515TIP3    H229105   0.688   1.587   7.199 -0.4637 -0.2925  0.5418
 2516TIP3   OH229106   1.798   3.783   6.155  0.5295  0.3345  0.2500
 2516TIP3    H129107   1.714   3.742   6.171 -0.0620  1.5614  0.4398
 2516TIP3    H229108   1.860   3.734   6.209 -0.1336 -0.3058  0.4358
 2517TIP3   OH229109   3.091   0.140   7.222  0.1365 -0.1143 -0.0690
 2517TIP3    H129110   3.169   0.138   7.278  0.3856  1.5038 -0.2996
 2517TIP3    H229111   3.075   0.048   7.200  2.3136 -0.4646 -0.4947
 2518TIP3   OH229112   5.231   6.630   0.738  0.3391  0.5149  0.3696
 2518TIP3    H129113   5.177   6.581   0.676 -0.2409  1.6582 -0.0551
 2518TIP3    H229114   5.176   6.638   0.816  0.6649 -0.0212  0.6564
 2519TIP3   OH229115   1.668   6.597   7.726 -0.1912  0.1109  0.7312
 2519TIP3    H129116   1.759   6.600   7.756 -0.2742 -0.2289  1.0314
 2519TIP3    H229117   1.634   6.685   7.743  0.5396  0.7229 -0.8750
 2520TIP3   OH229118   2.464   5.086   6.779 -0.6859  0.5663  0.1452
 2520TIP3    H129119   2.543   5.086   6.833 -1.0778  0.8802  0.7284
 2520TIP3    H229120   2.405   5.148   6.821 -0.5472  1.7563 -1.3304
 2521TIP3   OH229121   2.708   5.812   1.143  0.1084 -0.8212 -0.1658
 2521TIP3    H129122   2.722   5.848   1.231 -0.1425  0.4091 -0.6145
 2521TIP3    H229123   2.795   5.811   1.104  0.0406 -0.1594 -0.3454
 2522TIP3   OH229124   1.355   3.923   6.306 -0.6248  0.3046  0.2995
 2522TIP3    H129125   1.339   3.829   6.316 -0.6815  0.5684  4.2771
 2522TIP3    H229126   1.271   3.959   6.279 -1.4342 -0.5245  1.6050
 2523TIP3   OH229127   6.192   3.792   0.598  0.1448  0.3233  0.0570
 2523TIP3    H129128   6.233   3.709   0.573 -3.8441 -1.1887 -2.7222
 2523TIP3    H229129   6.171   3.782   0.691 -0.9456 -2.3087 -0.3711
 2524TIP3   OH229130   2.971   1.289   7.154 -0.3570  0.3116  0.1708
 2524TIP3    H129131   2.949   1.339   7.233  0.3876  1.2782 -0.2210
 2524TIP3    H229132   3.066   1.285   7.152 -0.3889 -1.1338  0.1741
 2525TIP3   OH229133   2.239   1.424   1.178 -0.2149 -0.2718  0.4901
 2525TIP3    H129134   2.188   1.497   1.143  1.4240  0.3573 -0.6816
 2525TIP3    H229135   2.245   1.442   1.272  0.4416  1.3002  0.1751
 2526TIP3   OH229136   2.576   1.855   1.058 -0.3679 -0.3613 -0.2440
 2526TIP3    H129137   2.647   1.917   1.076 -0.2850 -0.6147  0.3581
 2526TIP3    H229138   2.610   1.771   1.089 -1.5766 -0.1903  1.7026
 2527TIP3   OH229139   0.523   2.325   7.724 -0.1874 -0.5835 -0.2115
 2527TIP3    H129140   0.471   2.400   7.749  0.2873 -0.3406  0.0593
 2527TIP3    H229141   0.466   2.273   7.667 -0.3288  0.2606 -0.8477
 2528TIP3   OH229142   0.747   3.970   6.524 -0.4417 -0.2159 -0.4103
 2528TIP3    H129143   0.808   3.974   6.451 -0.8665  1.2609 -0.7280
 2528TIP3    H229144   0.662   3.952   6.483 -0.5749 -0.0361 -0.2147
 2529TIP3   OH229145   2.336   0.460   8.018  0.0374  0.1902  0.1331
 2529TIP3    H129146   2.310   0.445   8.109  0.7571 -0.7074  0.2072
 2529TIP3    H229147   2.312   0.551   8.001 -1.9183 -0.1753  0.5999
 2530TIP3   OH229148   2.015   6.275   1.132 -0.1134  0.0682 -0.4119
 2530TIP3    H129149   2.067   6.327   1.071  0.6084  0.5060  0.5377
 2530TIP3    H229150   1.986   6.338   1.198 -1.7076 -0.2087 -0.8080
 2531TIP3   OH229151   5.148   5.563   1.615  0.1781 -0.0054 -1.2797
 2531TIP3    H129152   5.233   5.601   1.638  1.1935 -0.5676 -3.7785
 2531TIP3    H229153   5.125   5.509   1.691  1.4014  1.1641 -0.0088
 2532TIP3   OH229154   5.084   6.637   6.608 -0.3165  0.1596  0.2610
 2532TIP3    H129155   5.110   6.669   6.695  0.1647 -1.7494  0.8598
 2532TIP3    H229156   5.167   6.623   6.562 -0.5820  2.4309 -1.0527
 2533TIP3   OH229157   5.594   0.733   6.664  1.1930  0.1187 -0.3910
 2533TIP3    H129158   5.665   0.793   6.686  0.7544  0.0930  1.2715
 2533TIP3    H229159   5.554   0.711   6.749  1.0802 -2.2061 -0.9747
 2534TIP3   OH229160   6.664   7.058   0.455  0.4241 -0.0581  0.0008
 2534TIP3    H129161   6.753   7.024   0.448 -0.2011 -1.6184 -1.2039
 2534TIP3    H229162   6.609   6.987   0.420 -1.0495  2.0488 -2.2920
 2535TIP3   OH229163   3.933   5.582   6.521 -0.0437 -0.1070 -0.0714
 2535TIP3    H129164   3.969   5.668   6.501 -1.2354  0.9945  2.1445
 2535TIP3    H229165   3.839   5.591   6.506 -0.4337 -0.4123  1.9689
 2536TIP3   OH229166   0.314   4.405   0.934 -0.1819 -0.2320 -0.2497
 2536TIP3    H129167   0.246   4.344   0.906 -0.8272 -0.5236  1.7530
 2536TIP3    H229168   0.312   4.400   1.030  2.9678 -0.6111 -0.0846
 2537TIP3   OH229169   7.065   1.571   7.028  0.2103  0.4703 -0.4765
 2537TIP3    H129170   7.019   1.549   7.109  1.0911  0.1440 -0.0455
 2537TIP3    H229171   7.079   1.487   6.985  0.8091  0.5045 -0.3642
 2538TIP3   OH229172   5.637   1.969   1.501 -0.2246 -0.3271  0.4996
 2538TIP3    H129173   5.637   1.884   1.545 -2.0119 -0.4460  0.3192
 2538TIP3    H229174   5.622   1.949   1.409  0.0105  0.1515  0.3520
 2539TIP3   OH229175   4.903   6.545   7.158 -0.0632 -1.0665 -0.1765
 2539TIP3    H129176   4.855   6.467   7.184  0.7502 -1.1476  1.1184
 2539TIP3    H229177   4.885   6.609   7.227 -1.9156  0.4668 -1.9053
 2540TIP3   OH229178   4.988   5.583   1.372 -0.0741 -0.3317 -0.4331
 2540TIP3    H129179   5.063   5.548   1.420  0.2578 -0.0170 -0.7126
 2540TIP3    H229180   4.911   5.548   1.418  0.2456 -1.4926 -0.7568
 2541TIP3   OH229181   5.829   1.356   5.715 -0.6579  0.7399  0.1638
 2541TIP3    H129182   5.831   1.262   5.733  2.9394  0.4391 -1.1108
 2541TIP3    H229183   5.901   1.371   5.655 -1.3775  4.3032 -0.0339
 2542TIP3   OH229184   4.212   6.279   7.098  0.2974 -0.3458  0.1146
 2542TIP3    H129185   4.187   6.371   7.110 -2.0544 -0.0614 -4.5727
 2542TIP3    H229186   4.283   6.281   7.034  0.4309 -1.7768  0.1860
 2543TIP3   OH229187   6.522   5.126   1.074  0.4962 -0.2702  0.3034
 2543TIP3    H129188   6.617   5.126   1.066  0.4402  1.8160 -1.4282
 2543TIP3    H229189   6.505   5.151   1.165  1.5044 -2.7192  1.2592
 2544TIP3   OH229190   7.087   0.508   2.034  0.1720  0.0488 -0.5968
 2544TIP3    H129191   7.098   0.574   1.964  0.7964 -1.9324 -2.4847
 2544TIP3    H229192   7.176   0.478   2.053 -0.0374  0.2355  0.7698
 2545TIP3   OH229193   4.387   2.213   7.943  0.4311  0.1613 -0.5480
 2545TIP3    H129194   4.465   2.259   7.912 -1.2076  0.9241 -4.0679
 2545TIP3    H229195   4.413   2.175   8.027  3.9759  1.8401 -0.6992
 2546TIP3   OH229196   2.407   5.338   6.168  0.4556 -0.3792 -0.2622
 2546TIP3    H129197   2.489   5.301   6.135  0.9664  1.5093 -1.2457
 2546TIP3    H229198   2.402   5.424   6.128 -1.3459  0.0931  0.8775
 2547TIP3   OH229199   2.046   2.920   0.481  0.1278 -0.8395  0.3993
 2547TIP3    H129200   2.108   2.991   0.496  1.0059 -1.1871 -1.3107
 2547TIP3    H229201   2.101   2.842   0.471 -0.6468 -1.3421 -0.0467
 2548TIP3   OH229202   4.387   2.233   7.125  0.2587  0.3696 -0.3779
 2548TIP3    H129203   4.435   2.181   7.189 -1.0011  0.0670  0.3543
 2548TIP3    H229204   4.311   2.179   7.102 -0.9073  1.7127  0.1536
 2549TIP3   OH229205   0.928   5.604   0.351 -1.0453 -0.3584  0.5830
 2549TIP3    H129206   1.008   5.651   0.377 -1.6751  0.6287  0.8090
 2549TIP3    H229207   0.911   5.544   0.423 -1.0928  0.1920  1.0398
 2550TIP3   OH229208   5.451   4.208   5.991  0.1166 -0.2672  0.1468
 2550TIP3    H129209   5.434   4.171   5.905 -0.2886 -1.3149  0.6616
 2550TIP3    H229210   5.463   4.301   5.975 -1.0231 -0.2780 -0.8959
 2551TIP3   OH229211   1.768   1.788   1.686 -0.1999  0.0700  0.3358
 2551TIP3    H129212   1.740   1.863   1.633  1.3009  1.5108  1.4934
 2551TIP3    H229213   1.817   1.826   1.759 -0.3627 -1.9819  1.6055
 2552TIP3   OH229214   7.047   1.312   6.850 -0.0429  0.2467 -0.2491
 2552TIP3    H129215   7.059   1.220   6.830  1.0682 -0.5293  3.3454
 2552TIP3    H229216   6.954   1.329   6.833  0.1115 -0.9492 -2.6829
 2553TIP3   OH229217   6.168   1.446   0.028  0.0331  0.2045 -0.2178
 2553TIP3    H129218   6.079   1.443   0.062  0.4113  1.5923  1.0013
 2553TIP3    H229219   6.169   1.381  -0.043 -1.9883  0.3047 -0.3982
 2554TIP3   OH229220   2.200   4.281   0.995 -0.2246 -0.3181 -0.9823
 2554TIP3    H129221   2.147   4.360   0.994  0.6319  0.3015  0.2805
 2554TIP3    H229222   2.175   4.234   0.915 -1.2082  0.9009 -1.4166
 2555TIP3   OH229223   5.345   6.993   7.381 -0.2278 -0.3716  0.3838
 2555TIP3    H129224   5.376   7.026   7.465 -0.2237  1.1024 -0.1530
 2555TIP3    H229225   5.394   6.913   7.366 -0.0426 -0.5090  1.6569
 2556TIP3   OH229226   2.654   4.674   5.504 -0.8922  0.2398  0.5322
 2556TIP3    H129227   2.703   4.633   5.575 -1.1839 -0.4722  0.3362
 2556TIP3    H229228   2.571   4.698   5.543  0.0889  2.7530  1.2392
 2557TIP3   OH229229   3.846   6.245   7.715  0.3324 -0.3303 -0.3026
 2557TIP3    H129230   3.922   6.275   7.665  0.1640 -1.1543 -1.0687
 2557TIP3    H229231   3.800   6.185   7.656 -1.0830  0.3836  0.0320
 2558TIP3   OH229232   1.339   2.832   1.866  0.0921  0.1742  0.3542
 2558TIP3    H129233   1.319   2.747   1.906  1.5786  0.4317  1.7830
 2558TIP3    H229234   1.263   2.886   1.886 -0.1590 -0.3667  0.9025
 2559TIP3   OH229235   6.518   7.128   0.662  0.2320  0.1791 -0.2813
 2559TIP3    H129236   6.526   7.223   0.655 -1.1498  0.2262 -1.5062
 2559TIP3    H229237   6.570   7.094   0.588 -0.3880  0.0420 -0.6601
 2560TIP3   OH229238   3.583   5.194   0.259 -0.1063  0.0265 -0.4015
 2560TIP3    H129239   3.603   5.110   0.301 -0.0589 -0.2815 -1.0334
 2560TIP3    H229240   3.655   5.252   0.285 -0.2203 -0.0760  0.1658
 2561TIP3   OH229241   4.230   5.266   0.110  0.5493 -0.1621 -0.6444
 2561TIP3    H129242   4.225   5.313   0.194  0.1893  0.0238 -0.7661
 2561TIP3    H229243   4.218   5.335   0.045  2.4917 -0.0170 -0.9247
 2562TIP3   OH229244   3.153   3.707   7.813  0.9294  0.2518  0.4077
 2562TIP3    H129245   3.164   3.682   7.722 -0.7861  0.9524 -0.0436
 2562TIP3    H229246   3.124   3.798   7.809 -1.6948 -0.4512  1.4649
 2563TIP3   OH229247   2.350   6.587   0.131 -0.2303  0.2669 -0.1417
 2563TIP3    H129248   2.417   6.592   0.199 -1.1299 -1.0410  0.9040
 2563TIP3    H229249   2.376   6.513   0.077  0.3061  1.1037 -1.0625
 2564TIP3   OH229250   1.002   6.857   6.262 -0.2146  0.0018  0.2302
 2564TIP3    H129251   0.996   6.768   6.227  2.1292 -1.0674  2.2554
 2564TIP3    H229252   0.935   6.906   6.214  0.2996 -2.1300 -2.9913
 2565TIP3   OH229253   5.136   1.419   7.834 -0.0173 -0.1250  0.0769
 2565TIP3    H129254   5.088   1.501   7.836 -0.1263 -0.1900  0.0968
 2565TIP3    H229255   5.076   1.354   7.869  0.1623 -0.1677  0.3116
 2566TIP3   OH229256   2.253   5.037   7.045  0.5944 -0.0392  0.3740
 2566TIP3    H129257   2.269   5.056   7.138 -0.7522  0.1741  0.5927
 2566TIP3    H229258   2.234   5.122   7.006 -1.2672 -0.3740  0.4501
 2567TIP3   OH229259   4.589   2.856   0.519  1.0850  0.5902  0.0581
 2567TIP3    H129260   4.550   2.783   0.569  0.1188  1.9515  1.4159
 2567TIP3    H229261   4.679   2.829   0.502  0.6477 -1.0579  0.2311
 2568TIP3   OH229262   3.264   0.491   1.236 -0.5788  0.2142 -0.0729
 2568TIP3    H129263   3.173   0.513   1.255 -0.3731  0.5834  0.5055
 2568TIP3    H229264   3.309   0.576   1.233 -0.5666  0.1673 -2.0823
 2569TIP3   OH229265   4.973   2.621   1.043 -0.5247  0.0980 -0.0893
 2569TIP3    H129266   4.958   2.697   1.100 -1.4138 -1.0147  1.2351
 2569TIP3    H229267   4.916   2.636   0.968 -0.9322  0.5983  0.3093
 2570TIP3   OH229268   6.477   5.104   6.958 -0.3253 -0.3787  0.3417
 2570TIP3    H129269   6.433   5.124   7.041  0.7826  0.9692  0.6446
 2570TIP3    H229270   6.406   5.102   6.893 -1.1383 -0.9414  1.2214
 2571TIP3   OH229271   6.056   0.661   6.699  0.2982  0.0406  0.3544
 2571TIP3    H129272   6.007   0.669   6.780 -0.4743 -0.1628 -0.0805
 2571TIP3    H229273   6.022   0.582   6.657  0.4300  0.3293 -0.3280
 2572TIP3   OH229274   0.441   5.796   7.113  0.0036  0.8521  0.3151
 2572TIP3    H129275   0.522   5.745   7.109 -0.1306  0.7194 -1.5472
 2572TIP3    H229276   0.372   5.730   7.123 -0.0918  0.6837 -1.1706
 2573TIP3   OH229277   0.931   5.951   1.190  0.2940  0.3509  0.1146
 2573TIP3    H129278   0.945   5.863   1.223 -0.2488 -0.9557 -2.8064
 2573TIP3    H229279   0.853   5.943   1.134  0.7813  2.4669 -0.9541
 2574TIP3   OH229280   2.194   1.503   1.639  0.2258 -0.0318 -0.0622
 2574TIP3    H129281   2.155   1.502   1.552  0.1405 -0.9630 -0.0263
 2574TIP3    H229282   2.123   1.478   1.698  0.8558 -1.8105 -0.0022
 2575TIP3   OH229283   6.211   6.921   1.777 -0.0650  0.1660 -0.0538
 2575TIP3    H129284   6.182   7.008   1.802  1.8631  1.2770 -1.4372
 2575TIP3    H229285   6.160   6.901   1.698  0.4670  0.6400 -0.5210
 2576TIP3   OH229286   1.625   2.290   7.081  0.2804  0.7910  0.0755
 2576TIP3    H129287   1.624   2.224   7.011 -0.7334 -2.0932  2.5774
 2576TIP3    H229288   1.699   2.265   7.136 -0.6543  1.1984  1.5635
 2577TIP3   OH229289   0.779   2.911   7.144 -0.4889 -0.0498 -0.2802
 2577TIP3    H129290   0.692   2.937   7.114 -1.0850 -0.9129  0.6190
 2577TIP3    H229291   0.774   2.815   7.152  0.7277 -0.1702 -0.7636
 2578TIP3   OH229292   1.751   5.290   6.109 -0.1352  0.4849  0.0871
 2578TIP3    H129293   1.777   5.231   6.038  0.6662  0.3039  0.5215
 2578TIP3    H229294   1.755   5.377   6.070  0.4109  0.3973 -0.0609
 2579TIP3   OH229295   6.576   4.719   1.741 -0.2402 -0.5672 -0.0175
 2579TIP3    H129296   6.515   4.721   1.815  0.4070 -0.2154  0.5190
 2579TIP3    H229297   6.597   4.626   1.730 -0.8969 -0.6999 -0.2416
 2580TIP3   OH229298   0.966   6.768   0.055  0.0889  0.3878 -0.1492
 2580TIP3    H129299   1.023   6.826   0.107  0.9574 -0.5856  0.0219
 2580TIP3    H229300   0.962   6.810  -0.031 -1.1126  1.8578  0.5742
 2581TIP3   OH229301   0.451   1.415   6.703 -0.2096  0.5666  0.9574
 2581TIP3    H129302   0.545   1.401   6.689 -0.3168 -0.8152  1.4345
 2581TIP3    H229303   0.446   1.461   6.787  0.1557  3.7820 -0.6301
 2582TIP3   OH229304   6.440   6.685   7.626 -0.0855  0.4288  0.0111
 2582TIP3    H129305   6.533   6.706   7.617 -0.2144  1.3074  0.6350
 2582TIP3    H229306   6.400   6.716   7.544  0.4294 -1.6356 -1.0879
 2583TIP3   OH229307   0.572   0.296   0.814  0.1694  0.2641  0.3742
 2583TIP3    H129308   0.544   0.259   0.899 -1.6001 -0.7783 -0.5939
 2583TIP3    H229309   0.517   0.251   0.750  0.9746  1.5540 -1.2821
 2584TIP3   OH229310   4.335   2.519   7.140  0.0462  0.2794 -0.1468
 2584TIP3    H129311   4.343   2.427   7.117  1.3031  0.7311 -1.6151
 2584TIP3    H229312   4.375   2.526   7.227 -0.1635 -0.5663  0.0197
 2585TIP3   OH229313   1.197   5.736   7.561 -1.0874  0.4478 -0.1639
 2585TIP3    H129314   1.258   5.684   7.509 -0.3383  0.5345  0.6055
 2585TIP3    H229315   1.197   5.822   7.519 -2.2377 -0.1156 -1.3680
 2586TIP3   OH229316   1.541   2.407   6.604  0.0208 -0.0205  0.0340
 2586TIP3    H129317   1.633   2.404   6.631  0.3856 -1.2994 -1.2577
 2586TIP3    H229318   1.502   2.472   6.663  2.0963  1.8450 -0.5076
 2587TIP3   OH229319   6.867   0.545   7.695  0.5848 -0.4414  0.4811
 2587TIP3    H129320   6.900   0.460   7.666 -0.4587 -1.3227  1.7944
 2587TIP3    H229321   6.873   0.600   7.617  0.3910 -1.9732 -0.6741
 2588TIP3   OH229322   5.646   3.170   7.901 -0.2810 -0.1865  0.0614
 2588TIP3    H129323   5.643   3.122   7.984 -0.5934  1.4537  1.0580
 2588TIP3    H229324   5.578   3.237   7.910  1.5960  1.8974 -0.2693
 2589TIP3   OH229325   3.389   5.412   6.183  0.3301  0.4222  0.2601
 2589TIP3    H129326   3.394   5.394   6.089 -1.0293 -0.0188  0.2435
 2589TIP3    H229327   3.327   5.485   6.189  1.4303  1.3342  0.7342
 2590TIP3   OH229328   4.846   1.951   0.112  0.1718  0.6821  0.5771
 2590TIP3    H129329   4.782   2.022   0.126 -0.2363  0.5973 -0.7582
 2590TIP3    H229330   4.848   1.904   0.196 -0.8166  1.2623  0.9424
 2591TIP3   OH229331   4.892   4.723   7.306  0.7851 -0.3544 -0.5721
 2591TIP3    H129332   4.892   4.782   7.230  0.0457  0.2543 -0.1109
 2591TIP3    H229333   4.876   4.780   7.381 -3.1779 -1.4107 -0.3774
 2592TIP3   OH229334   2.476   2.913   7.866  0.1984 -0.3264  0.2488
 2592TIP3    H129335   2.464   2.842   7.803 -0.9809 -1.5697  1.7810
 2592TIP3    H229336   2.531   2.875   7.935 -1.1574 -0.0879  1.5207
 2593TIP3   OH229337   1.664   4.207   6.710  0.2665 -0.0604 -0.2953
 2593TIP3    H129338   1.694   4.253   6.632 -0.6438  0.7911 -0.1729
 2593TIP3    H229339   1.701   4.119   6.703  0.6675  0.1887 -1.3914
 2594TIP3   OH229340   4.476   3.814   7.336  0.5588 -0.4901  0.0875
 2594TIP3    H129341   4.520   3.735   7.370  0.2718 -0.8264 -0.3179
 2594TIP3    H229342   4.522   3.834   7.255 -1.8954 -2.6369 -2.0114
 2595TIP3   OH229343   1.903   1.508   0.016 -0.0643 -0.0363 -0.2321
 2595TIP3    H129344   1.886   1.599   0.041 -0.2723 -0.2789  0.5531
 2595TIP3    H229345   1.914   1.462   0.100 -0.4254 -0.8187 -0.6042
 2596TIP3   OH229346   0.217   5.260   0.095 -0.3371  0.7068 -0.4745
 2596TIP3    H129347   0.189   5.170   0.078 -2.1379  0.9885  0.8078
 2596TIP3    H229348   0.231   5.297   0.007  2.6862 -1.4093 -1.0463
 2597TIP3   OH229349   7.071   0.833   2.093 -0.1022 -0.1459  0.1791
 2597TIP3    H129350   7.066   0.775   2.017  2.7815  1.4206 -1.3616
 2597TIP3    H229351   7.101   0.917   2.058 -1.2604  1.4884  2.7269
 2598TIP3   OH229352   3.609   6.311   7.868 -0.0846  0.2904 -0.1015
 2598TIP3    H129353   3.670   6.248   7.831 -0.8511  0.7174 -2.2513
 2598TIP3    H229354   3.524   6.267   7.865 -0.3281  0.7335  0.1713
 2599TIP3   OH229355   4.134   4.339   6.596 -0.1832  0.6296 -0.2057
 2599TIP3    H129356   4.187   4.344   6.516 -0.8493 -0.8905 -0.7865
 2599TIP3    H229357   4.106   4.429   6.612 -0.9611  0.8402 -2.3461
 2600TIP3   OH229358   2.018   6.311   1.667 -0.1662 -0.1478 -0.3947
 2600TIP3    H129359   1.968   6.236   1.700  0.6570 -0.9372 -0.8693
 2600TIP3    H229360   1.974   6.388   1.703 -0.6296 -0.8912  0.6682
 2601TIP3   OH229361   6.211   2.002   1.044  0.0717  0.1227  0.5702
 2601TIP3    H129362   6.296   1.958   1.051  0.0091 -0.0725  0.1653
 2601TIP3    H229363   6.228   2.078   0.988  0.1728  0.6015  1.2431
 2602TIP3   OH229364   5.481   6.742   0.976 -0.1381  0.2793 -0.6547
 2602TIP3    H129365   5.396   6.773   0.946  1.1494  1.1341 -3.8427
 2602TIP3    H229366   5.499   6.665   0.922  0.4030 -0.9619  1.1994
 2603TIP3   OH229367   6.690   1.506   1.119 -0.2484 -0.5118  0.2746
 2603TIP3    H129368   6.731   1.582   1.160  0.3645 -0.1020 -1.0151
 2603TIP3    H229369   6.665   1.537   1.032 -2.9216 -0.8916  0.8245
 2604TIP3   OH229370   4.422   4.244   1.342 -0.4253  0.1472 -0.0301
 2604TIP3    H129371   4.468   4.327   1.345 -0.0478 -0.0732  0.5243
 2604TIP3    H229372   4.334   4.263   1.375 -0.7971  0.5965 -1.2240
 2605TIP3   OH229373   2.529   3.966   7.944 -0.0388  0.2134 -0.0085
 2605TIP3    H129374   2.491   4.020   7.876 -1.9414 -1.6374 -0.5246
 2605TIP3    H229375   2.565   3.890   7.898 -0.5942 -0.6620  0.9526
 2606TIP3   OH229376   2.823   7.020   6.528 -0.4051  0.5505  0.5127
 2606TIP3    H129377   2.899   7.065   6.491 -0.2127  1.0058  1.4232
 2606TIP3    H229378   2.855   6.934   6.553 -0.1869  0.7442  0.8999
 2607TIP3   OH229379   1.613   1.215   1.728  0.4984 -0.2181 -0.3119
 2607TIP3    H129380   1.702   1.180   1.724  1.9001  3.0349 -1.1062
 2607TIP3    H229381   1.560   1.144   1.764  3.4966 -2.1094  0.6854
 2608TIP3   OH229382   6.326   1.880   0.499  0.4836  0.1590  0.1123
 2608TIP3    H129383   6.298   1.803   0.448  2.8427 -1.5662  1.2756
 2608TIP3    H229384   6.280   1.953   0.457 -2.2295 -1.8775 -0.7753
 2609TIP3   OH229385   2.075   0.340   0.694 -0.9593 -0.2695  0.1933
 2609TIP3    H129386   2.027   0.332   0.611  1.0736  0.6754 -1.1385
 2609TIP3    H229387   2.108   0.252   0.711 -2.0471 -0.6440  0.4467
 2610TIP3   OH229388   3.429   5.219   7.985  0.8679  0.0031 -1.0076
 2610TIP3    H129389   3.412   5.284   8.053  1.9579 -0.9508  0.2321
 2610TIP3    H229390   3.477   5.267   7.917  1.7854  0.4715 -0.0430
 2611TIP3   OH229391   2.512   3.482   6.165 -0.6504 -0.1602 -0.2786
 2611TIP3    H129392   2.589   3.456   6.115  0.3186  1.4295  0.3119
 2611TIP3    H229393   2.464   3.401   6.179  2.1456 -1.6959  1.4044
 2612TIP3   OH229394   0.560   3.746   7.060 -0.3301  0.0151  0.2587
 2612TIP3    H129395   0.632   3.695   7.096  0.3807  1.3177  0.7545
 2612TIP3    H229396   0.555   3.824   7.116 -1.0889  0.7037 -0.7254
 2613TIP3   OH229397   2.073   3.452   1.479 -0.0714 -0.4928  0.3948
 2613TIP3    H129398   2.071   3.529   1.536 -1.1175 -1.2630  1.4361
 2613TIP3    H229399   2.159   3.414   1.493  0.7552  0.8798 -0.6999
 2614TIP3   OH229400   1.935   1.087   2.136  0.6817 -0.4632  0.6505
 2614TIP3    H129401   1.844   1.104   2.161  0.4230  0.1434 -0.6024
 2614TIP3    H229402   1.937   0.994   2.113  0.3700 -0.4724  0.6526
 2615TIP3   OH229403   0.225   5.655   7.239  0.1223  0.4221  0.0445
 2615TIP3    H129404   0.164   5.642   7.311  0.1111 -1.0729 -0.1863
 2615TIP3    H229405   0.227   5.570   7.194  1.7083  0.6824 -0.4561
 2616TIP3   OH229406   3.748   2.990   0.560  0.2302 -0.6197  0.0459
 2616TIP3    H129407   3.743   3.077   0.520 -1.2872 -0.6629  0.0522
 2616TIP3    H229408   3.760   2.931   0.486  2.0096 -0.3660  0.1090
 2617TIP3   OH229409   1.735   2.100   6.048 -0.1754  0.1340 -0.2481
 2617TIP3    H129410   1.776   2.181   6.079 -0.1350  0.8527 -2.0205
 2617TIP3    H229411   1.808   2.040   6.034  0.0333  0.5194 -0.8875
 2618TIP3   OH229412   2.126   3.926   6.468  0.0824  0.4902  0.3584
 2618TIP3    H129413   2.128   3.953   6.376 -0.2295  0.2791  0.2908
 2618TIP3    H229414   2.112   3.831   6.466  0.9011  0.3572  0.6060
 2619TIP3   OH229415   4.519   4.353   6.811 -0.2219 -0.4495  0.4617
 2619TIP3    H129416   4.560   4.437   6.788 -1.9403  0.4188  0.4249
 2619TIP3    H229417   4.514   4.354   6.906  0.3756 -0.8321  0.5023
 2620TIP3   OH229418   5.255   3.719   5.715  0.4373  0.1373 -0.2333
 2620TIP3    H129419   5.344   3.688   5.701 -0.2203 -1.9394 -0.1259
 2620TIP3    H229420   5.230   3.683   5.800 -0.3977  0.9970 -0.0999
 2621TIP3   OH229421   1.379   4.151   1.751 -0.5087 -0.2298 -0.3456
 2621TIP3    H129422   1.411   4.064   1.726  0.4297 -0.1157  0.3946
 2621TIP3    H229423   1.422   4.211   1.690 -1.0228 -0.2722 -0.7478
 2622TIP3   OH229424   4.036   0.833   0.053 -0.5357 -0.6634 -0.8368
 2622TIP3    H129425   3.968   0.883   0.098  0.5329 -0.4196  0.5737
 2622TIP3    H229426   3.997   0.746   0.040 -1.1741 -0.4855 -0.2045
 2623TIP3   OH229427   6.961   2.334   1.900 -0.0397  0.2345  0.3588
 2623TIP3    H129428   6.931   2.418   1.934 -2.9544 -1.1718  1.6176
 2623TIP3    H229429   7.015   2.297   1.970  1.9416  1.2852 -0.5174
 2624TIP3   OH229430   3.371   4.730   7.974 -0.1854  0.0702  0.1760
 2624TIP3    H129431   3.312   4.708   8.046  0.9960  0.9112  1.4495
 2624TIP3    H229432   3.361   4.824   7.963  1.4655  0.3728  0.9599
 2625TIP3   OH229433   2.884   3.951   6.190  0.0671 -0.1076  0.3673
 2625TIP3    H129434   2.890   4.021   6.255  1.3699  0.5793 -0.4368
 2625TIP3    H229435   2.938   3.880   6.225 -0.2158 -0.2189  0.5845
 2626TIP3   OH229436   3.414   1.187   1.190  0.4616  0.1115 -0.2406
 2626TIP3    H129437   3.409   1.263   1.131  0.4303  0.4471  0.1857
 2626TIP3    H229438   3.331   1.141   1.177 -0.4306  1.2938  1.0036
 2627TIP3   OH229439   6.659   2.121   6.782 -0.4418 -0.1717  0.4942
 2627TIP3    H129440   6.627   2.074   6.705 -0.9591 -0.4928  0.9030
 2627TIP3    H229441   6.681   2.052   6.845  3.7615 -0.2134 -0.7192
 2628TIP3   OH229442   0.283   2.729   8.020 -0.0330 -0.0921 -0.1706
 2628TIP3    H129443   0.356   2.701   8.074 -0.0123 -0.8502 -0.5705
 2628TIP3    H229444   0.210   2.738   8.081  0.7875  2.4106  0.5278
 2629TIP3   OH229445   0.327   0.809   0.042 -0.0843 -0.0175 -0.3287
 2629TIP3    H129446   0.291   0.892   0.074  0.1368  0.4171 -1.1671
 2629TIP3    H229447   0.400   0.791   0.100  0.8575  1.2105 -1.0875
 2630TIP3   OH229448   5.296   5.820   6.396 -0.6237  0.7690 -0.1466
 2630TIP3    H129449   5.327   5.904   6.363 -0.9165  1.5986  1.5398
 2630TIP3    H229450   5.368   5.788   6.451  0.4739 -1.3026 -2.6013
 2631TIP3   OH229451   5.814   5.883   0.877 -0.1699 -0.2074  0.0334
 2631TIP3    H129452   5.753   5.823   0.919  0.1559 -0.7988 -0.3368
 2631TIP3    H229453   5.771   5.907   0.794 -0.8669  1.0494  0.7195
 2632TIP3   OH229454   4.896   4.327   1.232  0.5243  0.1920 -0.7799
 2632TIP3    H129455   4.947   4.259   1.277  1.0720  0.7574 -0.5468
 2632TIP3    H229456   4.860   4.380   1.302 -0.8713 -0.5244 -0.9107
 2633TIP3   OH229457   6.593   1.502   6.358  0.6662  0.1477 -0.0911
 2633TIP3    H129458   6.616   1.461   6.441  1.2056  0.2372 -0.1956
 2633TIP3    H229459   6.668   1.558   6.336 -0.1588  1.4141  0.1835
 2634TIP3   OH229460   5.400   5.235   7.101  0.2041  0.1528 -0.5209
 2634TIP3    H129461   5.474   5.186   7.064  2.0649  1.6555  0.9842
 2634TIP3    H229462   5.372   5.183   7.177  0.9211  0.4483 -0.0433
 2635TIP3   OH229463   0.510   4.140   6.550  0.1830  0.3113  0.3759
 2635TIP3    H129464   0.596   4.111   6.580  0.6614  2.5742  1.4511
 2635TIP3    H229465   0.529   4.219   6.499 -1.1657  0.0400 -0.5857
 2636TIP3   OH229466   3.776   3.415   0.736 -0.1246 -0.4537  0.0614
 2636TIP3    H129467   3.707   3.424   0.801 -1.2364 -0.6317 -1.0371
 2636TIP3    H229468   3.842   3.479   0.761 -1.3803  0.7889  0.3338
 2637TIP3   OH229469   0.622   5.884   7.298  0.2007  0.5132  0.1559
 2637TIP3    H129470   0.610   5.789   7.297 -2.8501  0.7923  0.4762
 2637TIP3    H229471   0.681   5.902   7.225  1.5443 -1.6429  0.6105
 2638TIP3   OH229472   5.649   6.292   0.451 -0.0637 -0.7805  0.2522
 2638TIP3    H129473   5.709   6.280   0.524  0.8742  0.5317 -0.2591
 2638TIP3    H229474   5.704   6.319   0.378 -1.3151  1.2198 -0.0346
 2639TIP3   OH229475   6.072   5.251   6.827 -0.5289  0.1096 -0.2414
 2639TIP3    H129476   6.048   5.179   6.768 -1.2943  0.2155 -0.0585
 2639TIP3    H229477   6.144   5.295   6.781 -2.0219  1.0658 -1.8005
 2640TIP3   OH229478   1.179   3.569   0.809  0.4848  0.2171  0.2553
 2640TIP3    H129479   1.192   3.584   0.903  0.5578  1.1845  0.1078
 2640TIP3    H229480   1.111   3.632   0.785 -2.4768 -2.6657  0.4071
 2641TIP3   OH229481   4.854   4.281   7.514  0.0987 -1.2184 -0.4190
 2641TIP3    H129482   4.942   4.248   7.498  1.4354  1.3370  0.9724
 2641TIP3    H229483   4.834   4.255   7.604  2.1637  3.1650  1.6351
 2642TIP3   OH229484   3.104   4.832   7.897  0.2786  0.3984  0.1710
 2642TIP3    H129485   3.098   4.859   7.988 -1.7212  2.7966 -0.5698
 2642TIP3    H229486   3.040   4.886   7.851  1.9999  0.1013 -2.8724
 2643TIP3   OH229487   0.160   5.970   7.973  0.0228 -0.5003 -0.0321
 2643TIP3    H129488   0.087   5.942   7.917  2.4226 -0.8587 -3.2555
 2643TIP3    H229489   0.182   6.058   7.940  0.7081 -0.1732  1.2599
 2644TIP3   OH229490   2.592   3.168   7.695 -0.6457  0.0188  0.0804
 2644TIP3    H129491   2.521   3.139   7.753 -0.0905 -1.0414  0.2575
 2644TIP3    H229492   2.672   3.155   7.747 -0.2962  0.9633 -0.2053
 2645TIP3   OH229493   6.482   3.822   7.117  0.8365 -0.7648  0.3065
 2645TIP3    H129494   6.572   3.853   7.127  0.2924  0.5023  1.6115
 2645TIP3    H229495   6.435   3.895   7.077 -0.0421 -0.6335  1.5246
 2646TIP3   OH229496   6.699   6.720   0.790  0.4996  0.0013 -0.0595
 2646TIP3    H129497   6.707   6.625   0.785 -0.6350 -0.0319 -2.9035
 2646TIP3    H229498   6.774   6.753   0.740  1.2179  0.6719  1.3984
 2647TIP3   OH229499   3.201   5.122   1.282 -0.0222 -0.3556  0.3132
 2647TIP3    H129500   3.170   5.046   1.232  0.2250  1.3184 -2.6225
 2647TIP3    H229501   3.296   5.121   1.270  0.0478  0.0241  0.8378
 2648TIP3   OH229502   2.844   0.174   1.311  0.0634  0.1619 -0.0303
 2648TIP3    H129503   2.749   0.183   1.302 -0.0992 -1.9903 -1.3320
 2648TIP3    H229504   2.874   0.259   1.343 -2.1565  1.2765 -0.7101
 2649TIP3   OH229505   1.046   6.377   7.112  0.2990  0.4466 -0.6207
 2649TIP3    H129506   0.991   6.357   7.188 -0.2028  3.2148 -0.1582
 2649TIP3    H229507   1.065   6.470   7.120  0.8216  0.6771 -3.5334
 2650TIP3   OH229508   4.665   6.345   6.084 -0.1413  0.6134  0.3390
 2650TIP3    H129509   4.638   6.292   6.158  0.1693  0.0396  0.0503
 2650TIP3    H229510   4.590   6.345   6.025 -0.3369  0.9519  0.5855
 2651TIP3   OH229511   6.477   3.559   1.110 -0.2382 -0.3378 -0.1715
 2651TIP3    H129512   6.482   3.470   1.077  0.9422  0.2152 -1.6001
 2651TIP3    H229513   6.516   3.555   1.197 -1.5474 -1.4519  0.4003
 2652TIP3   OH229514   0.704   4.304   0.862  0.0235  0.2025 -0.2422
 2652TIP3    H129515   0.735   4.229   0.913  2.6903  2.0516  1.0792
 2652TIP3    H229516   0.714   4.276   0.771  2.3064 -0.6100  0.1921
 2653TIP3   OH229517   3.832   4.083   6.663  0.2868 -0.0285  0.2121
 2653TIP3    H129518   3.810   4.161   6.713  0.1200 -0.7989  1.3873
 2653TIP3    H229519   3.910   4.048   6.705  1.0846  0.1414 -1.0553
 2654TIP3   OH229520   6.859   7.022   7.394 -0.0931 -0.0098  0.1090
 2654TIP3    H129521   6.924   6.957   7.368  0.3960  0.9598 -1.2299
 2654TIP3    H229522   6.775   6.982   7.372  0.2251 -0.0139 -1.1717
 2655TIP3   OH229523   4.080   1.279   0.669  0.1905 -0.4831 -0.3893
 2655TIP3    H129524   3.985   1.273   0.684  0.1091 -0.7864 -0.9677
 2655TIP3    H229525   4.117   1.204   0.715  0.1099 -0.5458 -0.4258
 2656TIP3   OH229526   6.377   0.350   6.837 -0.3578 -0.0252  0.1129
 2656TIP3    H129527   6.296   0.357   6.786 -1.6322 -3.1072  1.4766
 2656TIP3    H229528   6.362   0.404   6.914 -1.1117 -0.4836  0.3006
 2657TIP3   OH229529   5.359   3.521   6.814  0.5677 -0.4975  0.2078
 2657TIP3    H129530   5.298   3.464   6.768  1.5043 -0.6152 -0.9468
 2657TIP3    H229531   5.348   3.606   6.772 -1.9256  0.6975  2.9142
 2658TIP3   OH229532   1.604   0.242   6.459 -0.6573 -0.3754  0.1115
 2658TIP3    H129533   1.512   0.230   6.434 -0.7454  1.7441 -0.8429
 2658TIP3    H229534   1.629   0.324   6.416  1.9175 -1.2806 -0.2685
 2659TIP3   OH229535   6.487   2.622   7.264  0.1506  0.0326 -0.2953
 2659TIP3    H129536   6.486   2.717   7.274  0.3067 -0.0736  0.8828
 2659TIP3    H229537   6.525   2.590   7.346  1.4172 -0.9794 -1.2469
 2660TIP3   OH229538   1.281   0.366   6.036  0.6714  0.4176 -0.2568
 2660TIP3    H129539   1.312   0.381   5.946  0.8370 -0.4618 -0.3497
 2660TIP3    H229540   1.280   0.271   6.046  0.3021  0.4991  0.5571
 2661TIP3   OH229541   0.651   7.124   6.711  0.4577  0.0753  0.2780
 2661TIP3    H129542   0.609   7.182   6.774  0.3388 -0.4383  0.6762
 2661TIP3    H229543   0.692   7.056   6.764  1.8845  0.6169 -0.0950
 2662TIP3   OH229544   3.709   0.764   7.473  0.4429  1.0880 -0.4147
 2662TIP3    H129545   3.736   0.704   7.403 -1.8685 -0.5253 -0.0517
 2662TIP3    H229546   3.755   0.733   7.551 -0.8300 -0.3631 -0.2045
 2663TIP3   OH229547   5.534   3.153   6.620  0.0720 -0.2910  0.3095
 2663TIP3    H129548   5.580   3.224   6.576 -0.4928  0.1318  0.4036
 2663TIP3    H229549   5.478   3.116   6.552 -0.0192 -0.3181  0.4010
 2664TIP3   OH229550   3.063   5.989   1.624 -0.4236 -0.2381  0.4298
 2664TIP3    H129551   3.030   6.016   1.539 -0.2320 -0.2959  0.3358
 2664TIP3    H229552   3.048   6.064   1.681  0.0269  0.0358  0.1930
 2665TIP3   OH229553   3.987   6.136   7.024 -0.1685 -0.0671  0.7697
 2665TIP3    H129554   3.996   6.083   6.944  0.7090 -2.0352  2.1095
 2665TIP3    H229555   4.064   6.194   7.023  0.3974 -0.8092  0.6983
 2666TIP3   OH229556   4.715   2.369   2.047  0.0366  0.1363  0.2594
 2666TIP3    H129557   4.633   2.328   2.073  0.4600  0.1288  1.6816
 2666TIP3    H229558   4.690   2.433   1.980 -0.8503 -1.2280 -0.7614
 2667TIP3   OH229559   1.470   2.479   0.492  0.4324 -0.3066 -0.3437
 2667TIP3    H129560   1.486   2.459   0.584 -0.4602 -0.2256 -0.1545
 2667TIP3    H229561   1.514   2.563   0.477 -1.0712  0.7048  0.5752
 2668TIP3   OH229562   2.453   6.215   7.800  0.0107  0.5746 -0.0219
 2668TIP3    H129563   2.491   6.176   7.879  1.1511  0.3090 -0.6768
 2668TIP3    H229564   2.525   6.265   7.762 -0.0009 -0.6468 -1.7599
 2669TIP3   OH229565   3.945   5.309   1.703 -0.4386  0.1199 -0.0881
 2669TIP3    H129566   3.875   5.277   1.760 -0.7875  0.6092 -0.2343
 2669TIP3    H229567   4.008   5.349   1.763 -1.1139  1.2082 -0.0841
 2670TIP3   OH229568   4.762   5.415   0.311 -0.5487 -0.0688  0.1924
 2670TIP3    H129569   4.815   5.344   0.346  0.2969  0.3624 -0.1878
 2670TIP3    H229570   4.722   5.378   0.232 -1.9100 -0.8195  1.1957
 2671TIP3   OH229571   2.669   2.222   8.027 -0.4506 -0.4723 -0.0179
 2671TIP3    H129572   2.664   2.317   8.038 -0.1242 -0.1866 -2.0476
 2671TIP3    H229573   2.581   2.191   8.050 -0.2776  0.1547  1.6623
 2672TIP3   OH229574   5.132   2.103   1.488 -0.2757 -0.2007 -0.1565
 2672TIP3    H129575   5.107   2.028   1.434 -0.6059  0.8594 -1.5294
 2672TIP3    H229576   5.215   2.077   1.528  0.6463 -0.5494 -2.2022
 2673TIP3   OH229577   1.217   7.138   7.020  0.3979 -0.5684 -0.6876
 2673TIP3    H129578   1.128   7.118   7.049 -0.3812  2.6458 -0.5066
 2673TIP3    H229579   1.271   7.129   7.099 -0.1970 -0.2355 -0.2366
 2674TIP3   OH229580   1.434   3.518   7.638 -0.2951 -0.0738  0.7326
 2674TIP3    H129581   1.476   3.600   7.665  1.1978 -1.0997  1.6722
 2674TIP3    H229582   1.362   3.545   7.580  0.6187  1.8404  0.4391
 2675TIP3   OH229583   6.964   2.162   0.049  0.2295  0.1928 -0.0437
 2675TIP3    H129584   6.982   2.164   0.143 -0.6889 -0.3046  0.1507
 2675TIP3    H229585   6.873   2.192   0.041  0.1753 -0.1287 -0.7325
 2676TIP3   OH229586   0.873   3.510   6.953 -0.0590 -0.3410 -0.3384
 2676TIP3    H129587   0.795   3.523   6.898 -1.2539  0.2916  1.4069
 2676TIP3    H229588   0.855   3.429   7.001  1.3017 -1.2891 -1.3721
 2677TIP3   OH229589   1.513   2.059   5.868  0.0573 -0.0613 -1.1428
 2677TIP3    H129590   1.554   2.081   5.951 -1.6389 -0.0633 -0.2671
 2677TIP3    H229591   1.586   2.054   5.806  1.3695 -0.2075  0.3569
 2678TIP3   OH229592   0.312   5.659   1.031  0.8891  0.0879  0.0192
 2678TIP3    H129593   0.244   5.650   0.964  0.4528  0.6814  0.3693
 2678TIP3    H229594   0.380   5.711   0.990  0.6803  0.3376 -0.0158
 2679TIP3   OH229595   0.200   4.565   0.407  0.0297 -0.0304 -0.8914
 2679TIP3    H129596   0.191   4.470   0.400 -1.5131  0.2029 -2.5855
 2679TIP3    H229597   0.276   4.577   0.465 -1.4219 -2.2595  1.7034
 2680TIP3   OH229598   5.465   1.912   0.153 -0.0606  0.1259 -0.2095
 2680TIP3    H129599   5.501   1.993   0.118 -1.1869  0.6678 -0.1413
 2680TIP3    H229600   5.485   1.915   0.247 -1.7969  1.2925  0.1723
 2681TIP3   OH229601   4.437   1.351   1.491  0.5377 -0.4757  0.1669
 2681TIP3    H129602   4.360   1.390   1.533 -1.5001 -0.0042 -3.6325
 2681TIP3    H229603   4.510   1.407   1.518 -1.0200  1.1954  1.1008
 2682TIP3   OH229604   6.041   0.706   6.373  0.3862  0.1249 -0.4006
 2682TIP3    H129605   6.033   0.683   6.465  0.7489  0.4152 -0.2912
 2682TIP3    H229606   5.975   0.653   6.328 -0.4151  0.6435  0.1340
 2683TIP3   OH229607   6.616   0.633   1.414 -0.2310  0.9102  0.2372
 2683TIP3    H129608   6.636   0.605   1.504 -1.2873 -0.6421  0.0199
 2683TIP3    H229609   6.685   0.595   1.361 -1.0725 -0.4793  0.0824
 2684TIP3   OH229610   1.524   4.891   6.710 -0.3856 -0.4905  0.2633
 2684TIP3    H129611   1.576   4.814   6.688 -0.3964 -0.2138 -0.8201
 2684TIP3    H229612   1.486   4.872   6.795 -0.1893 -1.5753  0.1164
 2685TIP3   OH229613   2.839   5.900   0.103 -0.1374  0.4600  0.2279
 2685TIP3    H129614   2.862   5.849   0.024 -0.8681 -0.8326  0.8283
 2685TIP3    H229615   2.921   5.905   0.152  0.0286  0.1621 -0.0126
 2686TIP3   OH229616   2.389   6.131   2.001  0.3883 -0.5002  0.2483
 2686TIP3    H129617   2.400   6.209   1.947  0.3752  0.1222  1.1196
 2686TIP3    H229618   2.318   6.082   1.959  0.2904  0.0375 -0.2231
 2687TIP3   OH229619   6.960   2.617   0.344 -0.6400 -0.4967 -0.2769
 2687TIP3    H129620   6.898   2.610   0.417 -0.0107 -0.4223  0.2698
 2687TIP3    H229621   6.949   2.706   0.311 -1.0800 -0.6004 -0.4186
 2688TIP3   OH229622   6.810   2.890   7.554  0.5869  0.1491 -0.1526
 2688TIP3    H129623   6.766   2.916   7.635  0.8230 -0.7208  0.2649
 2688TIP3    H229624   6.893   2.852   7.583  0.2001 -1.1739 -0.7132
 2689TIP3   OH229625   3.360   5.533   7.386 -0.2256 -0.3411 -0.0446
 2689TIP3    H129626   3.395   5.462   7.332 -2.2605 -0.1558 -1.6963
 2689TIP3    H229627   3.325   5.596   7.324  2.3149  2.6833  1.3313
 2690TIP3   OH229628   1.621   6.577   0.405  0.3324 -0.9566  0.0485
 2690TIP3    H129629   1.636   6.489   0.440  0.8186 -1.6248 -1.7407
 2690TIP3    H229630   1.701   6.598   0.357  1.0428  1.3319  2.0375
 2691TIP3   OH229631   6.477   4.357   7.129  0.4650 -0.2511 -0.0006
 2691TIP3    H129632   6.472   4.334   7.036  0.0301 -1.2301  0.2470
 2691TIP3    H229633   6.419   4.433   7.139  2.8154  1.8218 -1.0641
 2692TIP3   OH229634   6.519   6.228   0.186  0.2229  0.8325 -0.2847
 2692TIP3    H129635   6.561   6.145   0.208 -1.4596  0.4060  1.7233
 2692TIP3    H229636   6.591   6.288   0.169  1.4916 -1.0266 -1.9176
 2693TIP3   OH229637   5.077   2.388   7.602 -0.3031 -0.3982  0.3652
 2693TIP3    H129638   5.071   2.482   7.585 -0.5021 -0.3710  0.5766
 2693TIP3    H229639   5.149   2.359   7.548 -1.0723 -0.3618 -0.7112
 2694TIP3   OH229640   1.687   3.468   7.994  0.1568  0.3934  0.3493
 2694TIP3    H129641   1.600   3.431   8.007  0.0335  0.1576 -0.9246
 2694TIP3    H229642   1.679   3.560   8.019 -0.9328  0.7891 -1.2583
 2695TIP3   OH229643   5.702   3.365   1.809 -0.4299 -0.3893 -0.4713
 2695TIP3    H129644   5.709   3.423   1.885  0.8163 -0.1074 -0.7748
 2695TIP3    H229645   5.622   3.314   1.825 -1.0951  0.8098  0.2149
 2696TIP3   OH229646   4.314   1.727   7.365 -0.0947  0.1053 -0.6433
 2696TIP3    H129647   4.362   1.808   7.344  0.8601 -0.0121  0.9616
 2696TIP3    H229648   4.239   1.757   7.415  0.0738  0.0282 -0.3441
 2697TIP3   OH229649   2.087   0.060   6.778 -0.2262 -0.1151 -0.5647
 2697TIP3    H129650   2.058   0.073   6.688 -2.1285 -1.0506 -0.1635
 2697TIP3    H229651   2.101   0.148   6.812 -1.5909  0.3791 -1.1812
 2698TIP3   OH229652   5.723   4.608   0.813 -0.1174  0.1676  0.1916
 2698TIP3    H129653   5.663   4.676   0.845 -0.0590  0.2833  0.0542
 2698TIP3    H229654   5.728   4.623   0.719  1.0148  0.8766  0.3453
 2699TIP3   OH229655   1.552   6.459   0.112  0.6413 -0.4092 -0.3762
 2699TIP3    H129656   1.598   6.480   0.193  0.3115  0.3016 -0.3734
 2699TIP3    H229657   1.498   6.383   0.134  0.7151 -0.3489  0.0080
 2700TIP3   OH229658   4.977   4.037   5.419  0.9996 -0.0621  0.1238
 2700TIP3    H129659   5.011   3.948   5.430  1.4282  0.0713 -0.0907
 2700TIP3    H229660   5.046   4.094   5.451  0.7836  0.2000  0.1302
 2701TIP3   OH229661   0.505   4.494   1.446  0.8810  0.1034 -0.2497
 2701TIP3    H129662   0.420   4.536   1.432  0.3261 -1.0593 -0.5481
 2701TIP3    H229663   0.558   4.560   1.489 -0.4219  0.6130  0.6490
 2702TIP3   OH229664   3.041   6.115   7.985  0.0015 -0.1146 -0.0215
 2702TIP3    H129665   2.963   6.152   7.944  0.7840  0.8890 -0.6490
 2702TIP3    H229666   3.103   6.102   7.913  0.2009 -1.4984  0.3738
 2703TIP3   OH229667   5.088   4.107   6.435  0.2093 -0.4722  0.0271
 2703TIP3    H129668   5.112   4.028   6.485 -2.1339 -1.3861 -0.1766
 2703TIP3    H229669   5.039   4.161   6.497 -0.2072 -0.2622 -0.4765
 2704TIP3   OH229670   3.649   6.471   0.930 -0.4299 -0.4524 -0.0585
 2704TIP3    H129671   3.684   6.470   1.019  2.1212  1.3647 -0.9179
 2704TIP3    H229672   3.694   6.400   0.886 -0.0234  0.0396 -0.4431
 2705TIP3   OH229673   1.963   4.777   7.278 -0.4533  0.1167 -0.5077
 2705TIP3    H129674   1.924   4.775   7.191 -0.8863  1.2288 -0.3546
 2705TIP3    H229675   2.057   4.782   7.263 -0.4391 -1.0268 -0.8916
 2706TIP3   OH229676   2.801   0.374   0.392  0.3086 -1.1315  0.0143
 2706TIP3    H129677   2.774   0.377   0.300 -0.9175  1.1307  0.3727
 2706TIP3    H229678   2.890   0.407   0.392 -0.8176  2.2681 -0.1141
 2707TIP3   OH229679   5.096   4.468   7.752  0.0176 -0.5721 -0.2528
 2707TIP3    H129680   5.065   4.514   7.674 -1.1472 -0.1810  0.4127
 2707TIP3    H229681   5.139   4.535   7.804 -1.8256 -0.1349  0.7959
 2708TIP3   OH229682   6.115   0.344   6.740  0.0984 -0.6712  0.2727
 2708TIP3    H129683   6.042   0.304   6.693 -0.2307  1.1478 -0.8763
 2708TIP3    H229684   6.075   0.389   6.814 -0.0277  0.6770 -0.5935
 2709TIP3   OH229685   4.938   5.767   1.150 -0.0109 -0.5799 -0.2270
 2709TIP3    H129686   4.992   5.842   1.175  0.2156 -1.2519  1.3689
 2709TIP3    H229687   4.948   5.705   1.222 -2.1302 -1.1312 -0.3618
 2710TIP3   OH229688   1.110   0.561   6.941 -0.1618  0.4206  0.0346
 2710TIP3    H129689   1.113   0.622   7.014  1.2463 -1.4623  1.6697
 2710TIP3    H229690   1.202   0.546   6.918 -0.5423  0.1627 -1.4605
 2711TIP3   OH229691   5.065   3.410   0.313 -0.4806 -0.4823  0.1914
 2711TIP3    H129692   4.972   3.399   0.337 -0.1805 -0.8055  1.2594
 2711TIP3    H229693   5.100   3.468   0.380 -0.4598  1.7118 -1.5978
 2712TIP3   OH229694   2.491   6.595   0.376 -0.0116  0.0081 -0.0866
 2712TIP3    H129695   2.573   6.637   0.350 -1.0145  1.5858 -0.8715
 2712TIP3    H229696   2.472   6.633   0.463  0.3307 -0.7329  0.3168
 2713TIP3   OH229697   3.016   5.521   5.932  0.3689 -0.4334  1.1328
 2713TIP3    H129698   2.930   5.493   5.963 -0.0077  0.1025  0.5997
 2713TIP3    H229699   3.018   5.616   5.946  0.8270 -0.4242  1.0360
 2714TIP3   OH229700   6.491   1.191   6.874  0.0935 -0.2086  0.0144
 2714TIP3    H129701   6.431   1.158   6.807 -1.1090  0.9063  0.4953
 2714TIP3    H229702   6.575   1.200   6.829  0.0416 -2.1781 -0.5673
 2715TIP3   OH229703   2.935   0.547   7.445 -0.0091 -0.1593 -0.8602
 2715TIP3    H129704   2.993   0.499   7.504 -0.0912  0.8721  0.0996
 2715TIP3    H229705   2.993   0.612   7.404 -0.4731  1.0282  0.2753
 2716TIP3   OH229706   5.610   3.173   5.623  0.0634 -0.0993 -0.0175
 2716TIP3    H129707   5.521   3.175   5.587 -0.2292  0.2624  0.7003
 2716TIP3    H229708   5.597   3.185   5.717  0.6260 -3.2668  0.5771
 2717TIP3   OH229709   2.714   5.448   6.642 -0.2761  0.3359  0.4370
 2717TIP3    H129710   2.639   5.408   6.686 -0.2929  1.0465  1.0838
 2717TIP3    H229711   2.719   5.536   6.679 -0.4339  1.0593 -1.1641
 2718TIP3   OH229712   1.972   7.007   6.099  0.2767  0.3161  0.1160
 2718TIP3    H129713   1.971   7.101   6.120 -0.1239  0.3247  0.0670
 2718TIP3    H229714   1.896   6.994   6.042 -0.8183 -0.3942  1.6739
 2719TIP3   OH229715   3.226   6.407   0.025 -0.2377  0.0842 -0.2699
 2719TIP3    H129716   3.142   6.380   0.062  0.2473 -0.1480  0.6907
 2719TIP3    H229717   3.291   6.381   0.090  0.4273  1.9322 -0.1254
 2720TIP3   OH229718   5.943   5.235   1.862  0.8935 -0.4372 -0.2262
 2720TIP3    H129719   6.006   5.268   1.798  3.7170 -1.2522  1.9579
 2720TIP3    H229720   5.865   5.289   1.848  3.1012  2.8965 -0.9735
 2721TIP3   OH229721   3.839   4.978   6.894 -0.2461  0.0380  0.0459
 2721TIP3    H129722   3.792   4.899   6.920  0.0842  0.1992  1.2057
 2721TIP3    H229723   3.825   5.039   6.967  2.5590 -0.2465  0.9455
 2722TIP3   OH229724   1.943   2.338   7.228  0.0452  0.0271  0.1137
 2722TIP3    H129725   2.022   2.285   7.241 -0.2749 -0.6731 -0.7476
 2722TIP3    H229726   1.967   2.400   7.158 -0.0640  0.0402  0.0888
 2723TIP3   OH229727   4.483   6.492   1.349  0.6799  0.5112 -0.0967
 2723TIP3    H129728   4.574   6.471   1.329  0.3581  0.1789 -1.2926
 2723TIP3    H229729   4.486   6.532   1.436  1.9766  0.6514 -0.1882
 2724TIP3   OH229730   6.052   3.498   0.569  0.2095 -0.1772  0.2648
 2724TIP3    H129731   6.094   3.419   0.603  3.5675  2.3822  2.6188
 2724TIP3    H229732   6.035   3.552   0.645 -1.7357  1.5706 -1.2821
 2725TIP3   OH229733   0.022   1.203   0.283  0.0547 -0.1403  0.2797
 2725TIP3    H129734  -0.070   1.190   0.262  0.3606 -1.1282 -0.5387
 2725TIP3    H229735   0.032   1.298   0.288 -1.1553 -0.0300  1.1558
 2726TIP3   OH229736   0.312   1.575   0.910 -0.6698  0.2005 -0.0486
 2726TIP3    H129737   0.376   1.595   0.978  1.3143  1.1062 -2.0426
 2726TIP3    H229738   0.276   1.490   0.935 -0.6241  0.8416  2.4912
 2727TIP3   OH229739   0.174   1.338   6.868  0.2603 -0.4577  0.0850
 2727TIP3    H129740   0.081   1.349   6.852  0.3607  0.3961  0.0326
 2727TIP3    H229741   0.213   1.421   6.840  1.0335 -0.8083  0.1004
 2728TIP3   OH229742   2.070   4.904   6.493 -0.5082 -0.4927 -0.0996
 2728TIP3    H129743   2.147   4.849   6.504 -0.0112  0.2009 -0.0368
 2728TIP3    H229744   1.997   4.842   6.486 -0.2427 -1.1355  2.0739
 2729TIP3   OH229745   1.744   3.745   1.707 -0.1204  0.1711  0.0437
 2729TIP3    H129746   1.783   3.811   1.764  0.6505  0.1743 -0.4714
 2729TIP3    H229747   1.818   3.701   1.666 -0.6329 -0.6370 -0.0602
 2730TIP3   OH229748   2.527   1.791   6.375 -0.1209  0.2808 -0.7604
 2730TIP3    H129749   2.455   1.854   6.377 -2.0224 -1.7567  0.8041
 2730TIP3    H229750   2.550   1.778   6.466  0.2293 -1.2166 -1.0303
 2731TIP3   OH229751   2.701   4.200   6.160  0.0744 -0.1438  0.6243
 2731TIP3    H129752   2.717   4.277   6.104 -0.2507 -0.1313  0.5497
 2731TIP3    H229753   2.757   4.214   6.236  1.6101 -0.8353 -0.3189
 2732TIP3   OH229754   6.251   4.502   7.094  0.4732  0.1968 -0.1583
 2732TIP3    H129755   6.296   4.572   7.047  0.9613 -0.3779 -0.5498
 2732TIP3    H229756   6.202   4.455   7.027  0.3916 -0.0290  0.0592
 2733TIP3   OH229757   4.967   5.439   6.488 -0.0619 -0.2633  0.1369
 2733TIP3    H129758   5.047   5.468   6.444 -0.0931 -0.5803 -0.1353
 2733TIP3    H229759   4.970   5.343   6.483  0.6175 -0.3978  2.0329
 2734TIP3   OH229760   2.430   6.177   7.414 -0.2940  0.6595 -0.3083
 2734TIP3    H129761   2.361   6.222   7.365 -1.3031 -0.5154 -0.0206
 2734TIP3    H229762   2.388   6.152   7.497  1.0423  1.5836  0.6808
 2735TIP3   OH229763   6.454   4.942   7.217 -0.0765  0.5941 -0.4037
 2735TIP3    H129764   6.519   4.937   7.287 -0.0095 -0.0894 -0.5060
 2735TIP3    H229765   6.389   5.004   7.249  1.0783  2.0102 -0.6837
 2736TIP3   OH229766   2.448   6.914   0.684  0.3188  0.2641  0.2130
 2736TIP3    H129767   2.453   6.846   0.751  0.9729 -1.8010 -1.8055
 2736TIP3    H229768   2.535   6.955   0.685  0.6119 -0.3391  0.0795
 2737TIP3   OH229769   4.311   0.130   0.310  0.0748 -0.6608  0.4160
 2737TIP3    H129770   4.241   0.065   0.306 -0.8600  0.3194  0.4368
 2737TIP3    H229771   4.337   0.133   0.403  0.8957 -1.7772  0.2408
 2738TIP3   OH229772   1.884   5.802   0.983 -0.2295 -0.1368 -0.2911
 2738TIP3    H129773   1.957   5.861   0.965 -0.7930  0.0885 -2.0341
 2738TIP3    H229774   1.807   5.847   0.948 -0.9308 -1.1402 -0.1015
 2739TIP3   OH229775   2.802   4.321   1.314  0.3030 -0.2077  0.2906
 2739TIP3    H129776   2.733   4.379   1.284 -0.1339 -0.9228 -0.1148
 2739TIP3    H229777   2.770   4.233   1.295  0.4760 -0.6523  1.9028
 2740TIP3   OH229778   5.094   4.857   1.123 -0.4321 -0.4541  0.1893
 2740TIP3    H129779   5.005   4.874   1.153 -0.3463 -0.3126  0.3667
 2740TIP3    H229780   5.146   4.928   1.161 -0.0752 -1.0564  0.8617
 2741TIP3   OH229781   4.457   6.155   1.503  0.1408 -0.1011  0.3864
 2741TIP3    H129782   4.520   6.091   1.470  0.8641  0.3307  0.9098
 2741TIP3    H229783   4.502   6.199   1.576 -0.9789 -0.1915  1.1576
 2742TIP3   OH229784   2.503   4.531   6.180 -0.2462  0.0832 -0.0208
 2742TIP3    H129785   2.509   4.490   6.267  2.2903  0.1193 -0.0947
 2742TIP3    H229786   2.433   4.595   6.188 -0.4374 -0.3095  1.8474
 2743TIP3   OH229787   4.758   4.091   7.298 -0.7870  0.1623  0.3483
 2743TIP3    H129788   4.819   4.156   7.334 -0.9562  1.9582 -2.3047
 2743TIP3    H229789   4.674   4.112   7.338 -0.5773  0.8068  0.4628
 2744TIP3   OH229790   6.861   6.475   0.745 -0.1914  0.5086 -0.5014
 2744TIP3    H129791   6.794   6.415   0.712  0.0483  0.3592 -0.7178
 2744TIP3    H229792   6.897   6.431   0.822  1.1839 -0.4387 -1.6432
 2745TIP3   OH229793   2.100   6.988   7.088 -0.5465 -0.1380 -0.0403
 2745TIP3    H129794   2.126   7.071   7.129  1.2428 -0.3042 -0.7383
 2745TIP3    H229795   2.018   6.964   7.132 -2.2955  3.0036 -1.2037
 2746TIP3   OH229796   6.669   1.096   7.774 -0.0396 -0.1995  0.0886
 2746TIP3    H129797   6.600   1.033   7.794 -0.7762  0.0778 -1.4622
 2746TIP3    H229798   6.669   1.156   7.848 -2.5596  0.7200 -0.5462
 2747TIP3   OH229799   4.329   1.686   1.660 -0.1065 -0.1116  0.0458
 2747TIP3    H129800   4.406   1.656   1.708 -0.8812 -0.2750  1.2410
 2747TIP3    H229801   4.284   1.605   1.634  0.1572 -0.0188 -0.7339
 2748TIP3   OH229802   2.083   2.859   1.774  0.6236 -0.0143 -0.0126
 2748TIP3    H129803   2.140   2.832   1.846  1.6150 -0.1426 -0.8222
 2748TIP3    H229804   2.015   2.792   1.771  1.7140 -1.1563 -0.4674
 2749TIP3   OH229805   4.544   3.829   1.577  0.3440 -0.6996 -0.1692
 2749TIP3    H129806   4.504   3.910   1.548  1.5067 -0.4134 -1.0786
 2749TIP3    H229807   4.513   3.817   1.667 -0.7126  0.1549 -0.3968
 2750TIP3   OH229808   3.276   7.017   1.006 -0.2419 -0.1625  0.5395
 2750TIP3    H129809   3.192   6.982   0.975 -0.7076  1.9329 -0.7541
 2750TIP3    H229810   3.338   6.945   0.994 -1.1350 -0.6104 -1.9931
 2751TIP3   OH229811   5.734   1.800   0.673 -0.1403  0.0323  0.1555
 2751TIP3    H129812   5.777   1.722   0.708  1.1222  0.5772 -0.1434
 2751TIP3    H229813   5.749   1.868   0.738 -1.6367 -0.0633  0.6350
 2752TIP3   OH229814   3.969   5.623   1.985 -0.4365 -0.5255  0.0601
 2752TIP3    H129815   4.042   5.569   1.954 -0.2706 -0.3386  0.1254
 2752TIP3    H229816   4.003   5.667   2.063 -1.3570 -2.2595  1.5239
 2753TIP3   OH229817   5.183   1.292   0.844  0.2623 -0.2725  0.2416
 2753TIP3    H129818   5.224   1.324   0.764  1.4588  0.4490  1.1011
 2753TIP3    H229819   5.096   1.333   0.845  0.4537  0.1691 -0.4071
 2754TIP3   OH229820   6.163   5.629   7.062  0.1179 -0.6254  0.3549
 2754TIP3    H129821   6.192   5.696   7.124 -0.8234 -3.2077  3.8988
 2754TIP3    H229822   6.243   5.582   7.038  0.8308  1.6830 -2.3796
 2755TIP3   OH229823   2.610   1.874   2.583  0.0302 -0.3375 -0.0655
 2755TIP3    H129824   2.645   1.861   2.495  0.3763  0.6315 -0.0897
 2755TIP3    H229825   2.671   1.936   2.624  0.5007 -1.6357  1.2570
 2756TIP3   OH229826   2.390   7.137   0.323  0.2631  0.4601  0.1806
 2756TIP3    H129827   2.378   7.115   0.230  3.7526 -2.1275  0.1667
 2756TIP3    H229828   2.472   7.186   0.326  0.5921 -0.1297  1.9646
 2757TIP3   OH229829   0.104   2.262   5.807  0.4749  0.5905 -0.4789
 2757TIP3    H129830   0.035   2.266   5.873  0.0840  0.6106 -0.8822
 2757TIP3    H229831   0.179   2.222   5.852 -0.0745 -0.2185 -0.2649
 2758TIP3   OH229832   6.383   2.368   0.261 -0.3615 -0.2193  0.4926
 2758TIP3    H129833   6.415   2.376   0.350 -0.0493 -0.4959  0.4046
 2758TIP3    H229834   6.288   2.354   0.270 -0.3043 -0.4118  0.7849
 2759TIP3   OH229835   2.594   4.915   6.428 -0.2732  0.6376  0.0063
 2759TIP3    H129836   2.687   4.899   6.442 -0.1648  0.1986 -1.1117
 2759TIP3    H229837   2.580   4.896   6.335 -1.5810  0.2057  0.2688
 2760TIP3   OH229838   4.092   6.170   0.568 -0.3831 -0.2378  0.1870
 2760TIP3    H129839   4.131   6.110   0.504  0.8024  0.1423  0.5189
 2760TIP3    H229840   4.138   6.253   0.553  1.3023 -0.5978  2.7343
 2761TIP3   OH229841   4.606   3.085   0.377  0.0238 -0.3034 -0.8059
 2761TIP3    H129842   4.541   3.081   0.307  0.5847 -0.4300 -1.3245
 2761TIP3    H229843   4.598   3.001   0.422 -2.3738  0.8457  1.1645
 2762TIP3   OH229844   4.365   6.381   0.660  0.2974  0.1153 -0.0343
 2762TIP3    H129845   4.281   6.414   0.630 -0.5730 -0.6088  1.4998
 2762TIP3    H229846   4.381   6.304   0.605  0.0743  0.3791 -0.4751
 2763TIP3   OH229847   2.351   0.326   6.244 -0.5300 -0.4792  0.9184
 2763TIP3    H129848   2.385   0.252   6.193 -0.0217 -0.4249  1.1690
 2763TIP3    H229849   2.329   0.288   6.329  0.0938 -0.2770  1.1783
 2764TIP3   OH229850   7.043   5.267   6.695 -0.2344  0.4907 -0.8584
 2764TIP3    H129851   7.080   5.314   6.770  0.3529 -0.8649 -0.2661
 2764TIP3    H229852   6.959   5.311   6.678 -0.1272  1.1554  0.2551
 2765TIP3   OH229853   0.049   5.862   5.905  0.4774 -0.3265 -0.1439
 2765TIP3    H129854   0.141   5.881   5.888  0.5553 -0.2736  0.3146
 2765TIP3    H229855   0.033   5.899   5.992 -0.5496  1.6243 -1.0956
 2766TIP3   OH229856   0.901   0.123   0.904 -0.0255  0.2510  0.1880
 2766TIP3    H129857   0.921   0.169   0.986  1.2103  0.0060  0.0440
 2766TIP3    H229858   0.821   0.165   0.872  0.4498  1.5427  0.6196
 2767TIP3   OH229859   5.836   1.747   7.475 -0.3520  0.2668  0.3561
 2767TIP3    H129860   5.787   1.818   7.516  2.5205  1.1877  2.5452
 2767TIP3    H229861   5.915   1.739   7.528  0.6119 -2.9308 -1.3236
 2768TIP3   OH229862   6.360   0.092   7.044 -0.2386  0.2821  1.0286
 2768TIP3    H129863   6.378   0.067   7.135  0.7054  1.6213  1.2426
 2768TIP3    H229864   6.315   0.176   7.051 -2.1086 -0.5951  0.2914
 2769TIP3   OH229865   2.400   3.617   6.792 -0.3295 -0.1680 -0.1490
 2769TIP3    H129866   2.389   3.522   6.803  1.4246 -0.1872  2.2910
 2769TIP3    H229867   2.349   3.655   6.864 -0.0570  0.6824 -0.4026
 2770TIP3   OH229868   3.424   1.692   1.622  0.0155 -0.7221  0.0934
 2770TIP3    H129869   3.371   1.655   1.693 -0.2346  2.1643  1.5623
 2770TIP3    H229870   3.488   1.748   1.667  1.1745 -0.3727 -1.8872
 2771TIP3   OH229871   6.069   3.716   7.793 -0.1574  0.6424 -0.0053
 2771TIP3    H129872   6.113   3.653   7.736  0.9057 -0.2922  1.7695
 2771TIP3    H229873   6.041   3.786   7.734  2.1728  0.4310 -1.4695
 2772TIP3   OH229874   0.625   5.330   7.022  0.1384  0.7690 -0.1180
 2772TIP3    H129875   0.541   5.312   7.064  0.4426  2.4238  1.2971
 2772TIP3    H229876   0.690   5.309   7.089  0.8140  0.6771 -0.7889
 2773TIP3   OH229877   2.892   3.933   0.753  0.1786 -0.1468  0.1791
 2773TIP3    H129878   2.828   3.889   0.697  0.4649 -0.3592  0.0193
 2773TIP3    H229879   2.975   3.891   0.733  0.0591 -1.3173  1.8755
 2774TIP3   OH229880   5.689   0.630   5.747  0.4013 -0.3972  0.6031
 2774TIP3    H129881   5.758   0.582   5.701  0.3812  0.6577 -0.5813
 2774TIP3    H229882   5.733   0.705   5.786 -0.4349  2.3922 -3.2063
 2775TIP3   OH229883   4.066   4.874   1.798  0.0795 -0.2242  0.4665
 2775TIP3    H129884   4.064   4.784   1.832  0.2630  0.1808  1.6102
 2775TIP3    H229885   3.975   4.893   1.776  0.2079 -1.0749 -0.8742
 2776TIP3   OH229886   1.998   2.944   7.533  0.3392  0.3484 -0.4526
 2776TIP3    H129887   1.961   2.876   7.590  1.3337 -0.0715 -0.2950
 2776TIP3    H229888   1.964   3.026   7.569 -0.2427 -0.0061 -0.1713
 2777TIP3   OH229889   2.278   2.814   6.484 -0.2552  0.2234 -0.4254
 2777TIP3    H129890   2.295   2.833   6.392  0.1252 -0.9840 -0.6318
 2777TIP3    H229891   2.249   2.722   6.484  1.8200 -0.5055  0.8417
 2778TIP3   OH229892   6.713   3.766   1.651  0.0177 -0.5662 -0.1546
 2778TIP3    H129893   6.709   3.845   1.705 -3.7969  0.2463 -1.2967
 2778TIP3    H229894   6.754   3.700   1.708  1.3591  1.6213  1.5907
 2779TIP3   OH229895   3.280   5.568   1.055  0.3881  0.3012  0.1981
 2779TIP3    H129896   3.219   5.504   1.092  0.1609  0.8867  0.8378
 2779TIP3    H229897   3.337   5.515   0.998  0.1032 -0.4476  0.5911
 2780TIP3   OH229898   4.304   7.042   7.147  0.4095  0.0628  0.0736
 2780TIP3    H129899   4.351   7.124   7.159 -0.4967  0.7649 -0.9413
 2780TIP3    H229900   4.325   7.015   7.058 -0.1756 -0.2178  0.0175
 2781TIP3   OH229901   0.079   1.566   0.705  0.2044  0.1223 -0.2845
 2781TIP3    H129902   0.058   1.649   0.747 -0.6608 -0.7367  1.0523
 2781TIP3    H229903   0.074   1.501   0.776 -0.3639 -1.2362 -1.5105
 2782TIP3   OH229904   6.172   1.748   1.290  0.0418 -0.3184  0.1334
 2782TIP3    H129905   6.230   1.824   1.293 -2.0935  1.4658 -1.0529
 2782TIP3    H229906   6.172   1.714   1.379  4.5204 -1.8298 -0.1842
 2783TIP3   OH229907   1.150   5.742   0.224  0.1855  0.0808 -0.0638
 2783TIP3    H129908   1.150   5.672   0.160 -0.0274  0.5207 -0.5532
 2783TIP3    H229909   1.079   5.800   0.196 -0.0578  0.1584  0.6969
 2784TIP3   OH229910   4.793   5.134   0.116 -0.2073 -0.1008  0.1462
 2784TIP3    H129911   4.744   5.052   0.107  0.7984 -0.8174  0.9622
 2784TIP3    H229912   4.813   5.140   0.209  2.2528 -0.4339 -0.3091
 2785TIP3   OH229913   0.394   0.341   6.610  0.0043 -0.5221  0.4099
 2785TIP3    H129914   0.420   0.390   6.688 -0.8265  0.3592  0.1434
 2785TIP3    H229915   0.477   0.304   6.577  0.4543 -0.3695  1.3278
 2786TIP3   OH229916   2.753   0.875   0.805 -0.1950 -0.1946 -0.5746
 2786TIP3    H129917   2.792   0.813   0.744  0.4153 -1.1959  0.8043
 2786TIP3    H229918   2.697   0.822   0.861  2.0043  0.0361  2.0496
 2787TIP3   OH229919   7.008   0.638   7.073  0.1273  0.5048 -1.0662
 2787TIP3    H129920   7.028   0.551   7.037  2.0460 -0.1962  1.3885
 2787TIP3    H229921   6.941   0.621   7.139  1.1359  0.7104  0.0349
 2788TIP3   OH229922   2.381   5.877   6.207  0.2286  0.1775 -0.1037
 2788TIP3    H129923   2.291   5.845   6.214  0.1750  0.4443  0.4722
 2788TIP3    H229924   2.379   5.940   6.135  0.2380 -0.7656 -0.9446
 2789TIP3   OH229925   6.532   4.539   1.001  0.6271 -0.2601  0.1351
 2789TIP3    H129926   6.506   4.448   0.992 -1.3127  0.2715 -0.0880
 2789TIP3    H229927   6.600   4.552   0.936 -0.9433 -0.9136 -1.7207
 2790TIP3   OH229928   5.608   2.768   7.062 -0.1501  0.0718 -0.6028
 2790TIP3    H129929   5.576   2.731   6.979  0.6876 -2.7229  0.2028
 2790TIP3    H229930   5.564   2.716   7.129 -0.3660  1.8974  0.7413
 2791TIP3   OH229931   4.401   2.729   1.417 -0.6336  0.2130  0.9560
 2791TIP3    H129932   4.343   2.670   1.467 -0.9219  0.8192  1.3480
 2791TIP3    H229933   4.356   2.743   1.334 -0.6509  0.0247  0.9330
 2792TIP3   OH229934   5.955   5.221   7.496 -0.1255  0.2055 -0.0145
 2792TIP3    H129935   5.997   5.290   7.443  0.3808 -0.1442 -0.0712
 2792TIP3    H229936   5.991   5.233   7.584  2.1430 -1.7159 -0.5895
 2793TIP3   OH229937   5.837   3.309   0.150  0.2008  0.3352  0.0220
 2793TIP3    H129938   5.751   3.279   0.123 -0.4085  1.5545  0.5355
 2793TIP3    H229939   5.859   3.253   0.225 -0.2068  0.1220 -0.0140
 2794TIP3   OH229940   0.135   4.621   6.138  0.5452 -0.7940  0.3601
 2794TIP3    H129941   0.073   4.548   6.133 -0.1328 -0.1508 -3.6695
 2794TIP3    H229942   0.194   4.609   6.064  1.0314  2.1843  0.1126
 2795TIP3   OH229943   3.476   1.435   1.102 -0.1775 -0.5849  0.5347
 2795TIP3    H129944   3.524   1.513   1.077 -0.8790 -0.0386  0.8453
 2795TIP3    H229945   3.457   1.447   1.195  1.0154 -1.8372  0.9666
 2796TIP3   OH229946   5.547   1.144   6.576 -0.0073  0.5853 -0.0945
 2796TIP3    H129947   5.632   1.156   6.535  0.0169  1.3587  0.1624
 2796TIP3    H229948   5.563   1.082   6.648 -0.2068 -1.4098 -1.6840
 2797TIP3   OH229949   1.680   3.163   6.296 -0.0780  0.0815  0.3133
 2797TIP3    H129950   1.616   3.101   6.261  0.9163 -1.7290  1.4957
 2797TIP3    H229951   1.739   3.180   6.223 -0.7078  0.1060 -0.1984
 2798TIP3   OH229952   5.548   4.480   1.264  0.0781  0.8038  0.6555
 2798TIP3    H129953   5.540   4.502   1.357  1.6623  0.3582  0.9142
 2798TIP3    H229954   5.530   4.563   1.218 -1.2073  0.9124  1.3049
 2799TIP3   OH229955   4.950   2.487   1.762  0.5644  0.2986 -0.4189
 2799TIP3    H129956   5.027   2.431   1.767 -0.4184 -1.0917 -0.1484
 2799TIP3    H229957   4.893   2.443   1.698 -0.7383  0.3177  0.6898
 2800TIP3   OH229958   6.114   3.242   7.233 -0.2662  0.2516  0.2181
 2800TIP3    H129959   6.083   3.152   7.217  1.1211 -0.4888  1.4285
 2800TIP3    H229960   6.209   3.233   7.240 -0.1916  1.6600  1.3561
 2801TIP3   OH229961   2.962   2.679   2.090  0.1055  0.1796 -0.0330
 2801TIP3    H129962   3.040   2.657   2.039 -0.5407  0.0880 -1.0174
 2801TIP3    H229963   2.962   2.775   2.093  0.3352  0.1761  0.1025
 2802TIP3   OH229964   6.935   0.619   1.391 -0.1873  0.4842 -0.3564
 2802TIP3    H129965   7.030   0.609   1.385 -0.0996  1.7747 -1.5215
 2802TIP3    H229966   6.921   0.679   1.465 -0.2234 -1.0086  0.8967
 2803TIP3   OH229967   6.534   2.411   7.830 -0.4257  0.7140 -0.2360
 2803TIP3    H129968   6.600   2.365   7.778 -1.8273 -0.2594 -1.2118
 2803TIP3    H229969   6.485   2.341   7.873 -2.3558  1.2522 -1.4420
 2804TIP3   OH229970   0.734   1.738   7.539 -0.3389 -0.6807  0.0605
 2804TIP3    H129971   0.779   1.801   7.595  2.4423 -1.2358 -1.3342
 2804TIP3    H229972   0.748   1.771   7.450 -1.1357 -1.8551 -0.5279
 2805TIP3   OH229973   1.444   4.033   0.669  0.2152 -0.0360  0.1129
 2805TIP3    H129974   1.479   4.040   0.758 -0.0134  0.1825  0.1896
 2805TIP3    H229975   1.501   4.089   0.617  0.1794  0.0645  0.1789
 2806TIP3   OH229976   0.452   0.790   6.294 -0.3165 -0.3018 -0.0006
 2806TIP3    H129977   0.505   0.850   6.243 -1.3535  0.1367 -0.5876
 2806TIP3    H229978   0.369   0.836   6.307 -0.2606 -0.6058  1.6505
 2807TIP3   OH229979   6.063   3.840   7.089  0.9443 -0.3517  0.1864
 2807TIP3    H129980   6.003   3.860   7.017  1.9436 -0.6420 -0.7612
 2807TIP3    H229981   6.127   3.781   7.050  2.7112  1.1182  0.7213
 2808TIP3   OH229982   6.393   1.415   0.463 -0.6737  0.0607 -0.0379
 2808TIP3    H129983   6.405   1.326   0.430  0.5234 -0.0529  0.6688
 2808TIP3    H229984   6.347   1.404   0.546 -0.1121  0.0715  0.2742
 2809TIP3   OH229985   7.029   6.396   0.128 -0.0220  0.6569  0.0368
 2809TIP3    H129986   6.972   6.319   0.120 -0.6260  1.2285 -1.7963
 2809TIP3    H229987   7.117   6.362   0.115 -0.3543  0.3289 -1.6938
 2810TIP3   OH229988   1.414   4.046   7.245 -0.3357 -0.2167  0.6504
 2810TIP3    H129989   1.420   4.133   7.204  0.1537 -0.8691 -0.7352
 2810TIP3    H229990   1.320   4.030   7.251 -0.4860  1.0622  2.4298
 2811TIP3   OH229991   2.213   1.829   1.153 -0.2198  0.8804 -0.3588
 2811TIP3    H129992   2.175   1.904   1.197 -0.5606 -0.1814  1.2139
 2811TIP3    H229993   2.286   1.803   1.208  1.4571  1.5123 -2.1694
 2812TIP3   OH229994   2.535   2.006   7.828  0.3900  0.1115  0.4418
 2812TIP3    H129995   2.597   2.066   7.788  1.8855 -1.4594  0.2805
 2812TIP3    H229996   2.513   2.046   7.912  0.3433  1.4744 -0.1927
 2813TIP3   OH229997   0.043   4.864   1.215 -0.4366  0.0699  0.1669
 2813TIP3    H129998   0.133   4.848   1.185 -0.6399 -1.4936  0.3197
 2813TIP3    H229999   0.048   4.947   1.262  1.1142 -0.4137  0.9154
 2814TIP3   OH230000   2.902   5.618   0.014  0.4090  0.3328 -0.0765
 2814TIP3    H130001   2.988   5.592   0.047 -0.1950  0.4354  1.7067
 2814TIP3    H230002   2.921   5.688  -0.049  1.6181  0.5232  0.4697
 2815TIP3   OH230003   2.444   4.513   0.811 -0.4015 -0.3751 -0.1290
 2815TIP3    H130004   2.504   4.536   0.882 -0.8021  1.3492 -0.3131
 2815TIP3    H230005   2.485   4.437   0.769  2.0645  1.1602 -0.7035
 2816TIP3   OH230006   1.112   2.744   0.141 -0.5049  0.4037  0.5126
 2816TIP3    H130007   1.124   2.683   0.214  0.1963  0.6327  0.5943
 2816TIP3    H230008   1.192   2.796   0.140 -0.8811  0.9805  0.1183
 2817TIP3   OH230009   6.774   1.103   6.777  0.1485  0.2446 -0.5233
 2817TIP3    H130010   6.794   1.115   6.869 -0.6797 -1.0125 -0.1442
 2817TIP3    H230011   6.856   1.074   6.737  0.3818  0.2827 -0.0675
 2818TIP3   OH230012   3.254   3.879   7.314  0.0994 -0.2027  0.4714
 2818TIP3    H130013   3.305   3.797   7.321  0.0234 -0.2156  0.8870
 2818TIP3    H230014   3.308   3.944   7.357  0.1904 -0.0143  0.0785
 2819TIP3   OH230015   6.500   3.132   1.509 -0.4124 -0.1691  0.0112
 2819TIP3    H130016   6.406   3.116   1.501 -0.2592 -0.5054 -1.2063
 2819TIP3    H230017   6.510   3.169   1.597 -1.6873 -0.0446  0.1227
 2820TIP3   OH230018   1.328   4.150   6.461 -0.2565  0.0615 -0.1119
 2820TIP3    H130019   1.238   4.123   6.478 -0.0340 -0.8604 -0.3062
 2820TIP3    H230020   1.373   4.068   6.439  0.5212  0.5777 -0.4693
 2821TIP3   OH230021   0.261   3.961   1.556  0.5383 -0.2802 -0.2654
 2821TIP3    H130022   0.355   3.963   1.539  0.8987  2.8621  1.3174
 2821TIP3    H230023   0.254   3.946   1.651 -0.6869 -2.1604 -0.6073
 2822TIP3   OH230024   3.703   0.713   1.875  0.2417 -0.0424 -0.0222
 2822TIP3    H130025   3.682   0.621   1.855  0.7773  0.0407 -1.0212
 2822TIP3    H230026   3.798   0.714   1.887  0.3465  0.5364 -0.8865
 2823TIP3   OH230027   2.382   2.443   0.912  0.2818  0.0579 -0.0167
 2823TIP3    H130028   2.422   2.397   0.986 -2.4076 -1.2622  0.7483
 2823TIP3    H230029   2.311   2.494   0.952 -1.1369 -0.5691 -1.6371
 2824TIP3   OH230030   3.671   1.498   7.644 -0.0307  0.5405 -0.0644
 2824TIP3    H130031   3.760   1.501   7.678 -0.8469  0.5128  2.2263
 2824TIP3    H230032   3.639   1.587   7.652 -0.5111  0.3662  0.0120
 2825TIP3   OH230033   5.355   4.059   1.048  0.1553  0.1899  0.0208
 2825TIP3    H130034   5.382   4.067   0.957 -0.6667 -0.2726 -0.2812
 2825TIP3    H230035   5.286   3.992   1.047  0.3502 -0.0497  1.0250
 2826TIP3   OH230036   4.766   4.453   0.305 -0.5946 -0.2832 -0.2151
 2826TIP3    H130037   4.792   4.387   0.369 -0.5786  0.5594  0.6701
 2826TIP3    H230038   4.834   4.449   0.238  0.9837  0.7431  1.2338
 2827TIP3   OH230039   4.633   4.941   0.065  0.1490 -0.3828  0.4843
 2827TIP3    H130040   4.692   4.902   0.130  0.9429  1.4757  0.9627
 2827TIP3    H230041   4.582   4.868   0.031  0.8754 -1.6535  2.0114
 2828TIP3   OH230042   1.184   0.892   7.821 -0.5368 -0.0708  0.7056
 2828TIP3    H130043   1.209   0.960   7.884 -0.5106 -0.6533  1.3352
 2828TIP3    H230044   1.088   0.892   7.822 -0.5686 -1.4908  2.3383
 2829TIP3   OH230045   3.167   5.387   0.600  0.3774  0.3269 -0.6261
 2829TIP3    H130046   3.109   5.396   0.675 -1.4571  1.2239 -2.0798
 2829TIP3    H230047   3.113   5.410   0.524  2.6372  1.2327 -2.0727
 2830TIP3   OH230048   1.637   0.784   0.375  0.5546 -0.2046 -0.6726
 2830TIP3    H130049   1.730   0.807   0.382  0.5722  0.4941 -2.5907
 2830TIP3    H230050   1.600   0.852   0.319 -1.3621  0.0918  0.8234
 2831TIP3   OH230051   3.362   4.262   7.849 -0.1948  0.2783  0.2078
 2831TIP3    H130052   3.312   4.281   7.928 -1.1495 -1.7904  0.1489
 2831TIP3    H230053   3.383   4.348   7.812 -0.9874  1.2384  1.9141
 2832TIP3   OH230054   3.910   3.027   7.659 -0.1533  0.0346 -0.1594
 2832TIP3    H130055   3.957   2.971   7.721 -1.6720  1.3554  2.4007
 2832TIP3    H230056   3.927   3.116   7.690 -2.6685  0.6410 -0.2580
 2833TIP3   OH230057   6.048   4.669   7.420  0.8030 -0.1487 -0.2433
 2833TIP3    H130058   6.130   4.668   7.370  0.3495  0.4658 -1.0358
 2833TIP3    H230059   6.028   4.762   7.431  1.0110 -0.2707  1.3200
 2834TIP3   OH230060   5.377   2.011   7.622  0.0182 -0.0019  0.2899
 2834TIP3    H130061   5.424   2.016   7.706 -0.0253  3.2704  0.2740
 2834TIP3    H230062   5.293   1.971   7.644  1.3643 -2.6247  1.0220
 2835TIP3   OH230063   6.657   2.085   0.379 -0.0074  0.2259 -0.2618
 2835TIP3    H130064   6.604   2.037   0.315  1.7972 -0.3453 -1.4004
 2835TIP3    H230065   6.656   2.029   0.457 -0.9247  0.1459 -0.3183
 2836TIP3   OH230066   2.956   5.765   0.352 -0.4406 -0.3033 -0.2560
 2836TIP3    H130067   2.961   5.854   0.387  0.1600 -0.5846  0.3993
 2836TIP3    H230068   3.044   5.748   0.318  0.3984 -1.7011  2.3161
 2837TIP3   OH230069   6.481   5.401   0.047 -0.1360  0.0767 -0.6645
 2837TIP3    H130070   6.498   5.477   0.102  0.1096 -0.7680  0.4561
 2837TIP3    H230071   6.400   5.423   0.000  0.6279  1.5487 -1.3565
 2838TIP3   OH230072   0.543   5.096   0.532  0.7716  0.3670 -0.0138
 2838TIP3    H130073   0.525   5.182   0.494 -0.6516  0.3605  0.5673
 2838TIP3    H230074   0.468   5.042   0.505  2.0926 -0.9713 -1.1443
 2839TIP3   OH230075   4.696   6.105   0.628 -0.0702 -0.2609  1.2136
 2839TIP3    H130076   4.691   6.096   0.723  1.1810 -5.8185  1.0987
 2839TIP3    H230077   4.784   6.139   0.613  1.4354 -3.2887  2.2340
 2840TIP3   OH230078   1.397   6.409   1.442  0.7284  0.1322  0.0073
 2840TIP3    H130079   1.444   6.418   1.525 -1.1461  1.2705  1.0084
 2840TIP3    H230080   1.315   6.366   1.465  0.2029  0.3982 -1.2852
 2841TIP3   OH230081   1.702   0.118   0.894  0.5352  0.5901  0.4632
 2841TIP3    H130082   1.662   0.202   0.915 -0.0302  1.0581 -2.1812
 2841TIP3    H230083   1.709   0.118   0.799  1.2539 -2.0400  0.4500
 2842TIP3   OH230084   4.043   2.398   7.128 -0.1236  0.6554  0.5178
 2842TIP3    H130085   3.960   2.352   7.142 -0.7909  1.7024  0.1272
 2842TIP3    H230086   4.081   2.405   7.216 -1.0517  1.2603  0.8899
 2843TIP3   OH230087   6.239   6.217   1.604 -0.1066 -0.0942 -0.1731
 2843TIP3    H130088   6.199   6.198   1.689 -0.7737  0.3495 -0.3790
 2843TIP3    H230089   6.248   6.132   1.561  1.7759 -0.5472  0.9872
 2844TIP3   OH230090   3.457   6.245   0.781 -0.1223  0.3009  0.8852
 2844TIP3    H130091   3.458   6.340   0.793 -0.8838  0.4669 -0.1455
 2844TIP3    H230092   3.549   6.220   0.782  0.1136  1.1143  0.7555
 2845TIP3   OH230093   1.016   1.622   6.225 -0.1647  0.1523 -0.0614
 2845TIP3    H130094   1.093   1.620   6.282 -0.9439 -0.9387  1.0040
 2845TIP3    H230095   1.046   1.668   6.147  1.3703  0.3640  0.6046
 2846TIP3   OH230096   2.866   3.376   0.814 -0.2350 -0.2878 -0.6999
 2846TIP3    H130097   2.893   3.338   0.898  1.0546 -0.8309 -1.3238
 2846TIP3    H230098   2.788   3.427   0.834  0.2703 -0.0860  0.9064
 2847TIP3   OH230099   1.834   5.619   1.648 -0.0233 -0.0789 -0.6403
 2847TIP3    H130100   1.876   5.589   1.728 -1.0263  1.3007  0.4568
 2847TIP3    H230101   1.855   5.552   1.583  1.2046 -0.9952  0.6454
 2848TIP3   OH230102   1.684   5.313   1.977  0.1342  0.5350  0.2706
 2848TIP3    H130103   1.731   5.328   2.060 -0.2709  1.9368  0.2691
 2848TIP3    H230104   1.753   5.290   1.915  0.5336  0.2540  0.8008
 2849TIP3   OH230105   6.419   1.902   0.861 -0.1370 -0.1087  0.5546
 2849TIP3    H130106   6.363   1.835   0.821  1.8603 -0.8735 -1.1255
 2849TIP3    H230107   6.394   1.983   0.817 -0.9362 -0.1585  0.8972
 2850TIP3   OH230108   5.158   1.284   0.335 -0.2694 -0.5435 -0.6302
 2850TIP3    H130109   5.141   1.213   0.274  0.0766  0.0002 -1.3795
 2850TIP3    H230110   5.175   1.360   0.279 -0.0388 -0.0092  0.1438
 2851TIP3   OH230111   2.379   2.897   7.002 -0.1413  0.0762  0.3720
 2851TIP3    H130112   2.326   2.964   7.044 -0.3960 -0.0747  0.2949
 2851TIP3    H230113   2.460   2.942   6.977 -0.5395  0.4966 -0.1936
 2852TIP3   OH230114   6.252   5.942   1.500  0.1081 -0.2699  0.4016
 2852TIP3    H130115   6.193   5.922   1.428 -0.5873  0.5373  0.7271
 2852TIP3    H230116   6.226   5.883   1.571 -0.6309  0.4010  0.7000
 2853TIP3   OH230117   1.403   2.696   6.434 -0.1340  0.6139  0.1420
 2853TIP3    H130118   1.354   2.673   6.355  0.9695 -0.3145 -0.3115
 2853TIP3    H230119   1.407   2.792   6.433 -0.6091  0.6308 -0.6356
 2854TIP3   OH230120   7.019   3.873   7.153  0.4454  0.0059 -0.0355
 2854TIP3    H130121   7.062   3.829   7.080 -0.8815 -0.9556 -0.2680
 2854TIP3    H230122   7.037   3.817   7.228  0.1917 -0.0365 -0.0047
 2855TIP3   OH230123   6.199   2.612   7.575  0.1277  0.2830 -0.0560
 2855TIP3    H130124   6.143   2.594   7.499  1.1457  1.0003 -1.0091
 2855TIP3    H230125   6.276   2.558   7.561 -0.0432 -0.2297  0.9338
 2856TIP3   OH230126   4.891   1.882   7.360 -0.0084 -0.4961 -0.0831
 2856TIP3    H130127   4.850   1.818   7.418 -0.2408 -0.1180  0.1716
 2856TIP3    H230128   4.980   1.891   7.394 -0.3013  0.1100  0.5322
 2857TIP3   OH230129   1.835   0.961   0.190  0.3249 -0.4022  0.0128
 2857TIP3    H130130   1.872   0.909   0.261 -0.3922 -0.8688  0.0506
 2857TIP3    H230131   1.871   0.922   0.110  0.2932 -0.5546  0.0726
 2858TIP3   OH230132   1.993   1.470   6.100 -0.3638  0.2111 -0.2165
 2858TIP3    H130133   1.898   1.470   6.109 -0.3497  0.7708 -0.0371
 2858TIP3    H230134   2.023   1.544   6.153  0.0785  0.7554 -1.1744
 2859TIP3   OH230135   5.939   2.735   6.999 -0.2586 -0.0248 -0.0355
 2859TIP3    H130136   5.964   2.667   6.936 -1.5682  1.0532 -1.8330
 2859TIP3    H230137   5.912   2.686   7.077  0.7003 -1.4590 -0.5571
 2860TIP3   OH230138   4.911   0.334   0.204 -0.2307  0.4900 -0.1422
 2860TIP3    H130139   4.847   0.404   0.191 -0.0408  0.4220 -1.6047
 2860TIP3    H230140   4.981   0.375   0.255 -0.8642  0.9082  0.4015
 2861TIP3   OH230141   5.473   1.483   7.018  0.0152  0.0697  0.1891
 2861TIP3    H130142   5.525   1.404   7.030  1.1605  0.4229 -1.9850
 2861TIP3    H230143   5.480   1.503   6.924 -3.9523  0.2109 -0.2890
 2862TIP3   OH230144   2.333   3.342   1.562  0.2112 -0.0617  0.6230
 2862TIP3    H130145   2.378   3.264   1.595 -0.0151 -0.0844  0.8747
 2862TIP3    H230146   2.390   3.415   1.585  1.2694 -0.2843 -1.0754
 2863TIP3   OH230147   4.479   6.639   5.893  0.3303 -0.0105  0.4155
 2863TIP3    H130148   4.450   6.606   5.978 -0.1410 -0.2079  0.1810
 2863TIP3    H230149   4.448   6.730   5.891  2.8596  0.9792  1.6605
 2864TIP3   OH230150   3.482   2.521   0.592 -0.1520  0.5941 -0.1365
 2864TIP3    H130151   3.457   2.598   0.540  0.3968  1.1130  0.3681
 2864TIP3    H230152   3.492   2.554   0.681 -0.1853 -0.1194  0.1365
 2865TIP3   OH230153   1.058   1.751   5.927 -0.3030 -0.3410 -0.0844
 2865TIP3    H130154   1.147   1.783   5.934 -0.9981  1.3914  1.6100
 2865TIP3    H230155   1.065   1.673   5.872  2.4702 -1.1764  1.2734
 2866TIP3   OH230156   5.050   0.035   0.225 -0.2720 -0.0860  0.2800
 2866TIP3    H130157   4.975   0.008   0.278  0.8333 -0.8725  1.5177
 2866TIP3    H230158   5.050   0.131   0.230  0.1856 -0.1450  2.3384
 2867TIP3   OH230159   5.370   3.672   0.426 -0.0012 -0.8495 -0.1276
 2867TIP3    H130160   5.399   3.688   0.516 -1.1753  1.0093 -0.0164
 2867TIP3    H230161   5.357   3.578   0.422 -0.6910 -0.9110  1.9406
 2868TIP3   OH230162   5.642   1.074   1.620  0.2266  0.1914  0.0697
 2868TIP3    H130163   5.650   1.005   1.686  1.7708  1.0655  0.8458
 2868TIP3    H230164   5.708   1.139   1.644 -0.0579  1.1666 -1.5917
 2869TIP3   OH230165   3.887   3.607   7.308 -0.1170  0.7095  0.0304
 2869TIP3    H130166   3.855   3.682   7.359 -0.0773  0.5761  0.2514
 2869TIP3    H230167   3.982   3.619   7.304  0.0878 -0.1925  1.4693
 2870TIP3   OH230168   2.730   1.082   0.350  0.0197 -0.0481  0.6604
 2870TIP3    H130169   2.819   1.060   0.377  0.5161 -2.0826 -2.1161
 2870TIP3    H230170   2.676   1.010   0.383 -0.3045  0.3056  0.9090
 2871TIP3   OH230171   4.668   2.160   0.898 -0.2627 -0.0715 -0.6658
 2871TIP3    H130172   4.657   2.178   0.992 -1.8850  0.2070 -0.8751
 2871TIP3    H230173   4.736   2.094   0.894 -0.4416 -0.3695  0.7499
 2872TIP3   OH230174   4.578   4.608   0.814  0.3484 -0.1380 -0.2275
 2872TIP3    H130175   4.622   4.542   0.868 -0.9127  0.0612  1.1074
 2872TIP3    H230176   4.555   4.562   0.734 -0.6922 -1.4078  0.7584
 2873TIP3   OH230177   6.325   1.547   7.257 -0.6709 -0.1010 -0.2592
 2873TIP3    H130178   6.267   1.611   7.215 -1.5338 -1.3162 -0.9864
 2873TIP3    H230179   6.363   1.498   7.184 -0.1194 -0.5136  0.2953
 2874TIP3   OH230180   6.643   1.599   6.890  0.4377  0.0633 -0.0968
 2874TIP3    H130181   6.688   1.632   6.967 -0.4112  2.1892 -0.4444
 2874TIP3    H230182   6.703   1.536   6.852  2.6917  2.0279  0.0072
 2875TIP3   OH230183   3.585   5.386   6.729  0.0157  0.3874  0.4594
 2875TIP3    H130184   3.606   5.294   6.710 -2.8948 -0.0663 -1.3499
 2875TIP3    H230185   3.572   5.425   6.643  0.8209  2.4406  1.2224
 2876TIP3   OH230186   1.412   0.954   1.260 -0.3618 -0.1082  0.4057
 2876TIP3    H130187   1.356   0.877   1.273  2.0081 -1.8045  1.2208
 2876TIP3    H230188   1.489   0.920   1.215  1.5295  1.4507  2.3140
 2877TIP3   OH230189   0.141   2.892   1.866  0.3943  0.8131 -0.6756
 2877TIP3    H130190   0.161   2.805   1.902 -1.4951  0.2460 -0.8779
 2877TIP3    H230191   0.168   2.953   1.935  3.4215  0.2714 -1.2146
 2878TIP3   OH230192   1.840   2.226   0.168  0.5589  0.5009  0.1567
 2878TIP3    H130193   1.884   2.209   0.251 -0.5251  0.7543  0.8096
 2878TIP3    H230194   1.801   2.313   0.179  2.7145  1.8111 -1.6602
 2879TIP3   OH230195   1.684   0.897   1.108  0.1229  0.5006 -0.1267
 2879TIP3    H130196   1.708   0.971   1.052  0.4224  0.4213 -0.1057
 2879TIP3    H230197   1.764   0.877   1.157 -0.1927  0.7014  0.4805
 2880TIP3   OH230198   3.857   4.463   6.491  0.6674 -0.1183 -0.4453
 2880TIP3    H130199   3.868   4.370   6.507 -0.9649 -0.3407 -0.5092
 2880TIP3    H230200   3.922   4.505   6.548  1.7001 -1.2932 -0.7395
 2881TIP3   OH230201   3.269   2.040   7.191  0.4983  0.1515  0.3089
 2881TIP3    H130202   3.239   2.074   7.275  1.0297 -0.2924  0.6776
 2881TIP3    H230203   3.189   2.012   7.147  0.1257  1.1448  0.3194
 2882TIP3   OH230204   1.051   4.467   1.274 -0.7036  0.2990 -0.3669
 2882TIP3    H130205   1.144   4.444   1.280 -0.9001 -0.2884  0.5173
 2882TIP3    H230206   1.021   4.425   1.193 -0.5568 -0.7730  0.1310
 2883TIP3   OH230207   0.274   2.665   6.176 -0.4879 -0.2397 -0.1837
 2883TIP3    H130208   0.181   2.689   6.168 -0.7990 -1.6252 -1.0002
 2883TIP3    H230209   0.319   2.749   6.184 -1.5748  0.6875 -2.5835
 2884TIP3   OH230210   6.129   5.670   0.839  0.1220 -0.2336 -0.3704
 2884TIP3    H130211   6.074   5.635   0.768  1.2366  0.3857 -1.5761
 2884TIP3    H230212   6.207   5.614   0.838  1.1605  1.1747 -1.1845
 2885TIP3   OH230213   6.171   1.506   6.812 -0.1648  0.2781  0.1298
 2885TIP3    H130214   6.230   1.568   6.854 -0.8868  1.7811 -0.9560
 2885TIP3    H230215   6.094   1.502   6.869  0.3674 -0.5584  0.8043
 2886TIP3   OH230216   2.998   1.788   6.514  0.4935  0.7044  0.0697
 2886TIP3    H130217   3.025   1.870   6.473  2.3305 -1.3078 -3.1302
 2886TIP3    H230218   3.078   1.750   6.548  0.0857 -0.8115 -0.5940
 2887TIP3   OH230219   6.740   3.169   0.990 -0.1111  0.1318  0.4610
 2887TIP3    H130220   6.686   3.198   1.063  1.8454  0.6936  1.7609
 2887TIP3    H230221   6.795   3.245   0.969  0.1339 -0.3845 -0.8748
 2888TIP3   OH230222   3.836   4.931   1.616 -0.4053  0.3675  0.4669
 2888TIP3    H130223   3.809   4.844   1.585  0.8182 -0.2102  0.9464
 2888TIP3    H230224   3.754   4.978   1.631 -1.0697 -0.4312 -0.5578
 2889TIP3   OH230225   1.612   2.375   6.060  0.5090  0.2242 -0.3289
 2889TIP3    H130226   1.528   2.416   6.082  1.0533  0.8950  0.5692
 2889TIP3    H230227   1.590   2.284   6.039 -0.2587 -0.0451  1.4577
 2890TIP3   OH230228   5.771   3.495   1.579  0.0118  0.8054 -0.2911
 2890TIP3    H130229   5.704   3.472   1.515  0.0740  1.3624 -0.5638
 2890TIP3    H230230   5.746   3.448   1.658  0.7864 -1.1294 -1.1377
 2891TIP3   OH230231   5.033   2.160   7.167  0.0371  0.0525 -0.0784
 2891TIP3    H130232   5.011   2.226   7.102  0.3234  0.7878  0.5533
 2891TIP3    H230233   4.974   2.178   7.240  1.6273  1.0809  1.0169
 2892TIP3   OH230234   3.239   0.894   0.222 -0.4544 -0.2699  0.3868
 2892TIP3    H130235   3.322   0.942   0.227 -0.1803 -0.6846 -0.0920
 2892TIP3    H230236   3.261   0.804   0.245 -0.9416 -0.2078  1.1405
 2893TIP3   OH230237   5.451   5.798   0.278 -0.0647 -0.0924  0.1489
 2893TIP3    H130238   5.506   5.873   0.301 -0.9170  0.7168 -0.3591
 2893TIP3    H230239   5.479   5.774   0.190  0.8531 -0.9968  0.6665
 2894TIP3   OH230240   0.184   3.477   0.947 -0.1436 -0.2763 -0.0345
 2894TIP3    H130241   0.187   3.437   1.034 -3.1993 -1.0365 -0.1392
 2894TIP3    H230242   0.119   3.425   0.900  0.5974  0.8208 -2.4214
 2895TIP3   OH230243   4.000   4.761   0.570 -0.2590  0.2652  0.1242
 2895TIP3    H130244   4.035   4.797   0.652 -0.8887 -2.4391  1.7009
 2895TIP3    H230245   4.057   4.686   0.550  0.0116  0.9889 -2.1011
 2896TIP3   OH230246   2.185   4.869   1.654 -0.2768 -0.3737  0.2464
 2896TIP3    H130247   2.276   4.864   1.682 -0.3712  1.2711  0.9597
 2896TIP3    H230248   2.140   4.804   1.709  0.4757 -1.3312 -0.2468
 2897TIP3   OH230249   2.091   1.040   6.627  0.2359  0.5492 -0.1618
 2897TIP3    H130250   2.109   0.956   6.585 -1.1252 -1.2256  2.4741
 2897TIP3    H230251   2.159   1.050   6.694 -0.4000  0.8185  0.4682
 2898TIP3   OH230252   6.944   6.940   7.966  0.2809  0.3971  0.0545
 2898TIP3    H130253   7.006   6.900   8.028  1.0870  0.4437 -0.7082
 2898TIP3    H230254   6.858   6.915   7.999  0.7465 -1.3821  0.0184
 2899TIP3   OH230255   0.723   0.839   7.632 -0.1974  0.5250 -0.2360
 2899TIP3    H130256   0.636   0.865   7.662 -0.6885 -0.1325 -1.0342
 2899TIP3    H230257   0.737   0.892   7.553  0.5538  1.3484  0.4384
 2900TIP3   OH230258   4.385   6.593   7.860 -0.4058 -0.1217  0.6457
 2900TIP3    H130259   4.394   6.506   7.897  0.5169  0.2508  1.3393
 2900TIP3    H230260   4.353   6.647   7.932 -0.5554  0.2034  0.3408
 2901TIP3   OH230261   4.623   0.875   0.432 -0.5067  0.9552 -0.7436
 2901TIP3    H130262   4.585   0.866   0.345 -0.0039  0.7870 -0.9518
 2901TIP3    H230263   4.567   0.938   0.477 -2.6635 -1.2559 -0.1107
 2902TIP3   OH230264   3.383   2.608   1.180  0.2051 -0.3238 -0.3513
 2902TIP3    H130265   3.364   2.517   1.154  0.2915  0.2552 -2.6139
 2902TIP3    H230266   3.475   2.621   1.157  0.5457  0.0335  1.0568
 2903TIP3   OH230267   5.988   6.752   6.518 -0.2975  0.2848 -0.4274
 2903TIP3    H130268   5.984   6.689   6.446  0.2487 -0.2148 -0.0288
 2903TIP3    H230269   5.920   6.723   6.579  0.7926 -0.7239  0.3740
 2904TIP3   OH230270   5.106   1.604   1.314  0.1700  0.2969 -0.2080
 2904TIP3    H130271   5.015   1.586   1.337  0.2290  0.5132  0.2129
 2904TIP3    H230272   5.155   1.587   1.394  0.6287 -0.7365 -0.6987
 2905TIP3   OH230273   6.476   4.578   7.610 -0.5605 -0.2926 -0.1476
 2905TIP3    H130274   6.419   4.502   7.609 -0.5869 -0.2973  0.9354
 2905TIP3    H230275   6.417   4.653   7.599 -0.9486 -0.2235  1.9345
 2906TIP3   OH230276   1.658   1.170   2.174 -0.0654 -0.4762 -0.4070
 2906TIP3    H130277   1.662   1.265   2.184  3.0258 -0.4575 -0.6901
 2906TIP3    H230278   1.571   1.153   2.138 -1.6467  1.9459  1.8448
 2907TIP3   OH230279   1.839   2.078   6.396  0.2743  1.0020  0.2483
 2907TIP3    H130280   1.773   2.045   6.458  0.1807 -0.8273 -0.7508
 2907TIP3    H230281   1.815   2.169   6.382 -1.1636  0.7762  1.0363
 2908TIP3   OH230282   1.466   3.740   1.172 -1.1196  0.8327  0.0264
 2908TIP3    H130283   1.378   3.776   1.164 -0.8015  1.4326 -1.0384
 2908TIP3    H230284   1.524   3.816   1.158 -0.4317  0.3011 -0.0686
 2909TIP3   OH230285   1.196   3.547   7.805  0.3225  0.0524 -0.2450
 2909TIP3    H130286   1.117   3.520   7.759  0.0425 -0.3797  0.4791
 2909TIP3    H230287   1.265   3.490   7.771  0.2558  0.1825 -0.6045
 2910TIP3   OH230288   2.157   6.060   0.781  0.8737 -0.5911  0.0416
 2910TIP3    H130289   2.161   6.142   0.832 -0.7510 -0.8278  0.5999
 2910TIP3    H230290   2.196   5.994   0.839  2.4002 -0.2193 -0.4974
 2911TIP3   OH230291   2.965   5.895   7.218 -0.2720 -0.3748  0.2671
 2911TIP3    H130292   2.881   5.937   7.234 -0.2031  0.7380 -2.0125
 2911TIP3    H230293   2.963   5.816   7.274 -3.1418 -0.8182 -0.3075
 2912TIP3   OH230294   4.340   0.210   7.071 -0.4669  0.1486 -0.0095
 2912TIP3    H130295   4.423   0.222   7.025  1.2900 -0.1929  2.8452
 2912TIP3    H230296   4.278   0.263   7.021  0.7757 -1.5475 -3.7369
 2913TIP3   OH230297   4.520   2.845   1.170 -0.0437 -0.1435  0.1238
 2913TIP3    H130298   4.429   2.828   1.145  0.3915 -0.8362 -1.1088
 2913TIP3    H230299   4.568   2.839   1.088  0.9152  1.9240  0.4674
 2914TIP3   OH230300   4.327   4.325   1.673 -0.1495 -0.2519  0.4301
 2914TIP3    H130301   4.418   4.347   1.652 -0.0079 -1.1733  0.0095
 2914TIP3    H230302   4.302   4.388   1.740  0.0830  1.4532 -1.0105
 2915TIP3   OH230303   3.618   5.101   7.080  0.6524  0.3351 -0.3993
 2915TIP3    H130304   3.683   5.058   7.136 -0.1603  1.1206  1.2266
 2915TIP3    H230305   3.549   5.036   7.070 -0.5162  1.1166  1.9502
 2916TIP3   OH230306   4.223   3.958   6.050 -0.1010 -0.0075  0.4050
 2916TIP3    H130307   4.162   3.884   6.055 -0.8616  0.6215  0.6956
 2916TIP3    H230308   4.167   4.034   6.035  0.7043  0.4676 -0.2494
 2917TIP3   OH230309   1.153   1.091   0.003  0.1534  0.0291  0.2533
 2917TIP3    H130310   1.095   1.122   0.072 -0.6060 -0.8676  0.0399
 2917TIP3    H230311   1.109   1.117  -0.078 -1.3901 -2.9449  0.0050
 2918TIP3   OH230312   4.875   5.032   1.042 -0.2944 -0.1451 -0.5094
 2918TIP3    H130313   4.814   4.972   1.084  1.9160 -3.5296 -1.7279
 2918TIP3    H230314   4.841   5.043   0.953 -2.2543  3.0117  0.4394
 2919TIP3   OH230315   6.033   1.698   6.626  0.5239  0.4122 -0.1946
 2919TIP3    H130316   6.068   1.782   6.595  1.4588  0.0599 -0.1218
 2919TIP3    H230317   6.110   1.646   6.647 -0.0701  0.1310  1.4040
 2920TIP3   OH230318   4.394   1.931   6.813 -0.7439 -0.4605 -0.3347
 2920TIP3    H130319   4.406   1.991   6.740  1.8633 -0.6659 -0.1752
 2920TIP3    H230320   4.483   1.917   6.847 -1.5767 -2.4037  1.2290
 2921TIP3   OH230321   6.034   4.707   0.543 -0.8981  0.2284  0.1557
 2921TIP3    H130322   6.081   4.624   0.555 -0.3061  0.7339  1.5925
 2921TIP3    H230323   6.013   4.735   0.633 -2.6395  0.7748 -0.3787
 2922TIP3   OH230324   3.938   6.011   6.691  0.1334  0.0985 -0.4968
 2922TIP3    H130325   3.914   5.970   6.608  1.8685 -0.2998 -0.8422
 2922TIP3    H230326   4.021   6.056   6.673  1.2969 -1.1583  1.3077
 2923TIP3   OH230327   6.490   0.981   1.600  0.3271 -0.5893 -0.4527
 2923TIP3    H130328   6.445   1.066   1.598  1.5798  0.1388  0.6958
 2923TIP3    H230329   6.468   0.941   1.516 -0.1108  0.9706 -1.1244
 2924TIP3   OH230330   3.855   5.369   5.438 -0.6629  0.0522  0.9901
 2924TIP3    H130331   3.822   5.290   5.395 -1.5211  0.5939  0.6349
 2924TIP3    H230332   3.950   5.354   5.444 -0.9159 -1.4760  1.9182
 2925TIP3   OH230333   2.823   5.212   7.561  0.1693  0.1270 -0.0603
 2925TIP3    H130334   2.877   5.136   7.583  1.1628  0.8256 -0.0166
 2925TIP3    H230335   2.882   5.271   7.515 -0.4420  1.1231  0.4016
 2926TIP3   OH230336   3.343   0.050   6.846  0.0852  0.5941 -0.0398
 2926TIP3    H130337   3.328   0.035   6.752 -2.2808 -1.3092  0.5236
 2926TIP3    H230338   3.403  -0.020   6.872 -0.2403  0.3580  0.0825
 2927TIP3   OH230339   4.190   7.123   6.886  0.3557 -0.0904  1.0267
 2927TIP3    H130340   4.172   7.143   6.978 -0.2642 -2.4192  1.4863
 2927TIP3    H230341   4.103   7.116   6.845  0.6284  1.1128  0.1919
 2928TIP3   OH230342   5.207   5.864   0.173  0.1678 -0.5053  0.4035
 2928TIP3    H130343   5.151   5.814   0.232  0.6498 -1.3093  0.1992
 2928TIP3    H230344   5.294   5.860   0.213  0.0152  1.0896  0.9402
 2929TIP3   OH230345   5.456   3.067   6.353 -0.2845  0.1296 -0.5878
 2929TIP3    H130346   5.388   3.035   6.294 -0.0187 -1.1670 -0.2097
 2929TIP3    H230347   5.528   3.006   6.342  1.1108  1.8651 -1.4760
 2930TIP3   OH230348   3.095   2.153   1.550 -0.0592  0.3815 -0.2753
 2930TIP3    H130349   3.120   2.158   1.458  1.0738 -0.9565 -0.0789
 2930TIP3    H230350   3.131   2.232   1.589 -0.5165  0.9412 -0.9582
 2931TIP3   OH230351   0.374   4.754   2.135 -0.7375 -0.0015 -0.0032
 2931TIP3    H130352   0.454   4.805   2.120  0.3131 -1.3606  0.7972
 2931TIP3    H230353   0.377   4.685   2.069 -2.1225  0.8789 -1.0407
 2932TIP3   OH230354   4.495   6.922   0.839 -0.3389 -0.8008 -0.2897
 2932TIP3    H130355   4.476   6.958   0.926 -3.8970 -0.1085 -1.1942
 2932TIP3    H230356   4.589   6.904   0.841  0.1000  0.9687  3.0166
 2933TIP3   OH230357   2.530   2.724   7.352 -0.3013  0.1164  1.1274
 2933TIP3    H130358   2.464   2.658   7.376 -1.1323  1.2617  2.1094
 2933TIP3    H230359   2.555   2.764   7.436  0.6583  0.6187  0.6150
 2934TIP3   OH230360   4.829   6.490   6.261  0.2968 -0.0240 -0.2922
 2934TIP3    H130361   4.805   6.418   6.204  0.7087  0.1928 -0.7469
 2934TIP3    H230362   4.755   6.550   6.257 -1.0744 -1.4269  1.8498
 2935TIP3   OH230363   5.631   6.133   1.580  0.0019 -0.9925 -0.2680
 2935TIP3    H130364   5.722   6.112   1.602 -0.0646 -0.6833  0.3218
 2935TIP3    H230365   5.580   6.083   1.643 -0.2345 -1.0225 -0.4834
 2936TIP3   OH230366   6.181   5.252   0.113  0.5390  0.1005 -0.2666
 2936TIP3    H130367   6.215   5.221   0.029  1.3415  2.3911 -0.8712
 2936TIP3    H230368   6.204   5.345   0.115 -1.8317  0.7417  1.3193
 2937TIP3   OH230369   5.683   1.494   0.736  0.2773  0.1678  0.2176
 2937TIP3    H130370   5.704   1.422   0.677 -0.3276 -0.1410  0.3668
 2937TIP3    H230371   5.714   1.465   0.822  2.1197  1.0582 -0.1030
 2938TIP3   OH230372   2.948   0.147   0.320  0.1133 -0.1259 -0.7477
 2938TIP3    H130373   2.943   0.103   0.235 -0.2713  1.1238 -1.3972
 2938TIP3    H230374   2.908   0.086   0.381  1.4895 -1.5730 -1.2205
 2939TIP3   OH230375   1.464   4.651   7.689 -0.1729 -0.2207  0.2253
 2939TIP3    H130376   1.369   4.646   7.704 -0.5591 -0.4817 -1.9317
 2939TIP3    H230377   1.479   4.742   7.662 -0.1747 -0.6428 -1.3114
 2940TIP3   OH230378   5.282   2.891   7.852  0.1307 -0.7911  0.7900
 2940TIP3    H130379   5.241   2.875   7.768 -1.6398 -0.5521  1.5600
 2940TIP3    H230380   5.291   2.987   7.856  0.9211 -0.8545  0.5568
 2941TIP3   OH230381   4.771   2.391   1.542 -0.8496  0.5878  0.0968
 2941TIP3    H130382   4.777   2.397   1.446 -1.1487  0.5217  0.0732
 2941TIP3    H230383   4.727   2.472   1.568 -0.9256  0.5264  0.1609
 2942TIP3   OH230384   4.611   5.874   0.480  0.1716 -0.2198  0.1508
 2942TIP3    H130385   4.544   5.903   0.418 -0.0735  0.1251  0.5674
 2942TIP3    H230386   4.640   5.954   0.523  0.8735 -0.3665 -0.0477
 2943TIP3   OH230387   0.638   1.919   7.792 -0.5884  0.2910 -0.5315
 2943TIP3    H130388   0.571   1.977   7.756 -0.3803  0.1830 -1.1097
 2943TIP3    H230389   0.598   1.832   7.791 -0.9421  0.4295  0.4423
 2944TIP3   OH230390   4.204   0.891   1.818 -0.1459 -0.4305  0.3107
 2944TIP3    H130391   4.255   0.961   1.858 -0.0690 -0.0084 -0.4949
 2944TIP3    H230392   4.267   0.819   1.807  0.2275 -0.0078 -0.4280
 2945TIP3   OH230393   2.827   1.071   1.182 -0.5370 -0.3432  0.0741
 2945TIP3    H130394   2.874   1.131   1.124  1.0725  0.1568  1.8021
 2945TIP3    H230395   2.804   1.125   1.258 -1.9775 -1.1415  0.2238
 2946TIP3   OH230396   0.198   2.404   6.866  0.1130  0.3987  0.4192
 2946TIP3    H130397   0.125   2.348   6.840  0.4329 -0.7636  1.8893
 2946TIP3    H230398   0.157   2.473   6.919  0.0603 -0.4210  1.4983
 2947TIP3   OH230399   3.698   3.809   6.576 -0.0391  0.4148  0.8531
 2947TIP3    H130400   3.631   3.787   6.512  0.1782 -1.3867  1.1959
 2947TIP3    H230401   3.704   3.905   6.573 -0.9495  0.4490 -0.8538
 2948TIP3   OH230402   5.524   2.630   7.284 -0.4462  0.2252  0.4965
 2948TIP3    H130403   5.460   2.688   7.325 -0.2059 -0.5491  2.0483
 2948TIP3    H230404   5.478   2.547   7.272  0.0020 -0.0705  0.7990
 2949TIP3   OH230405   5.935   4.768   1.991  0.3660  0.5423  0.7804
 2949TIP3    H130406   5.933   4.860   2.015 -0.8586  0.0121  2.9615
 2949TIP3    H230407   6.015   4.734   2.031  0.2005  0.4152  1.0050
 2950TIP3   OH230408   5.985   0.004   6.635 -0.3102 -0.0371 -0.3169
 2950TIP3    H130409   5.948  -0.071   6.682 -0.3834 -0.0936 -0.4648
 2950TIP3    H230410   6.069   0.020   6.678 -0.3858 -0.0755 -0.1523
 2951TIP3   OH230411   1.835   3.780   6.469 -0.3199 -0.6039 -0.5926
 2951TIP3    H130412   1.775   3.705   6.476 -0.4795 -0.3788  0.9998
 2951TIP3    H230413   1.922   3.741   6.474 -0.4044 -0.7087  0.4535
 2952TIP3   OH230414   6.769   5.409   1.260 -0.0573  0.3656  0.5412
 2952TIP3    H130415   6.792   5.478   1.322 -1.4043 -0.3189  1.8435
 2952TIP3    H230416   6.854   5.376   1.229  0.6182  1.5517  1.0458
 2953TIP3   OH230417   3.525   7.049   7.276  0.0930 -0.3541 -0.2080
 2953TIP3    H130418   3.534   6.973   7.334 -1.0714 -2.4958 -2.6056
 2953TIP3    H230419   3.563   7.020   7.193 -1.0237  1.4402 -1.4224
 2954TIP3   OH230420   1.445   6.755   7.000  0.0627 -0.0927  0.3880
 2954TIP3    H130421   1.388   6.679   6.993 -1.2213  0.5714  2.6441
 2954TIP3    H230422   1.510   6.743   6.931 -0.4299 -2.9214  0.3074
 2955TIP3   OH230423   3.535   6.676   6.812 -0.2393  0.3232  0.0491
 2955TIP3    H130424   3.539   6.613   6.884 -2.1989  1.3571  1.1687
 2955TIP3    H230425   3.536   6.761   6.856  1.7999  1.1250 -1.3915
 2956TIP3   OH230426   5.143   5.299   6.982 -0.2775  0.1515 -0.0390
 2956TIP3    H130427   5.194   5.333   7.056 -0.6915  2.2675 -0.6608
 2956TIP3    H230428   5.192   5.326   6.905 -1.4465  0.7383 -0.5996
 2957TIP3   OH230429   2.769   6.622   7.267 -0.3455  0.1896 -0.2266
 2957TIP3    H130430   2.677   6.603   7.285 -0.7296  1.0280 -1.1961
 2957TIP3    H230431   2.806   6.646   7.352 -1.7557  2.6943 -0.2256
 2958TIP3   OH230432   3.622   3.031   6.005  0.4233  0.2098 -0.3300
 2958TIP3    H130433   3.643   2.950   5.959  1.3260  0.0618  0.3055
 2958TIP3    H230434   3.537   3.015   6.045  1.2743 -1.0250  1.0770
 2959TIP3   OH230435   4.410   3.941   7.889  0.4305  0.1012  0.4576
 2959TIP3    H130436   4.393   3.882   7.815  0.4044  1.2429 -0.4840
 2959TIP3    H230437   4.376   4.025   7.860  1.4698  0.8449  1.3235
 2960TIP3   OH230438   4.855   2.899   1.094  0.2980 -0.0740 -0.1558
 2960TIP3    H130439   4.823   2.893   1.005 -2.1246  1.3001  0.5275
 2960TIP3    H230440   4.920   2.969   1.092  0.6521 -0.4144 -0.9028
 2961TIP3   OH230441   0.821   2.425   0.038  0.5645  0.1351 -0.0957
 2961TIP3    H130442   0.756   2.453  -0.026  0.3529 -0.8600 -0.3379
 2961TIP3    H230443   0.814   2.489   0.109 -2.8529 -1.4882  1.3029
 2962TIP3   OH230444   2.308   3.847   7.718  0.4408 -0.8748  0.9271
 2962TIP3    H130445   2.236   3.849   7.780  0.4994  0.3323  0.9780
 2962TIP3    H230446   2.269   3.815   7.636 -0.0628 -0.5933  1.0559
 2963TIP3   OH230447   1.238   3.307   0.363  0.5871 -0.2014 -0.0341
 2963TIP3    H130448   1.195   3.240   0.417  3.6110 -1.8453  0.5541
 2963TIP3    H230449   1.226   3.276   0.273 -3.1543  1.7590 -0.4084
 2964TIP3   OH230450   0.306   6.767   0.071  0.5074  0.4883 -0.0936
 2964TIP3    H130451   0.397   6.736   0.071  0.0014 -1.0678  0.4275
 2964TIP3    H230452   0.294   6.804  -0.017  2.0549  2.0682  0.3010
 2965TIP3   OH230453   5.375   5.671   6.641  0.1691  0.0851  0.0182
 2965TIP3    H130454   5.282   5.658   6.625  0.2588  1.2110 -1.6476
 2965TIP3    H230455   5.416   5.590   6.610 -0.0813  0.4797 -1.4189
 2966TIP3   OH230456   3.212   2.109   0.421 -0.4027 -0.2250 -0.2539
 2966TIP3    H130457   3.269   2.035   0.443  0.9710  0.9755  0.3396
 2966TIP3    H230458   3.262   2.187   0.446 -0.4407  1.0910 -3.7346
 2967TIP3   OH230459   2.291   0.266   5.725 -0.4663 -0.3131  0.2070
 2967TIP3    H130460   2.307   0.204   5.796 -0.4906 -1.4897 -0.7605
 2967TIP3    H230461   2.226   0.222   5.670 -2.5349  1.7301  0.8507
 2968TIP3   OH230462   0.377   5.020   7.968  0.2337 -0.2029 -0.2677
 2968TIP3    H130463   0.426   4.999   8.048 -0.2973  0.0954  0.1383
 2968TIP3    H230464   0.440   5.069   7.914  0.5731 -0.3482 -0.0086
 2969TIP3   OH230465   1.830   3.268   7.321 -0.1727 -0.3325 -0.4051
 2969TIP3    H130466   1.865   3.344   7.274  1.2524 -0.1760  0.8339
 2969TIP3    H230467   1.735   3.283   7.323  0.1327  1.7834  0.3945
 2970TIP3   OH230468   3.923   4.351   1.993  0.0231  0.0868  0.5302
 2970TIP3    H130469   3.897   4.270   1.948 -0.1684 -0.4345  1.5426
 2970TIP3    H230470   3.846   4.376   2.043  0.4776  0.2013  1.1925
 2971TIP3   OH230471   1.635   6.976   0.804 -0.1550 -0.4079 -0.3468
 2971TIP3    H130472   1.677   7.061   0.819  1.0659 -0.5992 -2.2939
 2971TIP3    H230473   1.610   6.978   0.712 -1.8893 -1.4504  0.0531
 2972TIP3   OH230474   1.359   5.951   5.707  0.2287 -0.0553 -0.1257
 2972TIP3    H130475   1.417   6.022   5.734  1.2463 -0.9322  0.0815
 2972TIP3    H230476   1.356   5.893   5.783 -0.6711 -0.1802 -0.2553
 2973TIP3   OH230477   1.373   2.609   6.699 -0.0494 -0.3475 -0.0080
 2973TIP3    H130478   1.291   2.658   6.696  0.5676  0.8151  1.2146
 2973TIP3    H230479   1.415   2.625   6.614 -1.6664 -2.1125 -1.2469
 2974TIP3   OH230480   3.096   0.671   0.989 -0.0071 -0.2839  0.4328
 2974TIP3    H130481   3.042   0.708   1.059  0.8321  1.4945  0.2143
 2974TIP3    H230482   3.185   0.697   1.010  0.2265  0.6937 -1.4720
 2975TIP3   OH230483   4.468   1.237   0.317  0.2990  0.7068  0.2345
 2975TIP3    H130484   4.398   1.281   0.365  0.1568 -0.8006  1.5143
 2975TIP3    H230485   4.545   1.248   0.373  0.5729  0.5199 -0.1026
 2976TIP3   OH230486   1.370   2.748   0.294  0.1997 -0.7876 -0.2762
 2976TIP3    H130487   1.309   2.801   0.345  0.5860 -1.2376  0.6594
 2976TIP3    H230488   1.447   2.739   0.350  1.4388  0.3735 -1.7095
 2977TIP3   OH230489   4.092   1.768   7.590 -0.3336  0.1124 -0.0114
 2977TIP3    H130490   4.066   1.772   7.682 -0.1338 -0.0711  0.0544
 2977TIP3    H230491   4.107   1.675   7.574  1.6799  0.3398  0.3455
 2978TIP3   OH230492   6.635   6.344   6.704 -0.4033  0.3827 -0.3487
 2978TIP3    H130493   6.692   6.303   6.639 -1.2172  0.2378 -0.9858
 2978TIP3    H230494   6.687   6.344   6.785  0.3905  0.0114 -0.8465
 2979TIP3   OH230495   1.721   4.206   6.457  0.1972 -0.4586  0.5409
 2979TIP3    H130496   1.645   4.186   6.402  0.8917  1.4593 -1.2681
 2979TIP3    H230497   1.795   4.169   6.410  0.9578  2.2901 -0.6108
 2980TIP3   OH230498   0.235   3.346   6.387 -0.6191  0.0699 -0.3296
 2980TIP3    H130499   0.252   3.302   6.304 -1.1309 -0.2281 -0.2830
 2980TIP3    H230500   0.165   3.409   6.368  0.7119  1.5244 -0.5972
 2981TIP3   OH230501   6.842   4.878   0.524 -0.0137 -0.3288 -0.1533
 2981TIP3    H130502   6.890   4.881   0.607 -1.5979 -0.9911  0.8626
 2981TIP3    H230503   6.909   4.873   0.457  1.3536  1.1024  1.0230
 2982TIP3   OH230504   3.102   4.476   0.766 -0.0633  0.2502  0.0656
 2982TIP3    H130505   3.043   4.401   0.758  0.7031 -0.2264 -1.5192
 2982TIP3    H230506   3.188   4.442   0.738  0.5749  1.3972  0.5561
 2983TIP3   OH230507   4.987   7.093   6.785  0.4127  0.0399  0.1473
 2983TIP3    H130508   5.059   7.047   6.742  0.1638 -0.0785 -0.1439
 2983TIP3    H230509   4.944   7.026   6.838  0.8074  0.2177  0.6975
 2984TIP3   OH230510   4.200   2.803   7.120  0.5238  0.2532  0.2110
 2984TIP3    H130511   4.181   2.710   7.115 -0.0658  0.3566  0.4497
 2984TIP3    H230512   4.224   2.827   7.030 -2.4999  0.5134 -0.6561
 2985TIP3   OH230513   7.076   6.388   6.029  0.2697  0.0430 -0.1438
 2985TIP3    H130514   7.158   6.378   5.980  0.1761  0.4606 -0.3853
 2985TIP3    H230515   7.022   6.445   5.974  0.5898  1.4538  0.9677
 2986TIP3   OH230516   5.833   5.021   7.855  0.1115  0.4374  0.0793
 2986TIP3    H130517   5.821   5.050   7.764  1.2202  0.8319  0.0444
 2986TIP3    H230518   5.849   5.102   7.904  1.1377  0.0804  0.3433
 2987TIP3   OH230519   5.447   2.196   7.054 -0.4552 -0.4097  0.4056
 2987TIP3    H130520   5.447   2.103   7.078  1.3354 -0.3899  0.6002
 2987TIP3    H230521   5.488   2.240   7.128 -0.5808  0.4418 -0.0214
 2988TIP3   OH230522   6.571   5.203   1.568 -0.0384 -0.0234 -0.4961
 2988TIP3    H130523   6.570   5.108   1.576 -0.7720  0.1083  1.7584
 2988TIP3    H230524   6.560   5.220   1.474  0.4583 -2.1359 -0.9836
 2989TIP3   OH230525   3.407   6.054   7.054  0.0369 -0.2959  0.6022
 2989TIP3    H130526   3.469   5.984   7.076  0.8596  0.2890  0.2045
 2989TIP3    H230527   3.323   6.009   7.044  0.4904 -1.1821  0.6427
 2990TIP3   OH230528   7.099   0.931   1.058 -0.2833 -0.1349  0.1946
 2990TIP3    H130529   7.189   0.917   1.029 -0.5436 -1.2212 -0.1371
 2990TIP3    H230530   7.097   1.022   1.087  0.7671  0.0750 -0.3429
 2991TIP3   OH230531   5.144   5.598   8.008 -0.4647 -0.7573 -0.4706
 2991TIP3    H130532   5.056   5.595   8.046 -0.0926 -0.7531  0.4297
 2991TIP3    H230533   5.166   5.691   8.010  0.0915 -0.8898  0.6263
 2992TIP3   OH230534   6.563   5.521   0.347 -0.0261 -0.2708 -0.3784
 2992TIP3    H130535   6.472   5.494   0.355  0.0248 -1.0091 -1.8515
 2992TIP3    H230536   6.558   5.611   0.314 -0.1853  0.8701  2.4810
 2993TIP3   OH230537   2.914   2.401   0.652 -0.6900  0.1450 -0.9142
 2993TIP3    H130538   2.821   2.379   0.664 -0.8488  1.7934  1.7502
 2993TIP3    H230539   2.929   2.474   0.712  2.6250 -0.8264 -0.3792
 2994TIP3   OH230540   5.178   4.812   0.842 -0.3065 -0.0639  0.3149
 2994TIP3    H130541   5.126   4.803   0.923 -1.4451  0.8269 -0.2847
 2994TIP3    H230542   5.124   4.769   0.775 -0.0579  0.4743 -0.2371
 2995TIP3   OH230543   1.314   5.109   7.084  0.2475  0.1607  0.1070
 2995TIP3    H130544   1.247   5.083   7.020  0.7298 -0.6989 -0.0590
 2995TIP3    H230545   1.296   5.055   7.161 -0.7011  1.6120  0.9613
 2996TIP3   OH230546   6.589   1.400   0.192 -0.0026 -0.5860 -0.1292
 2996TIP3    H130547   6.653   1.427   0.258  2.2320 -1.8122 -1.6780
 2996TIP3    H230548   6.539   1.331   0.235 -1.1700  1.1505  1.4929
 2997TIP3   OH230549   6.715   3.156   6.452  0.4418 -0.2969  0.8943
 2997TIP3    H130550   6.754   3.069   6.466  1.8932  0.3356  0.9614
 2997TIP3    H230551   6.622   3.143   6.471 -0.0547 -2.6131 -2.2628
 2998TIP3   OH230552   1.479   4.590   0.306 -0.5221 -0.2274 -0.1871
 2998TIP3    H130553   1.548   4.550   0.252 -1.2072 -0.4360 -0.9273
 2998TIP3    H230554   1.527   4.639   0.373  0.3778  0.5974 -1.3791
 2999TIP3   OH230555   1.673   2.044   0.738  0.0755  0.0624 -0.4884
 2999TIP3    H130556   1.719   1.961   0.752  0.9153  0.8391  1.9140
 2999TIP3    H230557   1.581   2.023   0.750  0.1271 -0.7780 -1.4109
 3000TIP3   OH230558   6.053   0.991   6.907  0.1723 -0.0010  0.0422
 3000TIP3    H130559   6.127   1.020   6.854  0.9067 -2.6557 -0.4963
 3000TIP3    H230560   6.086   0.916   6.956 -1.9270 -0.7096  0.4665
 3001TIP3   OH230561   4.581   1.358   6.767  0.1280 -0.0720  0.4155
 3001TIP3    H130562   4.594   1.400   6.681  1.2369 -2.2577 -0.5504
 3001TIP3    H230563   4.670   1.349   6.802 -0.2156 -0.4235  1.2053
 3002TIP3   OH230564   0.606   0.994   7.403 -0.4651 -0.0138  0.2269
 3002TIP3    H130565   0.637   0.987   7.312  0.1759  0.0375  0.4398
 3002TIP3    H230566   0.513   0.973   7.397 -0.0972 -1.7243 -0.2103
 3003TIP3   OH230567   2.161   6.661   7.462  0.0967  0.0415  0.5797
 3003TIP3    H130568   2.130   6.596   7.525  0.4230 -0.2480  0.4418
 3003TIP3    H230569   2.119   6.636   7.380  0.0595  0.1282  0.5722
 3004TIP3   OH230570   6.368   3.854   0.115  0.2845 -0.1953  0.0511
 3004TIP3    H130571   6.326   3.793   0.054  1.8159  0.0261 -1.2827
 3004TIP3    H230572   6.419   3.797   0.173 -0.0476 -0.3193  0.2241
 3005TIP3   OH230573   1.767   0.055   6.350 -0.1639 -0.9830 -0.3870
 3005TIP3    H130574   1.821   0.093   6.280 -0.6192 -1.3379 -0.9384
 3005TIP3    H230575   1.725   0.130   6.391  0.6994 -0.7034  0.0115
 3006TIP3   OH230576   0.031   3.725   0.350 -0.1339 -0.2561 -0.3152
 3006TIP3    H130577   0.024   3.687   0.437 -0.0559  2.1386  0.8101
 3006TIP3    H230578   0.121   3.755   0.343 -0.0013 -0.8606 -1.4320
 3007TIP3   OH230579   6.898   4.498   7.000  0.7381 -0.3856 -0.1907
 3007TIP3    H130580   6.861   4.415   7.029  0.5017 -1.0226 -2.1176
 3007TIP3    H230581   6.989   4.496   7.031 -0.1156  0.1548  2.5909
 3008TIP3   OH230582   0.107   4.424   1.720 -0.5535 -0.5243 -0.2415
 3008TIP3    H130583   0.029   4.472   1.692 -0.1140  0.1683 -0.2980
 3008TIP3    H230584   0.089   4.400   1.811 -1.0259 -0.7837 -0.3975
 3009TIP3   OH230585   3.379   1.558   1.344 -0.0964 -0.6134 -0.1753
 3009TIP3    H130586   3.347   1.575   1.433 -0.8600  0.7924 -0.6950
 3009TIP3    H230587   3.300   1.561   1.290  0.1459 -2.9367 -0.7422
 3010TIP3   OH230588   4.333   6.881   5.865 -0.9207  0.4512  0.2342
 3010TIP3    H130589   4.322   6.880   5.770  0.4606  1.1310  0.0458
 3010TIP3    H230590   4.260   6.935   5.897 -2.0081 -0.6433 -0.3144
 3011TIP3   OH230591   5.443   1.229   0.046  0.0553  0.4818  0.3597
 3011TIP3    H130592   5.397   1.234  -0.038  1.5339  0.9844 -0.4702
 3011TIP3    H230593   5.500   1.306   0.046  2.0715 -0.9337  0.5778
 3012TIP3   OH230594   1.847   2.554   6.720  0.5298 -0.0306 -0.0906
 3012TIP3    H130595   1.874   2.462   6.723 -1.2813 -0.6406 -0.8701
 3012TIP3    H230596   1.827   2.576   6.811  4.0777  0.6923  0.6762
 3013TIP3   OH230597   5.269   0.946   6.882 -0.3498  0.4701 -0.1002
 3013TIP3    H130598   5.202   1.012   6.868 -1.6507 -0.3504  1.8084
 3013TIP3    H230599   5.291   0.953   6.975 -0.8630 -2.0084  0.2871
 3014TIP3   OH230600   2.606   5.580   7.824  0.4901 -0.1518  0.0824
 3014TIP3    H130601   2.615   5.505   7.882 -1.1111 -0.2277  0.2781
 3014TIP3    H230602   2.582   5.653   7.881  0.2308  0.0811 -0.3141
 3015TIP3   OH230603   5.505   1.926   6.211  0.9439 -0.2164  0.2861
 3015TIP3    H130604   5.426   1.970   6.181  0.3467 -1.5429 -0.1257
 3015TIP3    H230605   5.531   1.869   6.139  2.6861  0.6788  0.1307
 3016TIP3   OH230606   2.136   2.040   0.319 -0.3932 -0.2845  0.0548
 3016TIP3    H130607   2.144   1.945   0.304 -2.2106 -0.3862 -0.4924
 3016TIP3    H230608   2.128   2.077   0.231  0.0151  0.3536  0.2827
 3017TIP3   OH230609   3.929   3.532   7.033  0.2319  0.2467  0.3149
 3017TIP3    H130610   3.938   3.574   7.119  0.5627  0.7903  0.0203
 3017TIP3    H230611   3.989   3.458   7.036  0.5830  0.5319  0.3930
 3018TIP3   OH230612   5.360   1.331   6.282 -0.2698 -0.2196 -0.0414
 3018TIP3    H130613   5.416   1.407   6.301  0.5288 -0.2953 -1.8443
 3018TIP3    H230614   5.285   1.368   6.235 -0.6604 -0.3782  0.4528
 3019TIP3   OH230615   0.382   1.215   1.217  0.2287 -0.4401  0.0553
 3019TIP3    H130616   0.324   1.290   1.230  1.8207  0.7772  0.4102
 3019TIP3    H230617   0.455   1.230   1.278 -0.3209 -3.2752  1.5938
 3020TIP3   OH230618   3.565   7.036   7.824  0.7386  0.4736  0.2696
 3020TIP3    H130619   3.594   7.026   7.915  0.3419 -2.5111  0.1475
 3020TIP3    H230620   3.642   7.015   7.772  0.1902 -0.7774 -0.0575
 3021TIP3   OH230621   6.735   2.623   7.125 -0.3341  0.3048  0.2799
 3021TIP3    H130622   6.772   2.698   7.171  1.0723 -0.1349 -0.0715
 3021TIP3    H230623   6.642   2.641   7.120  0.2450  3.6129 -2.6668
 3022TIP3   OH230624   6.469   1.743   7.990  0.0401 -0.3487  0.2059
 3022TIP3    H130625   6.392   1.745   7.933 -0.2574 -0.7188  0.5793
 3022TIP3    H230626   6.434   1.718   8.076  0.4845  0.1659  0.5430
 3023TIP3   OH230627   4.484   4.305   7.094 -0.8770  0.3434  0.1660
 3023TIP3    H130628   4.431   4.256   7.156  1.3878 -1.8755  0.5079
 3023TIP3    H230629   4.569   4.314   7.136 -0.2409  1.6898 -1.2862
 3024TIP3   OH230630   5.605   3.979   6.377 -0.2255 -0.0608  0.0534
 3024TIP3    H130631   5.520   3.935   6.371  0.0478 -0.7750  1.1689
 3024TIP3    H230632   5.587   4.069   6.350 -1.0238 -0.5686 -1.1797
 3025TIP3   OH230633   6.611   5.190   7.359  0.1741 -0.0389  0.1793
 3025TIP3    H130634   6.638   5.099   7.349 -1.7888 -0.7457  0.8773
 3025TIP3    H230635   6.688   5.235   7.393  0.6781 -1.8010  1.4891
 3026TIP3   OH230636   0.437   2.486   0.611 -0.2981 -0.2048 -0.0068
 3026TIP3    H130637   0.440   2.578   0.586  1.3620 -0.2326  0.0257
 3026TIP3    H230638   0.403   2.486   0.700  0.2073  0.4199  0.1878
 3027TIP3   OH230639   0.188   1.215   1.580  0.5351 -0.0813 -0.3400
 3027TIP3    H130640   0.275   1.255   1.578  1.2243 -1.5194 -2.8041
 3027TIP3    H230641   0.202   1.125   1.553 -1.7929 -0.1704 -1.4588
 3028TIP3   OH230642   6.375   0.436   5.846 -0.0641  0.1034 -0.0191
 3028TIP3    H130643   6.432   0.498   5.892  0.4936  0.3443 -1.0110
 3028TIP3    H230644   6.431   0.359   5.833 -0.6374 -0.4818  0.8775
 3029TIP3   OH230645   4.370   5.086   6.255  0.0941 -0.6189  0.2274
 3029TIP3    H130646   4.458   5.072   6.220  0.1295 -0.8845  0.4203
 3029TIP3    H230647   4.329   5.148   6.194  0.7748  0.3395  0.7046
 3030TIP3   OH230648   0.913   4.565   7.614  0.2031 -0.4346 -0.3120
 3030TIP3    H130649   0.874   4.518   7.688  0.4166 -0.7652 -0.4098
 3030TIP3    H230650   0.874   4.653   7.619 -1.2760 -1.0322 -0.9771
 3031TIP3   OH230651   2.730   1.717   0.521  0.8710  0.1144 -0.2105
 3031TIP3    H130652   2.692   1.752   0.440 -0.4115  0.7581  0.6397
 3031TIP3    H230653   2.713   1.784   0.587 -0.0251 -1.2944  1.0709
 3032TIP3   OH230654   4.604   2.723   0.923  0.3746 -0.6028 -0.0142
 3032TIP3    H130655   4.621   2.661   0.852  0.9326  0.6468 -1.0343
 3032TIP3    H230656   4.643   2.805   0.892 -1.6862  0.6708  0.5621
 3033TIP3   OH230657   0.375   1.336   0.062  0.5466 -0.0042  0.2650
 3033TIP3    H130658   0.451   1.325   0.005  1.0522 -1.0572  1.1006
 3033TIP3    H230659   0.378   1.260   0.120  0.3927  1.2957  2.0533
 3034TIP3   OH230660   3.042   1.867   0.596 -0.2132  0.5978 -0.0331
 3034TIP3    H130661   3.133   1.869   0.629  0.6685 -1.7507 -2.0661
 3034TIP3    H230662   2.992   1.826   0.667  0.4827  0.9715  0.6984
 3035TIP3   OH230663   2.927   5.454   6.973 -0.0565 -0.2964 -0.1442
 3035TIP3    H130664   2.972   5.391   6.917 -0.7634 -0.9253 -0.0217
 3035TIP3    H230665   2.834   5.434   6.962 -0.2228 -0.2963  1.1029
 3036TIP3   OH230666   0.986   0.782   0.582  0.1571  0.3088 -0.7548
 3036TIP3    H130667   0.949   0.753   0.665 -0.2305 -0.9900 -1.3538
 3036TIP3    H230668   1.047   0.852   0.606  1.3794 -1.2074  0.8164
 3037TIP3   OH230669   5.205   6.702   1.111  0.3140 -0.6808 -0.0551
 3037TIP3    H130670   5.179   6.721   1.201  0.9406  0.4270 -0.0917
 3037TIP3    H230671   5.296   6.673   1.118  0.2088 -1.0826 -0.2918
 3038TIP3   OH230672   6.941   4.777   7.053  0.2429 -0.4086 -0.2969
 3038TIP3    H130673   6.884   4.834   7.002  0.4630 -0.7886 -0.9786
 3038TIP3    H230674   6.924   4.689   7.019  1.8004 -0.4449 -1.0829
 3039TIP3   OH230675   0.316   0.402   6.042 -0.3350  0.1250  0.0417
 3039TIP3    H130676   0.290   0.486   6.005  1.1012 -0.8522 -3.6685
 3039TIP3    H230677   0.303   0.339   5.971 -2.7806 -3.2004  3.0758
 3040TIP3   OH230678   4.769   1.723   0.919 -0.0861 -0.2558  0.2666
 3040TIP3    H130679   4.702   1.656   0.933 -0.5938  0.1016 -0.3603
 3040TIP3    H230680   4.745   1.794   0.978  0.7901 -0.8440  1.3635
 3041TIP3   OH230681   3.044   5.213   6.381  0.1920  0.4037  0.2885
 3041TIP3    H130682   2.950   5.199   6.369  0.2549 -0.5878  0.8517
 3041TIP3    H230683   3.053   5.307   6.396 -0.7938  0.3954  0.9840
 3042TIP3   OH230684   5.005   4.035   7.658 -0.2478 -0.5570 -1.0197
 3042TIP3    H130685   5.020   3.942   7.672  1.5095 -0.0564  0.9164
 3042TIP3    H230686   4.912   4.047   7.675 -0.3284 -1.8271 -0.4642
 3043TIP3   OH230687   3.826   0.233   7.580  0.7400 -0.8301  0.8593
 3043TIP3    H130688   3.863   0.157   7.625  0.9787 -1.1517  0.1413
 3043TIP3    H230689   3.888   0.304   7.598  1.4687 -1.2450  0.0774
 3044TIP3   OH230690   4.444   2.477   7.378 -0.2170 -0.1660  0.0709
 3044TIP3    H130691   4.537   2.469   7.397 -0.4551 -0.3477  1.2360
 3044TIP3    H230692   4.407   2.392   7.402 -0.8986  0.3764  1.0591
 3045TIP3   OH230693   6.345   6.189   7.442 -0.1171  0.1133  0.1828
 3045TIP3    H130694   6.333   6.249   7.368  0.0079  0.6386  0.5822
 3045TIP3    H230695   6.375   6.245   7.513  2.2443 -0.7576 -0.0587
 3046TIP3   OH230696   3.163   3.843   0.731  0.0802 -0.3674  0.1754
 3046TIP3    H130697   3.247   3.881   0.705 -0.3405 -0.5525 -1.6132
 3046TIP3    H230698   3.187   3.767   0.785  1.0670 -0.4252 -0.3123
 3047TIP3   OH230699   3.792   3.165   7.041  0.3220 -0.1717 -0.1548
 3047TIP3    H130700   3.867   3.129   7.088  1.8269  0.4875 -1.9272
 3047TIP3    H230701   3.771   3.099   6.974  1.0255  0.7533 -1.3319
 3048TIP3   OH230702   5.865   1.215   6.911 -0.2749 -0.0517  0.5986
 3048TIP3    H130703   5.914   1.133   6.907  0.3817  0.3898 -1.2739
 3048TIP3    H230704   5.926   1.277   6.950 -0.1957 -0.0722  0.5080
 3049TIP3   OH230705   1.950   3.775   0.311  0.2115 -0.3102  0.1836
 3049TIP3    H130706   1.942   3.869   0.298  1.6018 -0.2091 -0.1678
 3049TIP3    H230707   2.035   3.753   0.272 -0.6342 -1.9148 -0.8867
 3050TIP3   OH230708   2.620   3.022   7.037 -0.3224 -0.1259  0.4443
 3050TIP3    H130709   2.595   3.110   7.065 -1.8708 -0.2411 -0.4497
 3050TIP3    H230710   2.714   3.017   7.053 -0.1035  1.8783  0.0116
 3051TIP3   OH230711   6.223   2.936   0.642  0.4872 -0.7638  0.4701
 3051TIP3    H130712   6.134   2.940   0.609  0.9659 -0.1858 -0.8233
 3051TIP3    H230713   6.239   2.843   0.659  0.4102 -1.1857 -1.5752
 3052TIP3   OH230714   6.531   5.689   0.860 -0.5854 -0.7442 -0.0028
 3052TIP3    H130715   6.513   5.627   0.790 -1.1623 -1.2827  0.6002
 3052TIP3    H230716   6.446   5.728   0.879 -0.7803 -1.7643  1.4508
 3053TIP3   OH230717   0.979   0.147   1.418 -0.1058  0.2591 -0.0126
 3053TIP3    H130718   0.916   0.098   1.471  1.0071  0.0059  1.1470
 3053TIP3    H230719   1.060   0.095   1.423  1.0599  2.0666  1.0895
 3054TIP3   OH230720   6.576   0.888   7.323 -0.5031 -0.5120  0.6906
 3054TIP3    H130721   6.635   0.884   7.247  0.1927  1.7334  1.0376
 3054TIP3    H230722   6.505   0.827   7.301  0.6622 -1.4027 -0.8664
 3055TIP3   OH230723   3.457   2.196   5.794 -0.1280  0.2512 -0.3748
 3055TIP3    H130724   3.438   2.119   5.848 -0.5464  0.1818 -0.6112
 3055TIP3    H230725   3.534   2.236   5.835  1.3018 -1.3542 -1.3871
 3056TIP3   OH230726   0.885   1.552   7.885  0.0455 -0.2766  0.3273
 3056TIP3    H130727   0.875   1.458   7.897 -1.2560  0.0172  1.8113
 3056TIP3    H230728   0.910   1.585   7.971 -0.8099  0.8891  0.1518
 3057TIP3   OH230729   4.607   0.750   0.917 -0.3181  0.3442 -0.5241
 3057TIP3    H130730   4.668   0.701   0.972 -2.5853 -1.9450  0.1769
 3057TIP3    H230731   4.623   0.718   0.829 -0.3127 -0.0845 -0.3732
 3058TIP3   OH230732   1.249   5.942   0.371  0.3201 -0.0357 -0.1274
 3058TIP3    H130733   1.236   5.857   0.328 -0.4362 -0.0545  0.1342
 3058TIP3    H230734   1.310   5.924   0.442 -1.9098 -0.9410  1.6489
 3059TIP3   OH230735   5.483   4.518   1.529  0.6073 -0.2479 -0.2292
 3059TIP3    H130736   5.391   4.496   1.540  0.3893  1.0849  0.8981
 3059TIP3    H230737   5.514   4.538   1.617  2.2211 -1.4897 -0.4698
 3060TIP3   OH230738   6.100   6.011   6.580 -0.3640  0.1684  0.1647
 3060TIP3    H130739   6.094   5.952   6.655 -0.5025  1.5357  1.2729
 3060TIP3    H230740   6.047   6.086   6.605 -0.6610  0.5249 -1.4496
 3061TIP3   OH230741   0.947   2.881   1.377 -0.8356 -0.2038 -0.0149
 3061TIP3    H130742   1.030   2.889   1.330 -1.1818  1.5589 -0.3682
 3061TIP3    H230743   0.972   2.875   1.470 -0.3363  1.5057 -0.0187
 3062TIP3   OH230744   3.833   1.258   6.035  0.1770 -0.0070 -0.4205
 3062TIP3    H130745   3.902   1.315   5.999 -0.1076  0.6605  0.0725
 3062TIP3    H230746   3.847   1.174   5.992  0.4995  0.4833 -1.3059
 3063TIP3   OH230747   6.899   4.896   0.054  0.0800  0.1990  0.4155
 3063TIP3    H130748   6.848   4.965   0.097  0.5956  0.7824  0.1257
 3063TIP3    H230749   6.989   4.930   0.055  0.3489 -0.4938  0.2971
 3064TIP3   OH230750   0.576   6.752   8.013  0.1056  0.1308 -0.8061
 3064TIP3    H130751   0.577   6.780   7.922 -0.3800 -2.3806 -1.6827
 3064TIP3    H230752   0.642   6.683   8.018  0.2583  0.3502  0.7981
 3065TIP3   OH230753   6.082   0.821   7.316  0.1920  0.2568  0.2632
 3065TIP3    H130754   6.149   0.782   7.372 -0.5268  0.5964  1.4041
 3065TIP3    H230755   6.081   0.913   7.343 -0.2969  0.3825 -0.1869
 3066TIP3   OH230756   6.319   2.832   1.113 -0.2339  0.6526 -0.2396
 3066TIP3    H130757   6.402   2.877   1.131 -0.5947  0.6091  1.7938
 3066TIP3    H230758   6.256   2.903   1.100 -0.2084  0.7213 -0.0103
 3067TIP3   OH230759   5.666   6.622   6.843  0.4688  0.3624 -0.0322
 3067TIP3    H130760   5.603   6.665   6.901  1.5740  2.6211 -0.3782
 3067TIP3    H230761   5.624   6.622   6.757  0.8085  1.6852 -0.2226
 3068TIP3   OH230762   0.309   0.470   1.511 -0.5011 -0.1518  0.0857
 3068TIP3    H130763   0.383   0.410   1.511 -0.4981 -0.1492  0.4492
 3068TIP3    H230764   0.310   0.510   1.598 -1.0328 -0.2789  0.1546
 3069TIP3   OH230765   4.245   5.404   2.253  0.1982 -0.1083  0.0669
 3069TIP3    H130766   4.246   5.410   2.157  0.5637  0.1915  0.0845
 3069TIP3    H230767   4.336   5.418   2.278 -0.0665  0.9449  0.5113
 3070TIP3   OH230768   0.238   0.306   0.104  0.2479  0.0444  0.0122
 3070TIP3    H130769   0.303   0.330   0.039 -1.6445  2.5882 -1.1095
 3070TIP3    H230770   0.170   0.261   0.054 -0.7505  1.1207  0.3548
 3071TIP3   OH230771   5.028   3.736   5.527  0.3739  0.3194  0.1476
 3071TIP3    H130772   4.968   3.781   5.587  0.7858  1.2709 -0.1365
 3071TIP3    H230773   5.114   3.745   5.567  0.2292 -2.1429  1.2092
 3072TIP3   OH230774   6.901   3.294   7.444  0.4483 -0.7635  0.3858
 3072TIP3    H130775   6.939   3.239   7.513  1.5563 -0.0432  0.3787
 3072TIP3    H230776   6.883   3.234   7.372 -0.5764 -1.5050  1.2094
 3073TIP3   OH230777   1.712   3.802   6.764  0.6349 -0.0884  0.2653
 3073TIP3    H130778   1.727   3.806   6.859 -0.5276  0.2749  0.4454
 3073TIP3    H230779   1.800   3.791   6.727  1.2652  1.2143  1.2870
 3074TIP3   OH230780   6.475   5.500   6.469  0.1155 -0.1545 -0.0270
 3074TIP3    H130781   6.502   5.411   6.448 -0.0353 -0.4189  0.8529
 3074TIP3    H230782   6.433   5.532   6.389  3.2979  0.4420 -1.5955
 3075TIP3   OH230783   1.325   0.003   7.501 -0.1504 -0.5769 -0.2350
 3075TIP3    H130784   1.418   0.021   7.489 -0.1061  0.1613  1.0141
 3075TIP3    H230785   1.284   0.031   7.419  0.4614  1.2832  0.0461
 3076TIP3   OH230786   0.979   0.408   0.025 -0.2067 -0.1891  0.5481
 3076TIP3    H130787   0.995   0.402   0.119 -0.3829 -0.5703  0.5538
 3076TIP3    H230788   1.059   0.372  -0.016  0.2819  0.8694  0.5330
 3077TIP3   OH230789   3.479   2.000   1.170 -0.3184 -0.2865 -0.5082
 3077TIP3    H130790   3.574   2.010   1.159 -0.1631  0.1480  0.9922
 3077TIP3    H230791   3.468   1.907   1.190 -0.3980 -0.6542 -2.0904
 3078TIP3   OH230792   2.177   4.946   7.881  0.7525 -0.2817  0.3653
 3078TIP3    H130793   2.115   4.989   7.822  0.4055  0.6939  1.3783
 3078TIP3    H230794   2.155   4.982   7.968  1.5572 -1.2900  1.0073
 3079TIP3   OH230795   1.838   3.566   1.185  0.2437  0.4047  0.4463
 3079TIP3    H130796   1.926   3.566   1.221  1.2079 -1.5116 -1.7024
 3079TIP3    H230797   1.849   3.538   1.094 -2.3539  2.1724 -0.5380
 3080TIP3   OH230798   6.787   3.940   1.408 -0.0861  0.5290 -0.4344
 3080TIP3    H130799   6.754   3.880   1.475 -0.1173  1.6076  0.5507
 3080TIP3    H230800   6.710   3.960   1.354 -0.1411 -0.0596 -0.5850
 3081TIP3   OH230801   1.040   5.714   1.292 -0.5056 -0.6167  0.0690
 3081TIP3    H130802   0.984   5.695   1.367  1.5170 -0.8190  1.6229
 3081TIP3    H230803   1.080   5.630   1.269 -0.9173 -0.5116 -1.1098
 3082TIP3   OH230804   1.104   3.243   7.242  0.0902  0.1692 -0.3540
 3082TIP3    H130805   1.159   3.166   7.252 -0.7606 -0.2511  1.6064
 3082TIP3    H230806   1.166   3.317   7.239  0.8342 -0.4545 -0.7257
 3083TIP3   OH230807   5.728   3.962   0.889 -0.3375 -0.4439  0.3139
 3083TIP3    H130808   5.702   4.048   0.922  0.5119  0.6936 -1.8244
 3083TIP3    H230809   5.817   3.949   0.922 -0.5177 -0.5950  0.7539
 3084TIP3   OH230810   2.908   4.049   1.636  0.3792 -0.1656 -0.2034
 3084TIP3    H130811   2.938   4.017   1.721  1.1316  0.0111 -0.3955
 3084TIP3    H230812   2.856   4.127   1.657 -0.7065 -0.9634  0.1955
 3085TIP3   OH230813   4.759   6.054   1.645 -0.9595  0.0844  0.4590
 3085TIP3    H130814   4.784   6.083   1.557 -1.1259  2.3778  1.0979
 3085TIP3    H230815   4.841   6.031   1.687 -0.5869  1.3238  0.4546
 3086TIP3   OH230816   0.887   6.916   7.885 -0.2715 -0.1431 -0.2690
 3086TIP3    H130817   0.947   6.980   7.848  0.2073  0.9202  2.1972
 3086TIP3    H230818   0.830   6.966   7.943 -1.2955 -1.6419  0.0902
 3087TIP3   OH230819   5.749   3.756   7.488 -0.5812  0.2161 -0.7305
 3087TIP3    H130820   5.807   3.789   7.557 -0.8070 -1.0154  0.0953
 3087TIP3    H230821   5.716   3.673   7.523 -2.8574  0.8729 -1.1610
 3088TIP3   OH230822   2.663   1.917   6.945  0.4031  0.0614 -0.2777
 3088TIP3    H130823   2.749   1.914   6.904  1.5355  0.6734  1.9230
 3088TIP3    H230824   2.678   1.893   7.036 -1.1024  3.3869  1.0486
 3089TIP3   OH230825   5.825   6.406   7.828 -0.2817 -0.5116  0.2225
 3089TIP3    H130826   5.846   6.352   7.751  0.8826  1.2160 -0.7427
 3089TIP3    H230827   5.907   6.410   7.877 -0.4662  0.0706  0.4857
 3090TIP3   OH230828   1.313   3.639   6.607  0.5037  0.0892 -0.9195
 3090TIP3    H130829   1.353   3.557   6.637  0.9503  0.2604 -1.0394
 3090TIP3    H230830   1.362   3.662   6.528 -0.2396 -0.0176 -1.4203
 3091TIP3   OH230831   1.899   1.903   1.339 -0.8299 -0.2007 -0.8122
 3091TIP3    H130832   1.971   1.950   1.297 -1.0940 -0.4656 -1.5741
 3091TIP3    H230833   1.912   1.919   1.433  0.5682 -0.7503 -0.8917
 3092TIP3   OH230834   2.436   6.050   7.100  0.1772 -0.3367  0.4205
 3092TIP3    H130835   2.413   5.966   7.060 -0.0421 -0.3669  0.6116
 3092TIP3    H230836   2.494   6.027   7.172  0.7479 -0.2671 -0.0062
 3093TIP3   OH230837   0.273   5.720   6.677  0.0780  0.0914  0.5057
 3093TIP3    H130838   0.224   5.802   6.679 -2.1396 -1.1615  0.3677
 3093TIP3    H230839   0.299   5.710   6.585 -0.4831  0.1831  0.3337
 3094TIP3   OH230840   0.819   4.189   7.489  0.0518  0.7248 -0.4032
 3094TIP3    H130841   0.863   4.203   7.573  0.5614  0.6123 -0.6479
 3094TIP3    H230842   0.753   4.258   7.485  0.9210  1.5690 -0.5095
 3095TIP3   OH230843   0.027   4.985   0.117 -0.1438  0.0215 -0.6422
 3095TIP3    H130844   0.091   4.919   0.145 -1.7860 -1.4548 -0.1784
 3095TIP3    H230845  -0.014   5.014   0.199 -2.1922 -1.3705 -1.0949
 3096TIP3   OH230846   3.668   1.182   0.233 -0.1535 -0.1364  0.1165
 3096TIP3    H130847   3.679   1.113   0.168  2.0683  0.7121 -0.5092
 3096TIP3    H230848   3.579   1.214   0.219  0.0829 -0.3120 -2.2313
 3097TIP3   OH230849   1.516   2.369   0.754 -0.4729  0.3301  0.4911
 3097TIP3    H130850   1.431   2.361   0.797 -0.6534  2.3385  0.6077
 3097TIP3    H230851   1.543   2.459   0.772  0.5885  0.4634 -1.5267
 3098TIP3   OH230852   2.594   2.798   0.234 -0.0261  0.3532  0.2333
 3098TIP3    H130853   2.607   2.808   0.329 -1.0971  0.3573  0.3981
 3098TIP3    H230854   2.527   2.731   0.226  1.2804 -0.9159 -0.6052
 3099TIP3   OH230855   6.408   6.901   6.954  0.2766  0.2544  0.1104
 3099TIP3    H130856   6.331   6.861   6.913  0.7569 -1.0670  0.4579
 3099TIP3    H230857   6.469   6.913   6.881 -0.2607  1.3961 -0.1845
 3100TIP3   OH230858   3.918   5.521   7.148  0.3173 -0.1850 -0.0084
 3100TIP3    H130859   3.883   5.608   7.167  1.6310  0.2494  0.5067
 3100TIP3    H230860   4.006   5.536   7.116  0.1419 -1.2770 -1.0801
 3101TIP3   OH230861   1.780   1.436   1.934 -0.2731  0.1458  0.4616
 3101TIP3    H130862   1.750   1.347   1.910  1.2103 -0.4371  0.6860
 3101TIP3    H230863   1.875   1.434   1.920 -0.0217  1.2773  1.8263
 3102TIP3   OH230864   5.658   4.156   7.626 -0.3378 -0.5824  0.5141
 3102TIP3    H130865   5.635   4.216   7.555  0.1952  0.0307  0.8503
 3102TIP3    H230866   5.583   4.096   7.632 -2.2132  1.7668  2.0692
 3103TIP3   OH230867   5.934   1.334   0.813  0.4502  0.1950  0.1591
 3103TIP3    H130868   6.017   1.368   0.781  1.0479 -1.3650 -0.0453
 3103TIP3    H230869   5.879   1.326   0.735  0.7645 -0.4940 -0.0044
 3104TIP3   OH230870   5.702   2.939   6.346 -0.3253  0.0007  0.2821
 3104TIP3    H130871   5.685   2.848   6.321  0.0300 -0.5740  1.9644
 3104TIP3    H230872   5.757   2.931   6.424  0.2366  1.6817  0.0825
 3105TIP3   OH230873   0.999   3.927   6.993 -0.1397  0.1071  0.1884
 3105TIP3    H130874   0.928   3.910   6.930 -0.7095 -1.3948  1.1852
 3105TIP3    H230875   1.069   3.868   6.966  0.4314  0.9791 -0.2805
 3106TIP3   OH230876   4.597   6.917   6.328 -0.2200  0.1405 -0.0759
 3106TIP3    H130877   4.514   6.874   6.349  0.6688 -1.0969  1.1200
 3106TIP3    H230878   4.582   7.009   6.348 -1.8984  0.2892 -1.8103
 3107TIP3   OH230879   4.104   2.323   6.875 -0.1936 -0.0000 -0.6380
 3107TIP3    H130880   4.064   2.363   6.953 -1.4288  0.2226 -1.3693
 3107TIP3    H230881   4.152   2.247   6.909  0.2314  0.7356  0.4722
 3108TIP3   OH230882   2.283   3.250   1.210 -0.6903  0.5103 -0.1187
 3108TIP3    H130883   2.223   3.218   1.277 -1.1656  1.3115 -0.1469
 3108TIP3    H230884   2.346   3.304   1.257 -0.2911  0.0870 -0.1593
 3109TIP3   OH230885   0.895   1.416   6.868 -0.4050  0.1991  0.6024
 3109TIP3    H130886   0.940   1.452   6.791 -0.9132  0.8700  0.6081
 3109TIP3    H230887   0.810   1.387   6.835 -1.1240  1.6161  1.1053
 3110TIP3   OH230888   6.296   1.356   6.616  0.0145 -0.0757  0.3524
 3110TIP3    H130889   6.237   1.390   6.683 -1.2164  1.7415 -1.5292
 3110TIP3    H230890   6.294   1.261   6.627 -1.5246  0.0906  1.7537
 3111TIP3   OH230891   5.291   3.225   6.760  0.2487  0.6479 -0.1141
 3111TIP3    H130892   5.250   3.139   6.775 -1.5978  1.1690 -1.7691
 3111TIP3    H230893   5.383   3.205   6.744 -0.0050 -0.9531  0.1943
 3112TIP3   OH230894   2.048   4.849   0.647  0.1678 -0.3917 -0.2544
 3112TIP3    H130895   2.020   4.802   0.725 -0.0102 -0.5707 -0.4237
 3112TIP3    H230896   2.135   4.814   0.627  1.2558  1.3316  1.2232
 3113TIP3   OH230897   2.964   1.317   6.875 -0.2197  0.1615  0.1927
 3113TIP3    H130898   2.969   1.293   6.967  0.4618  0.6190  0.2774
 3113TIP3    H230899   2.912   1.398   6.874  2.8292  2.3090  0.6164
 3114TIP3   OH230900   2.663   0.204   6.920  0.7174 -0.1700 -0.5933
 3114TIP3    H130901   2.745   0.218   6.873  1.2545  0.0756  0.3811
 3114TIP3    H230902   2.669   0.114   6.953  1.2548  0.3055  0.6807
 3115TIP3   OH230903   6.980   2.858   8.011 -0.2496  0.4194 -0.1361
 3115TIP3    H130904   6.950   2.769   7.996 -0.1350  0.7115 -2.4119
 3115TIP3    H230905   7.061   2.866   7.960  0.0781  1.6504  0.5157
 3116TIP3   OH230906   0.077   2.719   0.164 -0.1732  0.1247  0.3466
 3116TIP3    H130907  -0.014   2.734   0.188 -0.4055 -2.0439  1.0294
 3116TIP3    H230908   0.104   2.645   0.218  1.7711  0.2167 -0.4212
 3117TIP3   OH230909   4.363   0.055   0.679 -0.2526 -0.2450 -0.3613
 3117TIP3    H130910   4.423   0.081   0.748 -0.9781  0.0886  0.1641
 3117TIP3    H230911   4.397  -0.029   0.647  0.1848 -0.3189  0.2878
 3118TIP3   OH230912   3.957   3.264   5.832 -0.2147  0.5248 -0.0596
 3118TIP3    H130913   4.031   3.206   5.849 -0.0687 -0.2299 -2.7798
 3118TIP3    H230914   3.996   3.347   5.806 -0.3085  0.4167 -0.5690
 3119TIP3   OH230915   1.434   1.342   6.919  0.3791  0.0472 -0.1658
 3119TIP3    H130916   1.500   1.290   6.873 -1.4058 -0.8487 -1.8524
 3119TIP3    H230917   1.392   1.395   6.851 -0.4275  0.8368  0.9000
 3120TIP3   OH230918   1.361   0.287   6.773  0.2985  0.3737  0.0209
 3120TIP3    H130919   1.401   0.271   6.687  0.9965  0.3258  0.3485
 3120TIP3    H230920   1.274   0.320   6.752 -0.1021 -1.0368 -0.6904
 3121TIP3   OH230921   6.917   6.496   6.560 -0.2541  0.8674 -0.2044
 3121TIP3    H130922   6.957   6.558   6.622  0.2022  2.0942 -1.6723
 3121TIP3    H230923   6.825   6.524   6.554 -0.3503  0.6157  0.0613
 3122TIP3   OH230924   3.043   4.324   1.464 -0.2097  0.3461 -0.6261
 3122TIP3    H130925   3.028   4.359   1.376  1.1803 -0.3438 -1.1673
 3122TIP3    H230926   3.056   4.230   1.451  0.5508  0.3126  0.2334
 3123TIP3   OH230927   6.027   0.819   0.827 -1.0284  0.0409 -0.5732
 3123TIP3    H130928   6.088   0.857   0.763  0.3020 -1.2789 -0.1427
 3123TIP3    H230929   6.082   0.764   0.882 -2.1428  1.1159  1.7267
 3124TIP3   OH230930   6.467   0.394   1.639  0.1780  0.3037 -0.5248
 3124TIP3    H130931   6.546   0.428   1.596 -0.3878  1.2210 -0.8762
 3124TIP3    H230932   6.407   0.469   1.641 -0.6061 -0.3204 -0.0657
 3125TIP3   OH230933   1.553   1.015   1.935 -0.3112  0.0396 -0.3584
 3125TIP3    H130934   1.596   0.960   2.002  2.1592  1.2928 -0.7910
 3125TIP3    H230935   1.481   1.057   1.981  0.6514  0.0264  1.2412
 3126TIP3   OH230936   1.515   1.747   0.057  0.0572 -0.5290  0.6724
 3126TIP3    H130937   1.500   1.653   0.044 -0.7656 -0.4705  1.1324
 3126TIP3    H230938   1.429   1.783   0.077  0.2344  0.4704 -0.2769
 3127TIP3   OH230939   5.187   2.430   1.084  0.6883 -0.7955  0.1698
 3127TIP3    H130940   5.142   2.347   1.094  0.8493 -0.6883  2.2177
 3127TIP3    H230941   5.121   2.490   1.049  0.4266 -1.6411 -0.8093
 3128TIP3   OH230942   1.085   1.243   0.632 -0.1113  0.1646  0.1115
 3128TIP3    H130943   1.081   1.314   0.696  1.6863  0.5223 -0.1115
 3128TIP3    H230944   1.012   1.259   0.573 -3.3232 -1.4764  3.2816
 3129TIP3   OH230945   0.346   1.497   1.329 -0.0981 -0.5706  0.2179
 3129TIP3    H130946   0.379   1.586   1.315 -1.6721 -0.2725 -2.0836
 3129TIP3    H230947   0.392   1.467   1.408  3.3534  0.8764 -1.0119
 3130TIP3   OH230948   1.529   2.200   0.258  0.3966 -0.2488 -0.4557
 3130TIP3    H130949   1.606   2.227   0.307 -0.1828  0.6119  0.0078
 3130TIP3    H230950   1.465   2.176   0.325 -0.1446  0.2150 -0.8003
 3131TIP3   OH230951   4.672   0.846   7.765 -0.2630 -0.0061  0.3663
 3131TIP3    H130952   4.617   0.917   7.732 -2.4315 -1.8047 -0.1621
 3131TIP3    H230953   4.641   0.831   7.854  0.7321  0.1866  0.7606
 3132TIP3   OH230954   2.687   7.099   7.011  0.5960  0.2397  0.9065
 3132TIP3    H130955   2.699   7.063   6.924 -0.1201  2.0668 -0.0100
 3132TIP3    H230956   2.652   7.027   7.063 -2.4812 -0.0059 -1.2540
 3133TIP3   OH230957   0.741   4.397   7.789  0.1925 -0.4285  0.3041
 3133TIP3    H130958   0.646   4.406   7.795  0.2429 -0.0442  0.6007
 3133TIP3    H230959   0.756   4.302   7.795 -0.2589 -0.6264 -1.2499
 3134TIP3   OH230960   5.654   0.344   0.665  0.0011  0.7526  0.7562
 3134TIP3    H130961   5.719   0.402   0.703  0.7655  1.2182 -1.1536
 3134TIP3    H230962   5.572   0.393   0.670  0.3260  1.3110  0.6605
 3135TIP3   OH230963   1.928   5.930   6.150 -0.4155  0.1057 -0.1814
 3135TIP3    H130964   1.839   5.896   6.140 -0.1936 -0.2371 -1.1485
 3135TIP3    H230965   1.930   5.971   6.236 -0.9161 -1.6974  0.7187
 3136TIP3   OH230966   3.578   5.320   7.775  0.3115  0.1091  0.1238
 3136TIP3    H130967   3.673   5.336   7.775  0.4377 -0.4615 -1.4598
 3136TIP3    H230968   3.546   5.369   7.699 -0.6645  0.2377  0.6043
 3137TIP3   OH230969   2.137   6.112   5.840  0.1606  0.3107  0.2467
 3137TIP3    H130970   2.122   6.189   5.786  0.0529 -1.5142 -2.5187
 3137TIP3    H230971   2.195   6.057   5.788 -0.3356 -1.8005  1.7904
 3138TIP3   OH230972   5.567   2.702   6.566  0.1865 -0.6645  0.0112
 3138TIP3    H130973   5.650   2.726   6.526  0.1264  0.2464  0.4173
 3138TIP3    H230974   5.580   2.716   6.660 -0.1067 -1.4882  0.1856
 3139TIP3   OH230975   0.335   2.626   6.776  0.1416 -0.4753 -0.1762
 3139TIP3    H130976   0.318   2.538   6.809  1.5974 -0.4035  0.8830
 3139TIP3    H230977   0.294   2.629   6.690  0.3526 -2.3068 -0.3661
 3140TIP3   OH230978   3.739   1.560   0.061 -0.1847  0.0239 -0.5859
 3140TIP3    H130979   3.747   1.467   0.081  2.9363  0.6546  1.8887
 3140TIP3    H230980   3.673   1.592   0.122 -0.3238 -0.3600 -0.5316
 3141TIP3   OH230981   5.924   2.144   7.220 -0.4630  0.1519  0.3274
 3141TIP3    H130982   5.861   2.133   7.150 -0.2040 -0.3459  0.1656
 3141TIP3    H230983   5.874   2.129   7.300 -0.4868 -0.5830  0.1853
 3142TIP3   OH230984   4.563   4.018   7.485  0.1004 -0.9352  0.3114
 3142TIP3    H130985   4.521   3.947   7.436 -0.3381 -0.9266  0.6739
 3142TIP3    H230986   4.594   3.977   7.565 -0.9338 -0.5498  0.9319
 3143TIP3   OH230987   3.236   0.485   0.807 -0.4920 -0.3065 -0.1154
 3143TIP3    H130988   3.195   0.560   0.851 -1.8299 -1.2840  0.3853
 3143TIP3    H230989   3.280   0.523   0.731 -1.9909  0.8746 -0.4547
 3144TIP3   OH230990   3.095   6.137   1.861  0.3722 -0.0168 -0.0924
 3144TIP3    H130991   3.002   6.155   1.857  0.3900  0.0110 -0.4130
 3144TIP3    H230992   3.117   6.144   1.954 -0.7705 -4.0273  0.6816
 3145TIP3   OH230993   5.292   5.390   0.126 -0.1552 -0.0533  0.9504
 3145TIP3    H130994   5.213   5.341   0.103  1.2163 -2.0707  0.2940
 3145TIP3    H230995   5.281   5.475   0.082 -0.8607 -1.2155 -1.2800
 3146TIP3   OH230996   4.003   1.428   6.409 -0.3783  0.0691  0.0238
 3146TIP3    H130997   4.015   1.504   6.352 -1.0109  0.2893  0.1715
 3146TIP3    H230998   4.030   1.354   6.355  1.6039  0.5066  0.3588
 3147TIP3   OH230999   4.383   4.898   1.793 -0.0197  0.4419  0.0348
 3147TIP3    H131000   4.347   4.964   1.852 -1.1550  0.2992 -0.4713
 3147TIP3    H231001   4.381   4.816   1.844 -1.5854  0.1940 -0.3760
 3148TIP3   OH231002   0.464   1.664   0.677 -0.5106  0.1243  0.1056
 3148TIP3    H131003   0.500   1.687   0.763  0.4599 -0.4395 -0.1288
 3148TIP3    H231004   0.380   1.623   0.697 -0.5809  0.5585  0.7412
 3149TIP3   OH231005   5.540   3.819   0.255  0.6118 -0.3026 -0.1095
 3149TIP3    H131006   5.461   3.777   0.288 -1.3022  1.5049 -2.0601
 3149TIP3    H231007   5.610   3.786   0.311 -1.5995 -1.3784  2.2129
 3150TIP3   OH231008   3.433   6.210   5.601  0.4899 -0.0175  0.0258
 3150TIP3    H131009   3.427   6.130   5.653 -0.1316 -0.1095 -0.1747
 3150TIP3    H231010   3.491   6.267   5.651 -0.9561  0.3288  1.4024
 3151TIP3   OH231011   6.873   6.213   7.485  0.6641 -0.5911 -0.2234
 3151TIP3    H131012   6.940   6.273   7.519  0.1312 -0.7341  1.1518
 3151TIP3    H231013   6.811   6.270   7.440 -0.1980  0.0440  1.6434
 3152TIP3   OH231014   0.319   6.885   1.228 -0.0859 -0.2314 -0.4863
 3152TIP3    H131015   0.305   6.978   1.244 -0.9451 -0.4523  0.0704
 3152TIP3    H231016   0.268   6.866   1.149  0.0811 -0.2331 -0.5942
 3153TIP3   OH231017   0.835   4.149   7.014 -0.5428  0.4509 -0.1079
 3153TIP3    H131018   0.761   4.125   7.069 -0.1839 -1.0708 -0.2594
 3153TIP3    H231019   0.897   4.077   7.024  0.0408  0.7127 -1.5843
 3154TIP3   OH231020   2.112   1.782   0.740 -0.3443  0.7491 -0.3094
 3154TIP3    H131021   2.017   1.792   0.750 -0.4690  0.9956 -1.6279
 3154TIP3    H231022   2.135   1.711   0.800 -1.6794 -0.7448 -1.5123
 3155TIP3   OH231023   6.779   0.687   5.746  0.0732 -0.2667  0.7659
 3155TIP3    H131024   6.785   0.767   5.799 -1.7596 -0.6333  1.6233
 3155TIP3    H231025   6.772   0.718   5.656 -1.0506  0.5956  1.1196
 3156TIP3   OH231026   3.260   4.599   6.899 -0.2877  0.4670 -0.6311
 3156TIP3    H131027   3.169   4.581   6.876 -0.0686 -0.3110 -0.9092
 3156TIP3    H231028   3.311   4.535   6.850  0.3326  0.1368  0.4136
 3157TIP3   OH231029   2.554   6.617   6.106  0.5583  0.3842  0.5623
 3157TIP3    H131030   2.618   6.615   6.177  0.3065 -0.5051  0.7768
 3157TIP3    H231031   2.607   6.622   6.026  0.9818 -1.4628  0.6677
 3158TIP3   OH231032   2.650   5.194   6.101  0.3160  0.3295 -0.1613
 3158TIP3    H131033   2.619   5.105   6.085 -1.7537  1.0130 -0.2693
 3158TIP3    H231034   2.687   5.222   6.017  0.5167 -0.2355 -0.2686
 3159TIP3   OH231035   2.174   3.810   7.450  0.2400  0.5242  0.5045
 3159TIP3    H131036   2.180   3.817   7.354  0.7437  1.9118  0.6170
 3159TIP3    H231037   2.122   3.885   7.476  1.0510  0.7824  1.4122
 3160TIP3   OH231038   4.606   3.394   0.896  0.2948 -0.0494  1.1051
 3160TIP3    H131039   4.615   3.475   0.945  1.1310  0.6011 -0.0720
 3160TIP3    H231040   4.583   3.422   0.808  0.8023 -1.0733  0.6323
 3161TIP3   OH231041   6.426   4.112   7.408 -0.0937  0.3634 -0.5171
 3161TIP3    H131042   6.436   4.017   7.402 -2.5021  0.0809 -0.7153
 3161TIP3    H231043   6.418   4.141   7.317  2.7347  1.1001 -0.6312
 3162TIP3   OH231044   1.937   5.506   1.421  0.6854  0.2700 -0.4001
 3162TIP3    H131045   1.931   5.579   1.359  2.0784 -1.7649 -3.1179
 3162TIP3    H231046   1.866   5.447   1.396  1.5911 -0.8322 -0.4356
 3163TIP3   OH231047   6.476   0.345   7.639 -0.2875 -0.3916 -0.1226
 3163TIP3    H131048   6.502   0.381   7.724  1.3861 -2.1815  0.1896
 3163TIP3    H231049   6.404   0.285   7.660 -0.4198 -0.2220 -0.0885
 3164TIP3   OH231050   1.490   2.517   2.270  0.9056 -0.2239 -0.2793
 3164TIP3    H131051   1.396   2.501   2.262  0.5404  0.5183  1.8271
 3164TIP3    H231052   1.498   2.612   2.270  1.6528 -0.2849 -0.3875
 3165TIP3   OH231053   5.784   1.073   5.792 -0.1227 -0.2256  0.3221
 3165TIP3    H131054   5.794   0.980   5.813 -1.1493 -0.4697 -0.1905
 3165TIP3    H231055   5.702   1.077   5.742  1.6574  0.4485 -2.7477
 3166TIP3   OH231056   5.821   5.801   0.010 -0.0590  0.3344 -0.2830
 3166TIP3    H131057   5.781   5.860   0.074  0.2724  0.2175  0.0375
 3166TIP3    H231058   5.869   5.738   0.063  1.3767  1.0509 -0.6688
 3167TIP3   OH231059   5.259   6.360   1.324  0.3555 -0.2213 -0.4827
 3167TIP3    H131060   5.253   6.416   1.402  1.3303  1.2615 -1.4207
 3167TIP3    H231061   5.341   6.313   1.335  1.0239  0.7649 -1.0649
 3168TIP3   OH231062   0.930   0.197   6.257 -0.0399  0.3446  0.0310
 3168TIP3    H131063   0.921   0.113   6.300  1.0870  0.0616 -0.2370
 3168TIP3    H231064   0.892   0.183   6.170  0.1298  0.1150 -0.0078
 3169TIP3   OH231065   4.745   2.706   1.840 -0.4342  0.7202  0.5312
 3169TIP3    H131066   4.806   2.645   1.799 -1.1798  0.3254 -0.0294
 3169TIP3    H231067   4.800   2.774   1.878  0.3762  0.0296  0.6059
 3170TIP3   OH231068   3.728   3.385   6.848  0.0616  0.5996  0.1693
 3170TIP3    H131069   3.670   3.459   6.828  1.1473  1.2243 -0.8490
 3170TIP3    H231070   3.779   3.415   6.923  0.0352  0.6323  0.1740
 3171TIP3   OH231071   6.940   5.441   6.275 -0.1435 -0.2239 -0.0248
 3171TIP3    H131072   6.921   5.534   6.263  0.7108  0.0192  0.4287
 3171TIP3    H231073   6.975   5.434   6.364  2.2578 -0.5514 -0.9107
 3172TIP3   OH231074   6.980   2.508   7.749 -0.6587 -0.4464  0.1473
 3172TIP3    H131075   6.990   2.528   7.842  1.7636  0.0919 -0.1368
 3172TIP3    H231076   7.040   2.435   7.734 -0.4751 -0.0684 -1.0953
 3173TIP3   OH231077   1.654   2.884   0.717 -0.1554 -0.3148  0.0621
 3173TIP3    H131078   1.742   2.866   0.682 -0.8442  0.8353 -2.5241
 3173TIP3    H231079   1.668   2.944   0.790  1.1456  1.2180 -1.3851
 3174TIP3   OH231080   1.921   3.784   6.952 -0.5151  0.9298  0.2035
 3174TIP3    H131081   1.940   3.691   6.949  0.2229  1.0964 -0.5680
 3174TIP3    H231082   1.941   3.810   7.042  0.7030  0.6285  0.0334
 3175TIP3   OH231083   6.600   5.938   6.393 -0.1158 -0.0186 -0.4428
 3175TIP3    H131084   6.605   6.011   6.331  0.1129 -0.4893 -0.9758
 3175TIP3    H231085   6.515   5.949   6.436 -1.2697 -0.9616 -2.3845
 3176TIP3   OH231086   1.896   5.147   0.297  0.3481 -0.0907  0.1005
 3176TIP3    H131087   1.896   5.241   0.279 -2.6914  0.0985  0.5654
 3176TIP3    H231088   1.925   5.139   0.388 -1.4404  0.6664  0.7798
 3177TIP3   OH231089   5.298   2.488   7.957 -0.0247 -0.1753 -0.0994
 3177TIP3    H131090   5.341   2.508   8.040 -0.8681  1.7036 -0.0624
 3177TIP3    H231091   5.357   2.526   7.891 -0.4845  0.3984 -0.1890
 3178TIP3   OH231092   6.046   4.275   1.547 -0.0464 -0.1439 -0.5001
 3178TIP3    H131093   6.116   4.330   1.511 -0.5102 -1.1063 -3.1289
 3178TIP3    H231094   5.966   4.308   1.504 -0.8449 -0.6347  0.5785
 3179TIP3   OH231095   4.600   3.887   6.254  0.2860  0.1428 -0.3994
 3179TIP3    H131096   4.536   3.953   6.280  0.0970  0.4220 -1.5116
 3179TIP3    H231097   4.662   3.884   6.327  0.0100  1.1787 -0.1009
 3180TIP3   OH231098   4.170   3.857   0.419  0.5891 -0.0739 -0.7015
 3180TIP3    H131099   4.139   3.864   0.329  2.2532 -4.2388 -1.8388
 3180TIP3    H231100   4.264   3.877   0.414  0.2730  2.0812  0.6845
 3181TIP3   OH231101   4.701   4.917   7.765 -0.1686 -0.4759  0.4045
 3181TIP3    H131102   4.626   4.978   7.772 -0.1474 -0.4836  0.7055
 3181TIP3    H231103   4.696   4.864   7.845 -0.4567 -1.1854 -0.0745
 3182TIP3   OH231104   6.514   3.867   1.349  0.2262 -0.1842  0.0364
 3182TIP3    H131105   6.444   3.883   1.412  1.7652 -1.0041  2.1084
 3182TIP3    H231106   6.518   3.772   1.340  0.9828 -0.1442 -0.1413
 3183TIP3   OH231107   3.648   5.598   1.563 -0.4745  0.2320  0.3583
 3183TIP3    H131108   3.610   5.510   1.561  1.0807 -0.4808  0.5728
 3183TIP3    H231109   3.697   5.601   1.644 -1.9230  1.9764  1.2507
 3184TIP3   OH231110   4.791   3.634   1.802  0.0131 -0.1350 -1.2297
 3184TIP3    H131111   4.806   3.548   1.839 -2.3913  0.2218  0.8163
 3184TIP3    H231112   4.845   3.693   1.854 -1.4488  0.0478  0.1430
 3185TIP3   OH231113   2.286   0.583   0.630 -0.3908 -0.7800 -0.7086
 3185TIP3    H131114   2.245   0.497   0.630 -1.6091 -0.2691  1.0243
 3185TIP3    H231115   2.379   0.566   0.612 -0.3837 -2.5974  0.7560
 3186TIP3   OH231116   3.141   6.486   6.287  0.8193 -0.3951 -0.0082
 3186TIP3    H131117   3.212   6.548   6.299  1.8322 -1.4179 -0.4964
 3186TIP3    H231118   3.098   6.482   6.373  1.3496  0.2275  0.2929
 3187TIP3   OH231119   3.037   0.615   0.422 -0.4335 -0.1959 -0.0103
 3187TIP3    H131120   3.046   0.659   0.506  0.7005  0.5735 -0.5104
 3187TIP3    H231121   3.127   0.589   0.399 -0.7335 -0.4393 -0.9503
 3188TIP3   OH231122   0.796   0.773   0.847  0.2779 -0.1988 -0.0620
 3188TIP3    H131123   0.850   0.852   0.843  1.3345 -0.8446  0.7027
 3188TIP3    H231124   0.848   0.712   0.899 -1.7600 -0.4175  1.8623
 3189TIP3   OH231125   2.183   1.243   0.760  0.3123 -0.4142  0.6291
 3189TIP3    H131126   2.278   1.259   0.762  0.3064 -0.4741  1.3673
 3189TIP3    H231127   2.160   1.253   0.667  1.0714 -0.5744  0.4108
 3190TIP3   OH231128   6.201   5.866   7.211  0.0968 -0.1388  0.1112
 3190TIP3    H131129   6.210   5.952   7.171 -1.5378  0.1529  0.3211
 3190TIP3    H231130   6.124   5.873   7.267  0.6501 -1.3871  1.0904
 3191TIP3   OH231131   1.331   5.207   0.275 -0.0827 -0.5835 -0.2339
 3191TIP3    H131132   1.366   5.190   0.188  0.9762 -0.2856  0.1189
 3191TIP3    H231133   1.265   5.275   0.262  0.8208  0.2319 -0.6650
 3192TIP3   OH231134   5.609   3.106   0.951  0.0844  0.4954  0.4103
 3192TIP3    H131135   5.618   3.055   0.870 -0.1703  1.1744 -0.0600
 3192TIP3    H231136   5.515   3.122   0.959  0.0818  0.1696  1.0069
 3193TIP3   OH231137   1.862   4.857   6.195 -0.3294 -0.6211 -0.0757
 3193TIP3    H131138   1.817   4.817   6.121 -0.1637  0.0530 -0.5527
 3193TIP3    H231139   1.912   4.785   6.234  0.1413 -0.8370 -1.0515
 3194TIP3   OH231140   4.333   0.488   0.778  0.1407 -0.3923  0.0339
 3194TIP3    H131141   4.265   0.420   0.778  0.2280 -0.4870  0.6218
 3194TIP3    H231142   4.286   0.569   0.760 -0.2212 -0.3755  1.0034
 3195TIP3   OH231143   3.681   5.090   5.643  0.4458 -0.0623  0.1504
 3195TIP3    H131144   3.764   5.107   5.686  1.2687 -0.4277 -1.2364
 3195TIP3    H231145   3.618   5.145   5.689  1.1655 -0.8614  2.1620
 3196TIP3   OH231146   3.196   6.540   1.411  0.3572 -0.0409  0.5055
 3196TIP3    H131147   3.156   6.529   1.497  0.2475  0.9232  0.5914
 3196TIP3    H231148   3.172   6.461   1.363 -0.5874 -0.0535  0.9728
 3197TIP3   OH231149   2.836   6.414   6.723 -0.1006  0.1501 -0.5599
 3197TIP3    H131150   2.791   6.432   6.806  1.7598 -1.5987  0.9507
 3197TIP3    H231151   2.765   6.402   6.660 -1.6061  1.0097  0.8765
 3198TIP3   OH231152   1.666   1.795   6.797 -0.1027 -0.0919 -0.0257
 3198TIP3    H131153   1.738   1.779   6.857  0.3242  0.1977 -0.4495
 3198TIP3    H231154   1.588   1.797   6.853  0.2625 -0.0160  0.4918
 3199TIP3   OH231155   5.705   5.383   1.857  0.4001 -0.0029  0.1656
 3199TIP3    H131156   5.621   5.339   1.846  0.1008  0.9884 -1.9561
 3199TIP3    H231157   5.686   5.458   1.913 -0.4288  0.9101 -1.2942
 3200TIP3   OH231158   5.206   2.930   7.575 -0.2229  0.0200 -0.0625
 3200TIP3    H131159   5.246   2.879   7.505 -0.2354 -1.0754  0.7004
 3200TIP3    H231160   5.165   3.004   7.531 -0.2450 -0.6529 -1.2018
 3201TIP3   OH231161   2.499   4.758   7.146  0.3414  0.3297  0.4452
 3201TIP3    H131162   2.480   4.667   7.169  1.5007  0.3496  1.6287
 3201TIP3    H231163   2.442   4.776   7.071  0.4916 -1.5547 -0.2004
 3202TIP3   OH231164   2.961   1.185   5.687 -0.5201  0.0409 -0.0071
 3202TIP3    H131165   2.997   1.243   5.620  0.2592  0.6755  0.9315
 3202TIP3    H231166   2.913   1.119   5.638 -3.7646  2.9302 -1.0841
 3203TIP3   OH231167   2.787   3.625   6.023  0.0591 -0.4960  0.2287
 3203TIP3    H131168   2.807   3.573   5.945 -0.5057 -0.0738 -0.2062
 3203TIP3    H231169   2.818   3.713   6.001 -0.3980 -0.3042  0.3522
 3204TIP3   OH231170   1.580   4.117   7.737 -0.2580 -0.0909  0.1998
 3204TIP3    H131171   1.561   4.144   7.647  0.0347 -2.8050 -0.7896
 3204TIP3    H231172   1.502   4.069   7.765  0.9330 -2.2663  0.0245
 3205TIP3   OH231173   2.870   5.820   7.853 -0.7418  0.4233 -0.2204
 3205TIP3    H131174   2.865   5.753   7.785 -2.4213  0.3699 -0.0794
 3205TIP3    H231175   2.906   5.897   7.809 -0.9759  0.1209 -0.9381
 3206TIP3   OH231176   3.769   2.632   1.331  0.1585  0.2343  0.6032
 3206TIP3    H131177   3.755   2.632   1.426 -0.0843  0.2345  0.5661
 3206TIP3    H231178   3.865   2.634   1.322  0.2036 -0.4194  0.8514
 3207TIP3   OH231179   6.345   2.134   1.758  0.4173 -0.1515 -0.4723
 3207TIP3    H131180   6.368   2.227   1.759  1.7913 -0.4554  1.7174
 3207TIP3    H231181   6.252   2.132   1.783  0.1188  0.6330 -1.4121
 3208TIP3   OH231182   7.136   6.029   7.571 -0.1714 -0.6031  0.1554
 3208TIP3    H131183   7.043   6.007   7.564 -0.2226 -0.8320  1.3588
 3208TIP3    H231184   7.175   5.952   7.613  0.8589 -1.1929 -1.7688
 3209TIP3   OH231185   3.207   5.716   0.252 -0.1849 -0.0735  0.2164
 3209TIP3    H131186   3.263   5.774   0.304 -1.7333  0.4531  1.3474
 3209TIP3    H231187   3.212   5.751   0.163  2.5885 -1.0502 -0.1275
 3210TIP3   OH231188   1.241   6.922   7.994  0.1434 -0.5993  0.0572
 3210TIP3    H131189   1.322   6.946   8.038  0.1156 -1.0348  0.3486
 3210TIP3    H231190   1.241   6.974   7.913 -0.1007  0.6852  0.8481
 3211TIP3   OH231191   0.168   0.838   0.826 -0.1595  0.0740 -0.1911
 3211TIP3    H131192   0.130   0.802   0.746  0.3987  0.4322 -0.6343
 3211TIP3    H231193   0.155   0.770   0.892  0.7155 -0.8918 -0.9617
 3212TIP3   OH231194   0.491   1.943   1.410  0.1728 -0.0148 -0.1731
 3212TIP3    H131195   0.443   1.999   1.471  0.6410 -0.9289  1.0697
 3212TIP3    H231196   0.576   1.930   1.451  0.0734 -1.6309 -0.4216
 3213TIP3   OH231197   7.012   6.745   6.407  0.0448 -0.0653 -0.5820
 3213TIP3    H131198   6.927   6.757   6.449 -0.2853 -1.0329 -0.9619
 3213TIP3    H231199   7.072   6.797   6.461 -0.5502 -0.4465  0.4801
 3214TIP3   OH231200   3.100   0.800   1.535  0.4466  0.1390  0.3890
 3214TIP3    H131201   3.008   0.788   1.511  0.1927  0.9724  0.9020
 3214TIP3    H231202   3.136   0.711   1.539  0.0648 -0.1227 -1.3124
 3215TIP3   OH231203   4.757   1.618   2.236 -0.1628 -0.1590  0.3203
 3215TIP3    H131204   4.697   1.558   2.281  0.0109 -0.6389 -0.0770
 3215TIP3    H231205   4.732   1.612   2.144 -0.9359  1.2995  0.4093
 3216TIP3   OH231206   0.055   6.479   6.298 -0.0417 -0.4909  0.3277
 3216TIP3    H131207   0.062   6.443   6.386 -2.1951 -1.8163  0.0380
 3216TIP3    H231208   0.065   6.403   6.240  0.7578  0.2645 -0.5594
 3217TIP3   OH231209   6.117   6.946   1.423 -0.2684 -0.6189 -0.6338
 3217TIP3    H131210   6.076   7.032   1.414  0.5509 -0.2827 -1.2495
 3217TIP3    H231211   6.061   6.899   1.486 -2.2113 -0.5511 -2.2068
 3218TIP3   OH231212   6.823   2.281   7.379 -0.0761  0.4226  0.0955
 3218TIP3    H131213   6.769   2.251   7.307 -0.8547  1.3543  0.2655
 3218TIP3    H231214   6.837   2.203   7.433 -0.6976  0.0300 -0.2973
 3219TIP3   OH231215   5.880   0.117   1.108 -0.4493 -0.7099  0.4803
 3219TIP3    H131216   5.838   0.045   1.061 -1.7347 -0.2639  0.9029
 3219TIP3    H231217   5.913   0.175   1.039 -2.1579 -0.1517  0.0755
 3220TIP3   OH231218   3.981   5.674   0.498  0.0597 -0.1189  0.1641
 3220TIP3    H131219   3.949   5.714   0.417  0.2452  0.5851  0.4345
 3220TIP3    H231220   4.074   5.699   0.503 -0.1150  0.4067  0.9324
 3221TIP3   OH231221   0.163   5.405   0.370  0.4870 -0.0024 -0.0042
 3221TIP3    H131222   0.228   5.475   0.363  1.2998 -0.8149 -0.8923
 3221TIP3    H231223   0.152   5.373   0.281  1.6084 -2.2764  0.5878
 3222TIP3   OH231224   1.774   4.129   6.971  0.3390  0.1147  0.0255
 3222TIP3    H131225   1.732   4.166   6.894  0.2795 -0.1381 -0.0646
 3222TIP3    H231226   1.857   4.092   6.938 -0.5466 -1.7152 -0.2872
 3223TIP3   OH231227   0.119   4.320   7.961 -0.2175  0.3648 -0.0406
 3223TIP3    H131228   0.191   4.262   7.935 -0.4825  0.0578 -0.0842
 3223TIP3    H231229   0.104   4.375   7.884  1.5450  2.0576  0.7226
 3224TIP3   OH231230   0.538   7.143   0.254  0.6837  0.2681  0.2958
 3224TIP3    H131231   0.567   7.234   0.264  0.5611  0.1408  2.2515
 3224TIP3    H231232   0.444   7.146   0.272  0.7886 -0.3177  0.9843
 3225TIP3   OH231233   4.849   0.639   6.179 -0.4102  0.1303  0.2026
 3225TIP3    H131234   4.839   0.662   6.086  0.1844  0.8462  0.3016
 3225TIP3    H231235   4.925   0.580   6.180 -0.6283 -0.1497  0.1939
 3226TIP3   OH231236   6.724   3.850   5.586 -0.5716  0.2523  0.6193
 3226TIP3    H131237   6.680   3.935   5.581 -1.5901 -0.3128 -0.6381
 3226TIP3    H231238   6.773   3.854   5.668 -0.8720  1.9145  0.7665
 3227TIP3   OH231239   3.013   6.653   0.949  0.3680 -0.5007 -0.1744
 3227TIP3    H131240   3.036   6.586   0.884  1.3199  1.2919 -1.7880
 3227TIP3    H231241   3.077   6.641   1.019  1.2689 -0.5625 -0.9871
 3228TIP3   OH231242   5.952   2.646   0.995  0.1521 -0.5828 -0.4066
 3228TIP3    H131243   6.020   2.578   0.992  1.5979  0.7574  0.4717
 3228TIP3    H231244   5.910   2.641   0.909 -1.2654 -3.9538  0.3154
 3229TIP3   OH231245   6.226   5.078   7.956  0.7624 -0.0964  0.1025
 3229TIP3    H131246   6.171   4.999   7.966 -1.1589  1.2264  0.5350
 3229TIP3    H231247   6.313   5.049   7.983  0.0177 -1.9622  0.7364
 3230TIP3   OH231248   1.908   6.680   6.203  0.0886 -0.3309 -0.0352
 3230TIP3    H131249   1.992   6.706   6.165  0.0880 -0.1730  0.0690
 3230TIP3    H231250   1.877   6.759   6.248  0.5695 -0.8184  1.1714
 3231TIP3   OH231251   2.316   5.741   0.796  0.2981  0.2907 -0.5835
 3231TIP3    H131252   2.257   5.702   0.861  0.3077 -1.8830 -1.7720
 3231TIP3    H231253   2.364   5.666   0.760  2.2295  1.7510 -1.1970
 3232TIP3   OH231254   0.947   1.524   7.600 -0.7056 -0.3458  0.6788
 3232TIP3    H131255   0.904   1.543   7.683 -1.7944  2.5126 -0.4222
 3232TIP3    H231256   0.876   1.513   7.537  0.0610  1.0391 -0.5062
 3233TIP3   OH231257   3.841   6.754   7.993 -0.3220 -0.4971  0.2598
 3233TIP3    H131258   3.766   6.699   7.974 -0.2238 -0.5948  0.1520
 3233TIP3    H231259   3.805   6.830   8.039 -0.6174 -0.0652 -0.6671
 3234TIP3   OH231260   4.358   4.047   1.626  0.6405  0.1459  0.0961
 3234TIP3    H131261   4.284   4.027   1.683 -0.5834  0.4288 -1.3394
 3234TIP3    H231262   4.395   4.128   1.662 -0.1852  0.3839  0.4263
 3235TIP3   OH231263   1.085   3.555   7.123  0.6408  0.4492  0.3997
 3235TIP3    H131264   1.050   3.596   7.202  1.6911 -1.3247  1.8570
 3235TIP3    H231265   1.010   3.507   7.086  0.6730 -0.5694  1.6106
 3236TIP3   OH231266   2.910   3.579   6.795 -0.1144  0.0362  0.2881
 3236TIP3    H131267   2.932   3.495   6.753  0.9283  1.0182 -1.2387
 3236TIP3    H231268   2.984   3.596   6.854  0.1818  0.3453 -0.1627
 3237TIP3   OH231269   6.473   6.020   1.794  0.5708  0.0611  0.0738
 3237TIP3    H131270   6.387   6.044   1.829  0.5406  0.5792 -0.3430
 3237TIP3    H231271   6.534   6.034   1.867  0.5267  1.2676 -0.1093
 3238TIP3   OH231272   5.869   2.011   0.485 -0.3394  0.0593 -0.3002
 3238TIP3    H131273   5.879   2.102   0.514 -1.1771  0.1472 -0.2781
 3238TIP3    H231274   5.919   1.960   0.549 -4.4496 -0.0767  3.2029
 3239TIP3   OH231275   3.176   2.361   1.686  0.0073  0.1788  0.1060
 3239TIP3    H131276   3.151   2.449   1.715  1.1773  0.8386 -0.8030
 3239TIP3    H231277   3.270   2.358   1.698 -0.1366 -1.3331  1.0629
 3240TIP3   OH231278   0.394   4.816   5.653 -0.0014  0.2849 -0.0363
 3240TIP3    H131279   0.388   4.893   5.709  1.8670  1.8860 -1.8601
 3240TIP3    H231280   0.339   4.837   5.577 -1.0564 -1.0716  0.3134
 3241TIP3   OH231281   1.961   3.581   7.330  0.0935  0.1040  0.1728
 3241TIP3    H131282   2.029   3.559   7.395 -0.9968 -1.7341  0.7689
 3241TIP3    H231283   1.885   3.606   7.383  0.1492  1.7728 -0.4851
 3242TIP3   OH231284   2.680   1.806   1.731 -0.1177  0.7152  0.1763
 3242TIP3    H131285   2.633   1.875   1.778 -0.2434  0.7933 -0.0619
 3242TIP3    H231286   2.629   1.727   1.748 -0.2960  0.7852 -0.0161
 3243TIP3   OH231287   2.453   5.609   6.133  0.3001  0.4998 -0.9173
 3243TIP3    H131288   2.414   5.691   6.163 -0.5397 -0.4045  0.5893
 3243TIP3    H231289   2.518   5.587   6.199  0.3254 -0.1848 -1.1591
 3244TIP3   OH231290   4.596   6.891   6.040  0.4557  0.2863 -0.2746
 3244TIP3    H131291   4.647   6.816   6.010 -0.1715 -0.6608  0.9567
 3244TIP3    H231292   4.585   6.877   6.134 -0.7545  1.2681 -0.2413
 3245TIP3   OH231293   1.551   3.306   7.308 -0.1003  0.5713 -0.3627
 3245TIP3    H131294   1.513   3.390   7.282 -1.5648 -0.0626 -0.3468
 3245TIP3    H231295   1.561   3.313   7.403 -0.2125  0.7295 -0.3612
 3246TIP3   OH231296   1.679   4.708   0.503  0.7973 -0.1346  0.2258
 3246TIP3    H131297   1.768   4.724   0.474  0.1403  2.1770 -0.7784
 3246TIP3    H231298   1.660   4.781   0.563 -1.1803  0.9400 -1.5558
 3247TIP3   OH231299   5.580   3.301   6.399  0.4709  0.1309  0.2784
 3247TIP3    H131300   5.539   3.218   6.374  1.1058 -0.0475 -0.1880
 3247TIP3    H231301   5.543   3.365   6.338  0.2843  0.1221  0.3804
 3248TIP3   OH231302   1.771   5.406   6.888  0.0899 -0.2597  0.2278
 3248TIP3    H131303   1.779   5.422   6.794  2.0241 -1.4524  0.1480
 3248TIP3    H231304   1.683   5.368   6.898 -0.9306  1.6494 -0.7697
 3249TIP3   OH231305   0.776   6.396   6.071  0.5246  0.3120 -0.1980
 3249TIP3    H131306   0.737   6.319   6.028 -1.3832  1.7770 -1.2274
 3249TIP3    H231307   0.733   6.471   6.031  1.6103  1.9296  1.4794
 3250TIP3   OH231308   5.386   4.299   0.169 -0.4257  0.3119 -0.3584
 3250TIP3    H131309   5.478   4.290   0.148 -0.4854 -0.0831 -0.4582
 3250TIP3    H231310   5.346   4.334   0.090 -0.2227  1.3528 -0.0277
 3251TIP3   OH231311   0.401   6.271   6.352  0.2877  0.1833 -0.2928
 3251TIP3    H131312   0.333   6.212   6.320 -1.5976  0.8331  2.2523
 3251TIP3    H231313   0.392   6.349   6.297 -0.2332 -0.1558 -0.6991
 3252TIP3   OH231314   1.467   1.444   2.052  0.4422  0.0058 -0.0362
 3252TIP3    H131315   1.528   1.444   2.126 -0.0160  1.3586  0.3796
 3252TIP3    H231316   1.381   1.460   2.091  0.0127 -0.5323 -0.7407
 3253TIP3   OH231317   5.011   1.583   1.582  0.0092  0.8456 -0.2906
 3253TIP3    H131318   4.988   1.496   1.550 -1.7471  0.2996  2.0760
 3253TIP3    H231319   4.961   1.643   1.527 -2.0243  0.0277  0.5467
 3254TIP3   OH231320   1.827   7.073   6.596  0.1590  0.4666 -0.5011
 3254TIP3    H131321   1.793   7.103   6.512 -0.3102  0.1938 -0.4131
 3254TIP3    H231322   1.913   7.115   6.604 -0.0623  0.9889 -0.8280
 3255TIP3   OH231323   2.150   2.275   0.941 -0.5351 -0.1462 -0.1259
 3255TIP3    H131324   2.230   2.313   0.903 -1.2179  0.9868 -0.4950
 3255TIP3    H231325   2.123   2.208   0.878 -0.4174  0.1627 -0.5136
 3256TIP3   OH231326   5.906   5.997   0.510 -0.2871  0.1342  0.6186
 3256TIP3    H131327   5.863   5.942   0.576 -1.5487  1.0352  0.5851
 3256TIP3    H231328   5.944   6.069   0.561  0.2997 -0.1283  0.5462
 3257TIP3   OH231329   6.986   3.200   1.263  0.0301  0.0231 -0.0559
 3257TIP3    H131330   6.999   3.165   1.351  1.0055  0.3456 -0.0488
 3257TIP3    H231331   6.923   3.141   1.222 -1.6675  0.7547  1.3648
 3258TIP3   OH231332   6.516   5.100   0.749 -0.2065 -0.2506 -0.5890
 3258TIP3    H131333   6.514   5.180   0.695 -1.1896  0.0093 -0.1893
 3258TIP3    H231334   6.609   5.089   0.772 -0.0052  0.5560 -0.9696
 3259TIP3   OH231335   5.902   5.962   6.928  0.7916 -0.0316  0.2287
 3259TIP3    H131336   5.815   5.966   6.888  1.0865 -1.7149 -0.6341
 3259TIP3    H231337   5.962   5.979   6.856  1.2097  0.8001  0.7589
 3260TIP3   OH231338   1.070   3.641   6.360 -0.0692 -0.2171 -0.4734
 3260TIP3    H131339   1.077   3.646   6.456 -2.0737 -2.2587 -0.1432
 3260TIP3    H231340   1.006   3.708   6.338  1.7135  1.5127 -0.6678
 3261TIP3   OH231341   2.508   5.644   1.373 -0.3070 -0.2756  0.5544
 3261TIP3    H131342   2.592   5.663   1.415 -1.3782  1.5516  2.0052
 3261TIP3    H231343   2.481   5.728   1.334 -1.6743 -0.7184  0.5077
 3262TIP3   OH231344   3.946   1.156   0.197  0.1578 -0.3842 -0.0092
 3262TIP3    H131345   3.991   1.236   0.224 -1.7474  1.2635 -1.3720
 3262TIP3    H231346   3.853   1.178   0.203 -0.4963 -3.0151  0.9337
 3263TIP3   OH231347   7.090   6.926   7.730 -0.2770  0.2834  0.0999
 3263TIP3    H131348   7.064   7.000   7.675 -2.2010 -0.1732  0.3312
 3263TIP3    H231349   7.048   6.943   7.814 -0.9374 -1.1693  0.0926
 3264TIP3   OH231350   0.223   5.755   0.614  0.4840  0.1178 -0.1103
 3264TIP3    H131351   0.285   5.686   0.589  1.0760 -0.3223  2.3371
 3264TIP3    H231352   0.277   5.822   0.655 -0.3644  1.0829 -0.5193
 3265TIP3   OH231353   2.593   6.447   7.845 -0.1662 -0.0418  0.2526
 3265TIP3    H131354   2.580   6.493   7.928  1.6731 -0.1353  0.6259
 3265TIP3    H231355   2.562   6.508   7.779 -2.9497 -0.4755  1.0185
 3266TIP3   OH231356   4.172   5.459   0.295 -0.1287 -0.1150  0.2177
 3266TIP3    H131357   4.103   5.466   0.361  0.5041 -0.4906  0.9275
 3266TIP3    H231358   4.246   5.506   0.332 -0.0356  0.3908 -0.5989
 3267TIP3   OH231359   2.205   4.580   0.466  0.2103  0.1068  0.4457
 3267TIP3    H131360   2.235   4.490   0.477  0.6936  0.4691  2.6340
 3267TIP3    H231361   2.264   4.617   0.401 -0.8763 -1.4918 -1.5598
 3268TIP3   OH231362   0.953   5.724   7.166  0.3189  0.6474  0.4065
 3268TIP3    H131363   0.903   5.684   7.237  0.5458 -0.0006  0.2082
 3268TIP3    H231364   0.893   5.788   7.128 -0.5046 -0.3775 -0.0711
 3269TIP3   OH231365   3.816   2.759   7.505  0.1443 -0.1541 -0.1077
 3269TIP3    H131366   3.874   2.829   7.474 -0.2978  0.7283  0.9853
 3269TIP3    H231367   3.743   2.805   7.546 -0.4604 -1.2686  0.0963
 3270TIP3   OH231368   5.376   2.117   1.296  0.1739  0.0500  0.1652
 3270TIP3    H131369   5.391   2.031   1.335  0.3233  0.2940  0.6528
 3270TIP3    H231370   5.411   2.179   1.359 -1.4998  0.5715  0.6445
 3271TIP3   OH231371   6.182   0.490   0.099 -0.0268 -0.1319  0.1086
 3271TIP3    H131372   6.136   0.406   0.099 -1.4603  0.5034  3.0876
 3271TIP3    H231373   6.271   0.469   0.127 -0.5455 -0.6303  1.4460
 3272TIP3   OH231374   0.021   3.202   0.911  0.2961  0.3144  0.6179
 3272TIP3    H131375  -0.054   3.260   0.924 -0.8810 -1.0686  0.2919
 3272TIP3    H231376   0.056   3.187   0.998 -0.3172  0.3305  0.8695
 3273TIP3   OH231377   5.440   5.983   8.006  0.0497 -0.2210  0.0773
 3273TIP3    H131378   5.507   5.952   7.944 -0.6342  1.4613 -1.5825
 3273TIP3    H231379   5.485   6.050   8.058 -0.2026  0.6355 -0.7800
 3274TIP3   OH231380   1.151   0.994   0.591 -0.0114 -0.2277 -0.6833
 3274TIP3    H131381   1.208   1.010   0.516  1.0160  0.2895  0.1766
 3274TIP3    H231382   1.131   1.081   0.625  2.5768 -0.4739  1.8214
 3275TIP3   OH231383   4.729   3.089   7.396  0.3010  0.3891  0.5424
 3275TIP3    H131384   4.650   3.091   7.341  0.1208  0.6051  0.8096
 3275TIP3    H231385   4.704   3.036   7.471  0.2825  0.7990  0.8257
 3276TIP3   OH231386   2.377   1.872   1.610 -0.2340 -0.3674 -0.3250
 3276TIP3    H131387   2.298   1.857   1.661 -0.5636  1.1263 -0.3649
 3276TIP3    H231388   2.438   1.912   1.672  0.7121 -1.9844 -0.1538
 3277TIP3   OH231389   6.951   3.374   7.003 -1.1381  0.3508 -0.2564
 3277TIP3    H131390   6.918   3.388   6.914  1.3861  0.7230 -1.2237
 3277TIP3    H231391   6.959   3.462   7.040 -0.3898  0.3454 -0.3903
 3278TIP3   OH231392   5.167   1.136   6.226 -0.4592  0.2017 -0.2831
 3278TIP3    H131393   5.252   1.158   6.263 -0.4358 -2.0172  1.1483
 3278TIP3    H231394   5.183   1.129   6.132  0.9715 -0.2590 -0.0275
 3279TIP3   OH231395   4.814   3.932   6.031  0.5212 -0.2816 -0.3128
 3279TIP3    H131396   4.756   4.006   6.014  0.4658  0.7248  3.4261
 3279TIP3    H231397   4.777   3.888   6.108  1.1239 -3.6908 -1.7611
 3280TIP3   OH231398   3.409   4.430   1.201  0.2284  0.5983  0.4722
 3280TIP3    H131399   3.362   4.432   1.117  1.8807 -0.4021 -0.5387
 3280TIP3    H231400   3.425   4.337   1.217  1.5738  0.8918  0.9305
 3281TIP3   OH231401   6.989   2.473   1.037 -0.8934  0.3700 -0.1685
 3281TIP3    H131402   6.940   2.412   0.982  1.4031 -1.0057 -0.8216
 3281TIP3    H231403   6.994   2.554   0.985 -1.0484 -0.0163 -0.7977
 3282TIP3   OH231404   2.770   3.903   7.211 -0.2843 -0.3355 -0.2188
 3282TIP3    H131405   2.716   3.827   7.232  0.0179 -0.0472  1.8193
 3282TIP3    H231406   2.859   3.868   7.208  0.0186  0.0754  2.0320
 3283TIP3   OH231407   3.569   6.646   5.894  0.5589  0.1889 -0.1224
 3283TIP3    H131408   3.500   6.708   5.871  0.3438  0.3384  0.8603
 3283TIP3    H231409   3.643   6.700   5.919  0.1239  0.0994  1.4811
 3284TIP3   OH231410   0.550   0.905   1.418 -0.4619 -0.0419 -0.3152
 3284TIP3    H131411   0.633   0.914   1.373  0.0834 -0.0758  0.6491
 3284TIP3    H231412   0.565   0.835   1.482 -0.9246  0.6305  0.5473
 3285TIP3   OH231413   5.128   1.879   1.257  0.4659 -0.5290 -0.0232
 3285TIP3    H131414   5.101   1.790   1.234  3.4342 -1.8589  1.2100
 3285TIP3    H231415   5.138   1.923   1.173  0.6411 -1.8913 -0.7424
 3286TIP3   OH231416   4.019   0.415   0.613 -0.6127 -0.4435 -0.5767
 3286TIP3    H131417   4.057   0.484   0.667  1.1049  1.4437 -3.8655
 3286TIP3    H231418   3.924   0.428   0.621 -0.3529  1.3129  0.1156
 3287TIP3   OH231419   4.373   4.997   0.731 -0.5695 -1.2096  0.0032
 3287TIP3    H131420   4.402   4.995   0.822 -0.0903 -1.3354 -0.1501
 3287TIP3    H231421   4.391   4.909   0.698 -2.3516 -1.7340  0.2756
 3288TIP3   OH231422   4.178   6.683   7.404  0.1255 -0.2988  0.2005
 3288TIP3    H131423   4.194   6.685   7.498  1.4891 -2.2355  0.0719
 3288TIP3    H231424   4.212   6.766   7.372 -2.1991  1.3047  1.5976
 3289TIP3   OH231425   1.701   1.585   0.278 -0.0922  0.3390 -0.4475
 3289TIP3    H131426   1.766   1.635   0.229 -0.4090  0.3931 -0.8219
 3289TIP3    H231427   1.617   1.623   0.252 -0.1898  1.5385  1.4551
 3290TIP3   OH231428   4.662   5.734   1.225 -0.4648  0.1870  0.1661
 3290TIP3    H131429   4.741   5.760   1.178 -0.4800  0.5600  0.3465
 3290TIP3    H231430   4.668   5.638   1.230 -1.5793 -0.1253 -2.5815
 3291TIP3   OH231431   5.543   2.320   7.326  0.1131  0.0297 -0.1865
 3291TIP3    H131432   5.468   2.272   7.360  2.5284 -3.0000  1.4349
 3291TIP3    H231433   5.598   2.336   7.403  1.2452  2.0209 -1.3104
 3292TIP3   OH231434   2.506   2.810   7.615  0.4612 -0.2324 -0.1007
 3292TIP3    H131435   2.592   2.828   7.651  0.3746  0.9384 -0.4252
 3292TIP3    H231436   2.478   2.894   7.578 -0.2495 -0.9250 -1.1822
 3293TIP3   OH231437   2.378   6.728   1.641 -0.0576  0.0668 -0.7880
 3293TIP3    H131438   2.371   6.633   1.629 -2.1419 -0.0054  0.5053
 3293TIP3    H231439   2.462   6.751   1.600  0.1474 -2.1969 -1.7966
 3294TIP3   OH231440   2.211   3.733   0.235  0.1614  0.2438  0.3056
 3294TIP3    H131441   2.241   3.781   0.158 -0.4661  1.6761  0.9199
 3294TIP3    H231442   2.271   3.760   0.305 -2.0883  2.8190  1.4488
 3295TIP3   OH231443   3.129   1.555   2.280  0.7115  0.2751 -0.5840
 3295TIP3    H131444   3.152   1.493   2.350 -0.9944  1.7993  1.4717
 3295TIP3    H231445   3.147   1.507   2.199 -0.2990 -2.8559  0.8679
 3296TIP3   OH231446   4.277   4.916   7.820  0.1179 -0.1144 -0.4462
 3296TIP3    H131447   4.299   4.916   7.727  2.3276  1.4073  0.0046
 3296TIP3    H231448   4.314   4.834   7.853 -1.2832 -1.0008 -0.9780
 3297TIP3   OH231449   6.964   0.092   0.304 -0.2986  0.2713 -0.2465
 3297TIP3    H131450   6.875   0.068   0.280 -0.4544  0.5566  0.0400
 3297TIP3    H231451   6.972   0.069   0.396  1.0139 -2.8726 -1.0378
 3298TIP3   OH231452   3.723   4.218   1.073  0.2875  0.2156 -0.3043
 3298TIP3    H131453   3.672   4.269   1.009 -0.8300  0.2945  0.6044
 3298TIP3    H231454   3.753   4.284   1.136 -0.2985 -0.0932  0.3141
 3299TIP3   OH231455   2.942   3.886   1.896  0.2687 -0.1485 -0.0973
 3299TIP3    H131456   3.002   3.943   1.944  0.1480  0.2971 -0.4734
 3299TIP3    H231457   2.995   3.811   1.870  1.0603  0.9366 -1.7344
 3300TIP3   OH231458   4.106   0.135   1.350 -0.4310 -0.1429 -0.5710
 3300TIP3    H131459   4.047   0.158   1.422  0.0451  3.3939 -1.1141
 3300TIP3    H231460   4.065   0.175   1.273 -0.2880 -2.7597 -2.0979
 3301TIP3   OH231461   0.267   7.051   7.707  0.3661 -0.3626 -0.8879
 3301TIP3    H131462   0.350   7.097   7.718 -1.1057  2.1128  1.0039
 3301TIP3    H231463   0.218   7.105   7.645 -0.9027 -0.0741  0.3145
 3302TIP3   OH231464   4.154   0.136   1.662 -0.1716 -0.6516  0.6703
 3302TIP3    H131465   4.100   0.064   1.695 -0.2737 -0.9370 -0.0996
 3302TIP3    H231466   4.101   0.214   1.678 -0.1302 -0.7581  1.3579
 3303TIP3   OH231467   3.603   4.633   1.336 -0.5360  0.0260 -0.2607
 3303TIP3    H131468   3.541   4.691   1.382 -0.0619  0.8714 -0.6739
 3303TIP3    H231469   3.552   4.596   1.264 -0.9404 -0.3608  0.2109
 3304TIP3   OH231470   1.175   6.497   6.755 -0.2072  0.8623  0.1946
 3304TIP3    H131471   1.105   6.438   6.785  0.0188 -1.6714 -3.5379
 3304TIP3    H231472   1.137   6.544   6.681  1.6055  0.2500 -1.2141
 3305TIP3   OH231473   2.024   2.097   7.834 -0.7619  0.0369 -0.0067
 3305TIP3    H131474   2.049   2.053   7.753 -1.1345 -0.1228 -0.0347
 3305TIP3    H231475   1.981   2.178   7.805  0.3585  0.6723  0.0474
 3306TIP3   OH231476   0.505   0.275   1.616  0.0042 -0.0528 -0.1650
 3306TIP3    H131477   0.550   0.220   1.552  1.0696 -1.1312  1.4629
 3306TIP3    H231478   0.492   0.219   1.692 -0.6280  1.3945  0.8440
 3307TIP3   OH231479   0.702   7.007   0.781 -0.4753  0.2060 -0.3409
 3307TIP3    H131480   0.704   7.069   0.708 -1.9000 -1.3091 -1.7630
 3307TIP3    H231481   0.613   7.013   0.815  0.1241  0.7594  1.2030
 3308TIP3   OH231482   4.654   3.611   7.381 -0.9972 -0.2818 -0.0434
 3308TIP3    H131483   4.698   3.562   7.451 -1.4633  1.6273  1.7088
 3308TIP3    H231484   4.723   3.668   7.346 -1.0632 -0.3301 -0.2481
 3309TIP3   OH231485   3.709   6.574   1.698 -0.2912 -0.0899 -0.0256
 3309TIP3    H131486   3.701   6.654   1.750 -1.4077 -1.1654  1.5943
 3309TIP3    H231487   3.802   6.567   1.677  0.1691  0.5566  1.6467
 3310TIP3   OH231488   4.309   6.905   7.854  0.4852 -0.5364  0.2749
 3310TIP3    H131489   4.280   6.915   7.944  1.8704 -1.9513  0.9129
 3310TIP3    H231490   4.404   6.916   7.857  0.7278 -1.9851 -0.7563
 3311TIP3   OH231491   4.353   5.379   7.893  0.1817  0.2082  0.1053
 3311TIP3    H131492   4.408   5.303   7.910 -1.4255 -0.8464  0.8576
 3311TIP3    H231493   4.410   5.454   7.910  1.6536 -0.8134 -0.1304
 3312TIP3   OH231494   6.664   1.840   7.623 -0.2773  0.3395 -0.1908
 3312TIP3    H131495   6.653   1.758   7.574 -2.7132  0.8583 -0.6674
 3312TIP3    H231496   6.663   1.813   7.715 -1.1203 -0.2050 -0.3440
 3313TIP3   OH231497   6.804   5.727   5.971 -0.6285 -0.0929  0.0792
 3313TIP3    H131498   6.758   5.659   6.021  0.7869  0.1559  1.8504
 3313TIP3    H231499   6.778   5.809   6.014 -0.8396  0.3218 -0.8262
 3314TIP3   OH231500   5.881   5.418   6.670  0.9270  0.0334  0.6453
 3314TIP3    H131501   5.855   5.508   6.648  1.8954  0.1361 -0.1466
 3314TIP3    H231502   5.941   5.428   6.743 -1.1328 -0.2009  2.4522
 3315TIP3   OH231503   1.477   2.626   0.048 -0.6870  0.1149  0.8881
 3315TIP3    H131504   1.556   2.643   0.100  0.8188  0.4352 -1.3514
 3315TIP3    H231505   1.405   2.637   0.109  1.0215 -1.4322  3.3586
 3316TIP3   OH231506   6.498   6.910   1.780  0.4023 -0.0131 -0.3908
 3316TIP3    H131507   6.522   6.950   1.863  0.9587 -2.0090  0.4854
 3316TIP3    H231508   6.403   6.897   1.786  0.7130 -2.3204  1.0653
 3317TIP3   OH231509   2.809   2.894   0.440  0.1399 -0.1631  0.1556
 3317TIP3    H131510   2.873   2.825   0.423 -1.1007 -1.3818  0.2941
 3317TIP3    H231511   2.830   2.926   0.528  0.2354 -0.9052  0.4023
 3318TIP3   OH231512   1.934   0.426   5.746 -0.0886 -0.2794 -0.5847
 3318TIP3    H131513   1.904   0.514   5.769 -0.3066 -0.6619  0.6529
 3318TIP3    H231514   2.003   0.441   5.681 -1.3802  0.7108 -1.7966
 3319TIP3   OH231515   1.662   3.914   7.090 -0.5187  0.3442  0.0159
 3319TIP3    H131516   1.723   3.986   7.071 -0.2405  0.1021 -0.0310
 3319TIP3    H231517   1.581   3.957   7.117  0.4711  0.6738  2.6829
 3320TIP3   OH231518   5.351   0.830   1.020  0.0012 -0.4100 -0.3705
 3320TIP3    H131519   5.307   0.906   1.057  0.4065 -0.3340 -0.0382
 3320TIP3    H231520   5.338   0.838   0.926  1.6356  1.0806 -0.5091
 3321TIP3   OH231521   2.036   6.991   7.825 -0.1996  0.2917 -0.0662
 3321TIP3    H131522   2.119   6.957   7.858  1.4129  1.9041 -2.1581
 3321TIP3    H231523   1.990   7.022   7.902  2.7933  2.7722  0.9200
 3322TIP3   OH231524   3.724   2.605   1.587  0.4021  0.4202  0.0536
 3322TIP3    H131525   3.716   2.591   1.681 -0.2768  1.1608  0.1099
 3322TIP3    H231526   3.636   2.627   1.558  0.4880 -0.3614 -0.8604
 3323TIP3   OH231527   3.967   1.812   6.352  0.1330  0.3887 -0.0662
 3323TIP3    H131528   3.993   1.744   6.290 -3.6923  0.1425 -1.7331
 3323TIP3    H231529   3.985   1.775   6.438  2.2988 -0.7590 -0.9330
 3324TIP3   OH231530   3.387   4.316   6.346 -0.0544 -0.1944  0.6839
 3324TIP3    H131531   3.449   4.248   6.320  1.0163  0.7656  0.6349
 3324TIP3    H231532   3.430   4.398   6.322  0.1705  0.6919  3.6568
 3325TIP3   OH231533   4.431   3.760   0.075  0.4586  0.2334  0.1333
 3325TIP3    H131534   4.347   3.803   0.062  0.6754  1.3180  1.8714
 3325TIP3    H231535   4.443   3.704  -0.002 -1.3565  0.8349 -0.6275
 3326TIP3   OH231536   4.430   1.512   0.617  0.3231  0.7026 -0.4041
 3326TIP3    H131537   4.426   1.601   0.583  2.2002  0.2789 -1.9112
 3326TIP3    H231538   4.373   1.461   0.560  1.1791  0.5321 -1.1412
 3327TIP3   OH231539   1.737   6.074   0.487  0.2762  1.0182  0.1859
 3327TIP3    H131540   1.742   5.992   0.438  2.2692  0.0164  1.9045
 3327TIP3    H231541   1.740   6.047   0.579 -0.5801  2.9644  0.8443
 3328TIP3   OH231542   1.428   7.107   7.950 -0.0433 -0.1798  0.0043
 3328TIP3    H131543   1.414   7.188   7.999  0.8473 -1.0159  1.7788
 3328TIP3    H231544   1.374   7.115   7.872  1.1166  2.7116 -0.6153
 3329TIP3   OH231545   0.332   4.597   7.886 -0.5398  0.4575 -0.5582
 3329TIP3    H131546   0.399   4.649   7.930  0.0260 -1.1708  0.6154
 3329TIP3    H231547   0.250   4.643   7.902 -0.4145 -0.2220  2.6294
 3330TIP3   OH231548   3.877   4.362   0.826  0.2707  0.0037 -0.0325
 3330TIP3    H131549   3.900   4.441   0.874  1.3836  0.2626 -0.9299
 3330TIP3    H231550   3.786   4.374   0.799  0.4455  1.0124 -0.1997
 3331TIP3   OH231551   3.719   0.565   1.482 -0.0958 -0.7845  0.2279
 3331TIP3    H131552   3.767   0.537   1.560 -0.4889  0.1440  0.8187
 3331TIP3    H231553   3.729   0.660   1.480  0.5497 -0.8411 -1.2954
 3332TIP3   OH231554   3.599   1.152   7.574  0.2883  0.5045  0.6429
 3332TIP3    H131555   3.569   1.123   7.488 -0.3812  3.1284 -0.0928
 3332TIP3    H231556   3.692   1.130   7.576  0.3612  0.5644 -0.8396
 3333TIP3   OH231557   0.054   3.035   2.148  0.8843  0.3846 -0.5514
 3333TIP3    H131558   0.080   3.124   2.124 -0.3097  0.4701 -1.6059
 3333TIP3    H231559  -0.028   3.020   2.101  0.2531 -0.7155  0.8158
 3334TIP3   OH231560   4.606   2.510   0.164  0.9459 -0.2931  0.3353
 3334TIP3    H131561   4.589   2.590   0.214 -0.0689  0.3581 -0.9882
 3334TIP3    H231562   4.669   2.537   0.097 -0.9441  0.0143 -1.4493
 3335TIP3   OH231563   0.463   0.864   0.291 -0.0027 -0.5665  0.4269
 3335TIP3    H131564   0.545   0.825   0.319  0.4193 -0.8835 -1.1812
 3335TIP3    H231565   0.401   0.840   0.360  1.1093 -0.8102  1.3713
 3336TIP3   OH231566   6.315   3.484   6.016 -0.2854  0.2859 -0.3131
 3336TIP3    H131567   6.341   3.392   6.012  3.0462  1.0026  1.3629
 3336TIP3    H231568   6.274   3.494   6.102  0.8877  0.6467  0.2257
 3337TIP3   OH231569   4.075   4.651   1.328  0.1548  0.3629  0.2747
 3337TIP3    H131570   4.134   4.695   1.266  0.2921  2.3409  1.7156
 3337TIP3    H231571   3.989   4.689   1.311  0.0691  0.4342  0.8568
 3338TIP3   OH231572   6.560   2.867   6.491  0.4799 -0.6855  0.0844
 3338TIP3    H131573   6.535   2.946   6.540  0.5944 -0.5003 -0.1524
 3338TIP3    H231574   6.477   2.827   6.468  0.3337 -2.8803  3.7044
 3339TIP3   OH231575   2.057   2.562   1.588  0.7250  0.1556  0.1551
 3339TIP3    H131576   2.140   2.607   1.572  2.1532 -1.0682  3.2089
 3339TIP3    H231577   2.017   2.611   1.660 -0.1726 -0.4806  0.1043
 3340TIP3   OH231578   0.042   6.729   1.374  0.4445  0.4210 -0.2777
 3340TIP3    H131579   0.078   6.782   1.303 -1.1866 -1.0826 -2.3852
 3340TIP3    H231580  -0.047   6.762   1.385 -0.1634 -0.9940 -0.7500
 3341TIP3   OH231581   0.805   6.711   6.091  0.0807  0.3696  0.1359
 3341TIP3    H131582   0.760   6.715   6.006 -2.5634 -0.2201  1.3920
 3341TIP3    H231583   0.741   6.744   6.154  1.5966 -0.1358  2.0496
 3342TIP3   OH231584   4.394   6.877   7.331  0.9204 -0.0725 -0.2132
 3342TIP3    H131585   4.355   6.943   7.275  1.4366 -0.7453 -1.4010
 3342TIP3    H231586   4.468   6.921   7.372 -0.9054  1.1706  1.9536
 3343TIP3   OH231587   4.773   2.801   1.362  0.2429  0.0325  0.1455
 3343TIP3    H131588   4.797   2.831   1.274  1.0745 -3.2212 -0.8754
 3343TIP3    H231589   4.823   2.856   1.421 -2.1948  4.0212 -1.1213
 3344TIP3   OH231590   3.685   1.184   6.783 -0.0107  0.6197 -0.4344
 3344TIP3    H131591   3.604   1.234   6.785 -0.3827  0.0266  1.1869
 3344TIP3    H231592   3.740   1.229   6.720 -1.3252  1.4709 -1.0072
 3345TIP3   OH231593   5.399   3.061   1.371 -0.3455 -0.2959 -0.2392
 3345TIP3    H131594   5.311   3.026   1.356 -0.6314  0.3838 -0.2183
 3345TIP3    H231595   5.400   3.083   1.464  0.0877 -0.9297 -0.0867
 3346TIP3   OH231596   5.555   1.080   7.839  0.3511  0.2697 -0.1772
 3346TIP3    H131597   5.603   1.136   7.778  0.4280  0.1928 -0.1866
 3346TIP3    H231598   5.546   1.133   7.918  1.2280 -0.0425  0.1437
 3347TIP3   OH231599   5.691   3.877   0.651 -0.0423  0.2910  0.0590
 3347TIP3    H131600   5.694   3.922   0.736  0.4473 -1.7884  1.2170
 3347TIP3    H231601   5.625   3.809   0.662  0.9803 -0.8714 -0.7598
 3348TIP3   OH231602   2.971   1.850   0.284  0.1876  0.1940  0.3175
 3348TIP3    H131603   2.969   1.759   0.313 -0.5891  0.7164  2.0239
 3348TIP3    H231604   3.010   1.898   0.357  0.3491  1.2738 -0.4551
 3349TIP3   OH231605   6.795   0.826   0.686  0.0114 -0.2829  0.0543
 3349TIP3    H131606   6.818   0.903   0.740  1.1666  0.2438 -1.1339
 3349TIP3    H231607   6.826   0.752   0.738 -1.3401 -0.0040  1.3368
 3350TIP3   OH231608   4.142   0.697   5.913  0.0962  0.7987  0.3790
 3350TIP3    H131609   4.228   0.694   5.872 -0.6362  0.7777 -1.2424
 3350TIP3    H231610   4.092   0.758   5.858 -1.1097  0.2990  0.8985
 3351TIP3   OH231611   0.784   4.825   1.826  0.1628 -0.3718  0.4406
 3351TIP3    H131612   0.849   4.827   1.756 -0.9178 -0.1262 -0.5968
 3351TIP3    H231613   0.752   4.735   1.827  1.5979 -0.9157  2.0273
 3352TIP3   OH231614   5.927   3.093   0.283  0.7767 -0.2278 -0.1606
 3352TIP3    H131615   5.919   3.001   0.310 -0.2033  0.1618  0.9338
 3352TIP3    H231616   5.981   3.133   0.351  3.1463 -0.4311 -1.7982
 3353TIP3   OH231617   4.618   2.090   0.629 -0.9523  0.2186 -0.4912
 3353TIP3    H131618   4.589   2.092   0.720 -1.4830 -2.1120 -0.5631
 3353TIP3    H231619   4.712   2.070   0.635 -1.1920 -0.9738 -0.4432
 3354TIP3   OH231620   5.793   0.532   7.935  0.2045  0.2444  0.4893
 3354TIP3    H131621   5.706   0.533   7.895  0.7962 -1.1264 -0.9390
 3354TIP3    H231622   5.788   0.464   8.002  0.5907 -0.9779 -0.6845
 3355TIP3   OH231623   2.649   3.350   5.924 -0.5698  0.0609  0.2489
 3355TIP3    H131624   2.614   3.396   5.848 -0.2060  0.3015  0.2303
 3355TIP3    H231625   2.632   3.257   5.905  0.7732  0.0011 -0.7771
 3356TIP3   OH231626   3.729   5.649   2.201  0.3197  0.5658  0.0337
 3356TIP3    H131627   3.711   5.723   2.143  2.6653  1.0653 -0.1635
 3356TIP3    H231628   3.814   5.616   2.172  0.6277 -0.4441  1.9141
 3357TIP3   OH231629   4.098   4.197   0.744 -0.7384  0.3527  0.2515
 3357TIP3    H131630   4.044   4.131   0.702  0.6319 -0.0981 -0.8435
 3357TIP3    H231631   4.041   4.274   0.750 -2.0314 -0.6058  0.6716
 3358TIP3   OH231632   2.394   2.277   6.826  0.0468 -0.2523  0.1965
 3358TIP3    H131633   2.388   2.372   6.833 -1.2453 -0.3900  1.4197
 3358TIP3    H231634   2.442   2.262   6.744  1.3663  1.4397  0.5893
 3359TIP3   OH231635   3.622   6.668   0.196  0.5599 -0.1746  0.3633
 3359TIP3    H131636   3.583   6.617   0.125 -2.4967 -0.1619  1.8452
 3359TIP3    H231637   3.620   6.758   0.165 -1.4826 -0.0687  0.6392
 3360TIP3   OH231638   3.254   1.587   6.155  0.2013 -0.7391  0.0827
 3360TIP3    H131639   3.348   1.608   6.155 -0.4243  2.7874 -1.6968
 3360TIP3    H231640   3.229   1.588   6.063 -1.6233 -1.4940  0.5320
 3361TIP3   OH231641   1.016   3.215   1.110  0.2133 -0.2832  0.1668
 3361TIP3    H131642   1.092   3.246   1.060  0.0274  0.5756  0.4041
 3361TIP3    H231643   0.975   3.150   1.054  0.1334  0.5108 -0.7032
 3362TIP3   OH231644   5.214   1.791   1.709  0.3888  0.2975  0.5731
 3362TIP3    H131645   5.217   1.726   1.639 -0.1220 -1.7966  2.3808
 3362TIP3    H231646   5.122   1.817   1.714  0.1526 -0.6441  1.3692
 3363TIP3   OH231647   1.523   0.109   6.964 -0.1475 -0.3031  0.0881
 3363TIP3    H131648   1.475   0.190   6.946 -3.0020 -2.0924 -1.3196
 3363TIP3    H231649   1.583   0.100   6.890 -0.0935  0.3619  0.0478
 3364TIP3   OH231650   1.875   0.429   7.203 -0.2604 -0.5291  0.1553
 3364TIP3    H131651   1.968   0.440   7.226 -0.0884  0.2961 -0.8803
 3364TIP3    H231652   1.829   0.489   7.262 -0.1530 -0.9868  0.7151
 3365TIP3   OH231653   2.900   2.702   1.259 -0.3905  0.5150 -0.2710
 3365TIP3    H131654   2.887   2.657   1.343 -0.3277 -0.0863 -0.5801
 3365TIP3    H231655   2.993   2.726   1.260 -0.1575 -0.3498 -0.5819
 3366TIP3   OH231656   3.740   1.653   1.650  0.0317 -0.1976 -0.5185
 3366TIP3    H131657   3.693   1.709   1.712  2.1026  1.1718 -0.0466
 3366TIP3    H231658   3.773   1.581   1.703  0.4211  0.1082 -0.3332
 3367TIP3   OH231659   5.426   5.756   1.691 -0.3791  0.5325  0.2508
 3367TIP3    H131660   5.371   5.805   1.753  0.0069  1.8069 -0.3754
 3367TIP3    H231661   5.516   5.775   1.718 -0.1743  2.0235 -1.3295
 3368TIP3   OH231662   1.197   6.271   0.528  0.5890  0.1375 -0.2973
 3368TIP3    H131663   1.118   6.319   0.504 -0.7011 -1.4586  0.6483
 3368TIP3    H231664   1.189   6.256   0.622  1.6436 -0.7236 -0.3289
 3369TIP3   OH231665   5.083   4.875   6.255 -0.1182 -0.1884 -0.2073
 3369TIP3    H131666   5.096   4.956   6.205 -0.2188  0.2831  0.5212
 3369TIP3    H231667   4.988   4.868   6.264 -0.0820  0.1419  0.5607
 3370TIP3   OH231668   6.369   6.030   6.513 -0.7664 -0.2209  0.1405
 3370TIP3    H131669   6.275   6.016   6.521 -0.8221 -1.1006 -1.6636
 3370TIP3    H231670   6.381   6.123   6.530 -2.2009  0.2684 -1.3036
 3371TIP3   OH231671   4.455   5.796   1.741  0.0352  1.1305  0.9480
 3371TIP3    H131672   4.540   5.796   1.785 -0.9681 -0.2211  3.0706
 3371TIP3    H231673   4.394   5.828   1.808 -1.3178  0.7700 -0.0707
 3372TIP3   OH231674   2.136   5.720   7.756  0.1179  0.2993  0.2526
 3372TIP3    H131675   2.182   5.638   7.740  0.1495  0.1276  1.1474
 3372TIP3    H231676   2.204   5.787   7.758  0.2524  0.1563  0.7867
 3373TIP3   OH231677   4.258   4.513   5.490 -0.1760  0.7269  0.3817
 3373TIP3    H131678   4.347   4.541   5.511 -0.1095  0.2741  0.7297
 3373TIP3    H231679   4.269   4.425   5.452 -0.5063  0.4717  0.8634
 3374TIP3   OH231680   6.396   1.417   7.030  0.3449 -0.3312  0.2874
 3374TIP3    H131681   6.465   1.476   7.001 -0.3494  0.3579  0.0168
 3374TIP3    H231682   6.408   1.338   6.977  1.5132 -0.6036  0.9195
 3375TIP3   OH231683   5.032   4.421   0.245 -0.1284  0.2310  0.1729
 3375TIP3    H131684   5.027   4.328   0.221  1.6705  0.3819 -0.9049
 3375TIP3    H231685   5.079   4.421   0.328 -0.3357  0.1675  0.2913
 3376TIP3   OH231686   0.126   3.543   6.842  0.5066  0.4890  0.2462
 3376TIP3    H131687   0.107   3.451   6.865  1.8241  0.5234  1.6093
 3376TIP3    H231688   0.214   3.541   6.804  1.3412  1.3823  2.0157
 3377TIP3   OH231689   4.914   2.141   0.478 -0.0121 -0.3123 -0.0341
 3377TIP3    H131690   5.006   2.114   0.486 -1.0230 -3.9773  1.3022
 3377TIP3    H231691   4.907   2.175   0.389  2.5104 -0.3154 -0.3256
 3378TIP3   OH231692   6.925   3.707   6.645 -0.4798 -0.3392  0.0409
 3378TIP3    H131693   7.003   3.709   6.589 -0.7723  1.7835 -0.3602
 3378TIP3    H231694   6.859   3.758   6.597 -1.2146  0.2702  1.6253
 3379TIP3   OH231695   3.119   2.410   0.485  0.0366 -0.1344  0.2347
 3379TIP3    H131696   3.091   2.357   0.410  0.0946  0.2223 -0.0447
 3379TIP3    H231697   3.044   2.411   0.544  0.3151 -1.1887  0.6143
 3380TIP3   OH231698   3.601   5.492   6.973 -0.0721  0.0617 -0.2115
 3380TIP3    H131699   3.594   5.438   6.895 -0.1608  0.3734 -0.4207
 3380TIP3    H231700   3.665   5.559   6.951  0.5422 -0.3509  0.2842
 3381TIP3   OH231701   7.027   0.038   7.542 -0.5277 -0.0030 -0.2336
 3381TIP3    H131702   6.971   0.113   7.562 -1.2922 -0.5671 -0.2226
 3381TIP3    H231703   6.988  -0.001   7.464  1.1721  0.9085 -1.6117
 3382TIP3   OH231704   6.275   2.488   0.004 -0.6996 -0.0055 -0.1486
 3382TIP3    H131705   6.221   2.567   0.001 -0.7609 -0.0618 -0.4739
 3382TIP3    H231706   6.237   2.430  -0.061  1.4736  1.0278 -2.5180
 3383TIP3   OH231707   3.335   5.505   6.883 -0.1670 -0.0331 -0.3846
 3383TIP3    H131708   3.302   5.515   6.972 -0.1376 -3.7247  0.2170
 3383TIP3    H231709   3.428   5.527   6.889  0.0772 -1.2683  0.8194
 3384TIP3   OH231710   4.790   4.895   6.332  0.2128 -0.4942 -0.3909
 3384TIP3    H131711   4.756   4.849   6.256  0.1506 -0.6386 -0.2763
 3384TIP3    H231712   4.741   4.978   6.334 -2.9606 -2.1750  1.9050
 3385TIP3   OH231713   5.633   2.424   0.210  0.5807  0.2418  0.3647
 3385TIP3    H131714   5.677   2.475   0.279  0.6464  0.6837 -0.0031
 3385TIP3    H231715   5.558   2.477   0.186  0.6519  0.1658 -0.0237
 3386TIP3   OH231716   1.275   6.228   7.059 -0.5347  0.2463  0.5812
 3386TIP3    H131717   1.187   6.266   7.053  0.3543  2.9165  2.7098
 3386TIP3    H231718   1.286   6.206   7.152  2.2291  3.3556  1.1627
 3387TIP3   OH231719   4.153   6.365   7.780  0.1336 -0.0233  0.0737
 3387TIP3    H131720   4.246   6.351   7.799 -0.3293 -0.7392  2.1456
 3387TIP3    H231721   4.121   6.419   7.853 -0.9906  0.6026 -0.8420
 3388TIP3   OH231722   2.979   0.416   1.054  0.2139 -0.3774  0.3886
 3388TIP3    H131723   2.940   0.456   1.132  0.1483 -0.5016  0.4206
 3388TIP3    H231724   3.028   0.487   1.012  1.3518 -0.6310  1.2530
 3389TIP3   OH231725   0.163   3.565   1.728 -0.2187  0.6267 -0.6617
 3389TIP3    H131726   0.199   3.525   1.807 -1.2011 -0.3565 -0.6919
 3389TIP3    H231727   0.148   3.656   1.752 -0.4172  0.3603  0.2509
 3390TIP3   OH231728   3.808   3.601   1.072 -0.3989  0.6916 -0.3308
 3390TIP3    H131729   3.820   3.660   0.998  1.1187  2.0746  0.9518
 3390TIP3    H231730   3.897   3.582   1.103 -0.9803 -0.0011  1.0317
 3391TIP3   OH231731   1.473   4.341   0.080 -0.2163 -0.2416  0.4313
 3391TIP3    H131732   1.400   4.360   0.022 -0.4108  0.5067  0.9053
 3391TIP3    H231733   1.541   4.304   0.023  0.0126  1.5027 -0.4691
 3392TIP3   OH231734   3.282   1.880   0.730 -0.5286  0.6179 -0.0343
 3392TIP3    H131735   3.342   1.931   0.784 -0.0074 -0.4433  0.4016
 3392TIP3    H231736   3.325   1.872   0.645  0.3308 -0.7925  0.5054
 3393TIP3   OH231737   0.298   6.376   1.478  0.3468  0.0741 -0.5041
 3393TIP3    H131738   0.318   6.283   1.492  0.3897 -0.1681 -2.0170
 3393TIP3    H231739   0.304   6.415   1.565 -0.3818 -1.4716  0.2892
 3394TIP3   OH231740   0.307   6.275   2.226  0.6639  0.3685  0.1073
 3394TIP3    H131741   0.298   6.311   2.138 -0.0590  2.0764  0.8456
 3394TIP3    H231742   0.220   6.280   2.263  1.1430  0.5381  1.2464
 3395TIP3   OH231743   4.329   6.011   5.968  0.3799  0.7546 -0.6192
 3395TIP3    H131744   4.422   6.029   5.953  0.1175  0.9464 -2.0795
 3395TIP3    H231745   4.289   6.015   5.882 -0.7064 -1.0110 -0.2524
 3396TIP3   OH231746   3.780   1.528   1.092  0.0413  0.1317 -0.2448
 3396TIP3    H131747   3.818   1.440   1.092  2.0139  0.9220  0.6202
 3396TIP3    H231748   3.855   1.586   1.084 -1.2167  1.7613 -0.6829
 3397TIP3   OH231749   4.635   4.558   1.828 -0.1180  0.1295 -0.3518
 3397TIP3    H131750   4.650   4.537   1.920 -0.8891 -3.0222 -0.8253
 3397TIP3    H231751   4.630   4.654   1.825  0.5531  0.3451  2.7450
 3398TIP3   OH231752   5.478   1.750   1.066 -0.1239  0.2463  0.6693
 3398TIP3    H131753   5.468   1.783   0.977 -1.1130  1.4703  1.1957
 3398TIP3    H231754   5.402   1.693   1.079  0.1911 -0.1885  0.6294
 3399TIP3   OH231755   1.902   3.246   1.546  0.2106  0.4306 -0.1870
 3399TIP3    H131756   1.978   3.289   1.509  0.1617  1.6422  1.0571
 3399TIP3    H231757   1.832   3.311   1.542 -0.4286 -0.2348 -0.1716
 3400TIP3   OH231758   2.820   2.250   7.546 -0.0585  0.0863  0.6834
 3400TIP3    H131759   2.837   2.341   7.571  0.1402 -0.0892  1.1929
 3400TIP3    H231760   2.897   2.202   7.577  0.9034  0.0756 -1.5143
 3401TIP3   OH231761   6.065   4.697   7.696  0.4569  0.2050 -0.4257
 3401TIP3    H131762   5.980   4.672   7.657  0.2616 -0.6236  0.4956
 3401TIP3    H231763   6.123   4.624   7.673  1.1564  1.1248 -1.7145
 3402TIP3   OH231764   3.754   0.049   7.150  0.6391  0.6567 -0.1710
 3402TIP3    H131765   3.721   0.009   7.231  1.5195 -0.2636 -0.2439
 3402TIP3    H231766   3.771  -0.025   7.092  2.6716  1.0768 -0.1799
 3403TIP3   OH231767   6.578   0.379   7.133 -0.1149  0.2026 -0.3003
 3403TIP3    H131768   6.569   0.451   7.071  0.9404  0.7061  0.0978
 3403TIP3    H231769   6.488   0.351   7.151 -0.4665  0.5031 -1.5079
 3404TIP3   OH231770   0.767   4.417   6.156 -0.8986 -1.0378 -0.2836
 3404TIP3    H131771   0.757   4.370   6.073  1.4904 -1.4774 -0.3672
 3404TIP3    H231772   0.720   4.499   6.142 -0.0738 -0.8528 -2.3032
 3405TIP3   OH231773   4.412   4.710   2.002  0.1574 -0.3769 -0.1725
 3405TIP3    H131774   4.494   4.747   2.034  0.2132 -0.9716  0.3940
 3405TIP3    H231775   4.349   4.728   2.072  0.1561 -1.2341  0.0540
 3406TIP3   OH231776   6.308   6.453   0.551  0.2898  0.1051 -0.4145
 3406TIP3    H131777   6.288   6.539   0.589  0.1530  0.5992 -1.5850
 3406TIP3    H231778   6.266   6.391   0.611  0.0212  0.8701  0.2098
 3407TIP3   OH231779   5.072   6.206   0.938  0.1506  0.3455  0.2400
 3407TIP3    H131780   5.009   6.133   0.943  0.4916  0.0847  0.8667
 3407TIP3    H231781   5.157   6.163   0.926  0.2434  0.6850 -0.3315
 3408TIP3   OH231782   2.269   3.549   7.230  0.3185  0.5085 -0.2835
 3408TIP3    H131783   2.345   3.492   7.238  0.5754  0.9784  0.8896
 3408TIP3    H231784   2.225   3.543   7.315 -0.9589  0.2500 -0.9359
 3409TIP3   OH231785   1.602   3.540   1.282  0.2153  0.4775  0.2670
 3409TIP3    H131786   1.678   3.566   1.229 -1.1560  0.9552 -1.5728
 3409TIP3    H231787   1.529   3.588   1.243 -1.6276 -2.5432 -0.2295
 3410TIP3   OH231788   3.072   3.268   0.415 -0.1028 -0.4116  0.4243
 3410TIP3    H131789   3.118   3.336   0.465  2.0978 -1.0942 -0.5582
 3410TIP3    H231790   3.097   3.186   0.458  0.8800 -0.9111 -1.0341
 3411TIP3   OH231791   0.447   4.397   6.124 -0.4461  0.4167 -0.2317
 3411TIP3    H131792   0.387   4.359   6.059 -1.0109  1.2696 -0.2412
 3411TIP3    H231793   0.469   4.483   6.087  0.7607  0.1242 -0.2009
 3412TIP3   OH231794   3.540   1.759   7.633 -0.3425  0.1872  0.9685
 3412TIP3    H131795   3.549   1.850   7.603 -0.3977  0.5833  2.1253
 3412TIP3    H231796   3.455   1.731   7.599 -0.6116  0.7767  1.1395
 3413TIP3   OH231797   4.222   5.036   1.981  0.0267  0.2535  0.3020
 3413TIP3    H131798   4.159   5.004   1.916 -0.6495 -1.8018  1.8696
 3413TIP3    H231799   4.243   5.125   1.951 -1.7421  0.1198 -1.6199
 3414TIP3   OH231800   2.978   4.608   7.059  0.1872 -0.0385  0.0551
 3414TIP3    H131801   2.893   4.618   7.101 -0.5249  1.7396 -1.7032
 3414TIP3    H231802   3.038   4.660   7.114 -0.5804  1.6032 -0.5918
 3415TIP3   OH231803   5.452   5.514   1.554 -0.0174 -0.6575 -0.1268
 3415TIP3    H131804   5.465   5.443   1.617  0.2104 -0.2457  0.2969
 3415TIP3    H231805   5.459   5.594   1.606 -0.5940 -0.3274 -0.5379
 3416TIP3   OH231806   4.485   1.814   7.698 -0.2069  0.1233 -0.2714
 3416TIP3    H131807   4.433   1.884   7.658 -0.1886  0.4957  0.3423
 3416TIP3    H231808   4.481   1.832   7.792 -1.2639 -1.4254  0.0146
 3417TIP3   OH231809   6.166   4.554   0.903 -0.5167 -0.3439 -0.7435
 3417TIP3    H131810   6.158   4.481   0.964  0.5737  0.0627 -0.0719
 3417TIP3    H231811   6.151   4.632   0.957  0.0405 -0.0009 -1.0747
 3418TIP3   OH231812   2.834   4.112   7.883 -0.3873 -0.5652  0.2275
 3418TIP3    H131813   2.792   4.046   7.937  1.0969 -0.3416  1.7013
 3418TIP3    H231814   2.768   4.181   7.875 -0.2630 -0.0790  2.7706
 3419TIP3   OH231815   2.881   0.050   5.667  0.1300  0.3780  0.4638
 3419TIP3    H131816   2.858   0.135   5.628  0.6181  0.9316  1.3436
 3419TIP3    H231817   2.798   0.002   5.670  0.0161  0.4321 -0.9409
 3420TIP3   OH231818   3.702   5.094   6.658  0.8238 -0.8108 -0.1363
 3420TIP3    H131819   3.647   5.023   6.692  1.2162 -0.1471  2.0583
 3420TIP3    H231820   3.781   5.091   6.711  1.5741  0.2256 -1.1438
 3421TIP3   OH231821   6.946   3.715   0.192 -0.7471 -0.0273  0.1982
 3421TIP3    H131822   7.014   3.769   0.234 -1.7446  1.8851 -0.4915
 3421TIP3    H231823   6.994   3.663   0.128  0.0769  1.8389 -0.8089
 3422TIP3   OH231824   2.698   3.046   6.437 -0.4441  0.4490  0.2805
 3422TIP3    H131825   2.642   2.995   6.495 -0.5955  0.4883  0.1701
 3422TIP3    H231826   2.672   3.018   6.349 -0.5062  0.6926  0.2212
 3423TIP3   OH231827   6.984   1.536   1.254 -0.8400 -0.0237 -0.1863
 3423TIP3    H131828   7.048   1.573   1.315 -1.4599 -1.8485  1.7017
 3423TIP3    H231829   6.927   1.609   1.231 -1.6643  0.4435  2.9032
 3424TIP3   OH231830   4.536   5.172   0.294 -0.4605 -0.5490  0.6977
 3424TIP3    H131831   4.563   5.090   0.336 -0.4905 -0.0364  1.7311
 3424TIP3    H231832   4.469   5.209   0.352 -0.5125  0.1647  0.1980
 3425TIP3   OH231833   7.116   1.687   1.450  0.4181  0.3721 -0.4237
 3425TIP3    H131834   7.137   1.682   1.543  2.1474 -1.2707 -0.8291
 3425TIP3    H231835   7.183   1.745   1.413 -0.4675  1.2982 -0.6165
 3426TIP3   OH231836   2.169   6.662   0.425 -0.0646 -0.1520 -0.0087
 3426TIP3    H131837   2.187   6.569   0.411 -2.0160 -0.6477  0.3895
 3426TIP3    H231838   2.168   6.700   0.337 -1.4894 -1.0109 -0.4010
 3427TIP3   OH231839   2.650   6.073   6.454 -0.4262  0.5192  0.2310
 3427TIP3    H131840   2.719   6.023   6.410 -2.2117 -1.5524 -0.3606
 3427TIP3    H231841   2.619   6.134   6.388  0.1793  0.8058  0.2008
 3428TIP3   OH231842   1.066   1.882   1.070 -0.6389 -0.3375  0.0022
 3428TIP3    H131843   1.062   1.791   1.042  0.4815  0.3824 -2.8550
 3428TIP3    H231844   1.114   1.880   1.154  0.9612 -2.2287 -0.8805
 3429TIP3   OH231845   4.297   2.241   7.478  0.0512 -1.0216  0.6564
 3429TIP3    H131846   4.316   2.165   7.533 -0.4000  0.9899  3.8440
 3429TIP3    H231847   4.205   2.261   7.496  0.7642  1.6266  1.8815
 3430TIP3   OH231848   4.767   1.938   1.430  0.0375 -0.2769 -0.8588
 3430TIP3    H131849   4.797   2.025   1.404 -0.4348 -0.4769 -2.1200
 3430TIP3    H231850   4.759   1.890   1.348  0.6969 -1.6559 -0.1463
 3431TIP3   OH231851   1.054   0.343   0.290  0.6144  0.1349  0.1128
 3431TIP3    H131852   1.001   0.282   0.340  1.7463 -1.8727 -0.9951
 3431TIP3    H231853   1.107   0.389   0.356 -1.3488  1.1076  1.0884
 3432TIP3   OH231854   5.646   4.668   8.009 -0.4005  0.5132  0.3655
 3432TIP3    H131855   5.667   4.761   8.007  0.1043  0.3940 -0.8910
 3432TIP3    H231856   5.591   4.654   7.932 -2.5538  0.2073  1.8608
 3433TIP3   OH231857   4.955   4.038   7.948 -0.5208  0.4939  0.0206
 3433TIP3    H131858   4.880   4.092   7.923 -0.5942  0.0337 -0.7688
 3433TIP3    H231859   4.917   3.956   7.978 -0.3609  0.5047  0.2592
 3434TIP3   OH231860   1.894   0.290   1.597  0.1546 -0.5957 -0.1885
 3434TIP3    H131861   1.971   0.274   1.652  0.4784 -2.3334 -1.0684
 3434TIP3    H231862   1.825   0.313   1.659  1.1380  0.0201  0.7051
 3435TIP3   OH231863   1.402   1.697   1.697  0.3094 -0.2884  0.0513
 3435TIP3    H131864   1.447   1.614   1.708  1.5370  0.6443  2.8263
 3435TIP3    H231865   1.313   1.682   1.729  1.0279 -0.1612  2.2371
 3436TIP3   OH231866   3.085   1.077   7.455 -0.0743  0.6602 -0.0549
 3436TIP3    H131867   3.034   1.066   7.375 -0.5032  0.7208  0.2082
 3436TIP3    H231868   3.153   1.141   7.431  1.0525 -0.7908 -0.9393
 3437TIP3   OH231869   2.836   4.923   7.309 -0.2211 -0.1915  0.0112
 3437TIP3    H131870   2.927   4.926   7.280  0.0070 -2.0664  0.3708
 3437TIP3    H231871   2.823   5.006   7.355  1.3472  0.0697  0.0637
 3438TIP3   OH231872   2.264   2.087   6.971  0.1638 -0.2080 -0.0829
 3438TIP3    H131873   2.290   2.159   6.913 -0.0409  0.1175  0.2273
 3438TIP3    H231874   2.281   2.008   6.920 -1.7088  0.1159 -1.3075
 3439TIP3   OH231875   3.384   6.953   6.336  0.1318  0.5535 -0.4843
 3439TIP3    H131876   3.445   6.894   6.291  0.7157  0.7780  0.0001
 3439TIP3    H231877   3.299   6.936   6.296  0.2867 -0.6541 -0.3132
 3440TIP3   OH231878   2.994   5.974   0.525 -0.1085 -0.1290  0.7234
 3440TIP3    H131879   2.915   6.005   0.569 -1.6927 -1.4950 -1.0179
 3440TIP3    H231880   3.047   5.935   0.595 -0.0408  2.4431  2.2318
 3441TIP3   OH231881   6.619   5.233   0.509  0.6924 -0.3258 -0.0554
 3441TIP3    H131882   6.699   5.241   0.456  0.8457  0.3962  0.2717
 3441TIP3    H231883   6.552   5.206   0.447  1.0208 -0.1568 -0.4893
 3442TIP3   OH231884   0.026   2.387   6.175 -0.3824  0.6200  0.0256
 3442TIP3    H131885  -0.024   2.318   6.131  0.3430  0.1068 -0.0100
 3442TIP3    H231886   0.029   2.459   6.112 -1.9665  1.0839  0.4196
 3443TIP3   OH231887   1.182   5.101   0.471 -0.9035 -0.3357  0.1661
 3443TIP3    H131888   1.237   5.067   0.541 -0.9895 -0.5979  0.1074
 3443TIP3    H231889   1.244   5.144   0.411 -0.9714  1.1859  1.1249
 3444TIP3   OH231890   0.982   1.806   6.624 -0.2619  0.7071  0.4030
 3444TIP3    H131891   0.925   1.806   6.547 -2.2199 -1.3616  1.7209
 3444TIP3    H231892   0.965   1.722   6.667  2.9460  0.5069  1.5698
 3445TIP3   OH231893   4.723   2.359   0.353 -0.4202  0.5163  0.0485
 3445TIP3    H131894   4.808   2.398   0.376  0.6685 -2.6976  2.2003
 3445TIP3    H231895   4.680   2.425   0.300  2.6029  3.1246  0.5404
 3446TIP3   OH231896   1.885   6.197   0.763 -0.1921  0.0434 -0.3649
 3446TIP3    H131897   1.952   6.225   0.825 -0.7363  2.7479 -0.9122
 3446TIP3    H231898   1.918   6.226   0.678 -0.3534 -1.9511 -1.1715
 3447TIP3   OH231899   6.989   3.792   5.797  0.3138  0.4190  0.2516
 3447TIP3    H131900   6.972   3.883   5.775  1.5254  0.8119  0.8918
 3447TIP3    H231901   7.084   3.782   5.787  0.2248 -0.7117  0.4077
 3448TIP3   OH231902   2.951   1.793   1.636  0.2086 -0.4965  0.7591
 3448TIP3    H131903   2.862   1.779   1.669  0.2258 -1.4630  0.4275
 3448TIP3    H231904   3.007   1.779   1.713  0.0678  0.3181  1.0151
 3449TIP3   OH231905   2.625   0.571   7.465  0.3447  0.1318  0.3290
 3449TIP3    H131906   2.579   0.625   7.401  0.5656 -0.3344 -0.2386
 3449TIP3    H231907   2.717   0.580   7.443  0.3551 -0.8432 -0.0900
 3450TIP3   OH231908   4.057   4.612   6.635 -0.1823 -0.2794 -0.5308
 3450TIP3    H131909   4.025   4.699   6.612 -1.8187 -0.3299  1.3573
 3450TIP3    H231910   4.153   4.619   6.627 -0.3543  1.2597 -1.7058
 3451TIP3   OH231911   5.084   6.472   7.502 -0.7892  0.0891 -0.6268
 3451TIP3    H131912   5.052   6.408   7.438  0.5816 -0.3821 -0.8711
 3451TIP3    H231913   5.091   6.554   7.452 -1.2403  0.1114 -0.6617
 3452TIP3   OH231914   5.514   3.287   5.898  0.2158 -0.3672  0.4448
 3452TIP3    H131915   5.432   3.302   5.946  0.5231  0.1687  0.8138
 3452TIP3    H231916   5.562   3.369   5.907  1.6322 -1.2788  1.8911
 3453TIP3   OH231917   3.271   4.988   0.055  0.4220 -0.1669 -0.2386
 3453TIP3    H131918   3.308   5.076   0.044  0.1654 -0.2410 -2.0288
 3453TIP3    H231919   3.312   4.954   0.135  0.6328  1.5129  0.3976
 3454TIP3   OH231920   1.779   4.443   6.037  0.2283 -0.2537  0.1840
 3454TIP3    H131921   1.793   4.350   6.056  2.0578  0.0145  0.2821
 3454TIP3    H231922   1.867   4.479   6.026 -0.4173  1.6357  0.8834
 3455TIP3   OH231923   6.799   2.048   7.523  0.4564  0.2345  0.1408
 3455TIP3    H131924   6.879   1.996   7.518  0.3302 -0.0926  1.1761
 3455TIP3    H231925   6.738   1.994   7.573  0.1544  1.1589  0.8096
 3456TIP3   OH231926   3.898   4.519   7.245  0.1627  0.2243  0.0317
 3456TIP3    H131927   3.809   4.492   7.222  0.3241  0.0441 -0.3872
 3456TIP3    H231928   3.920   4.586   7.179 -0.2086  1.3491  1.0102
 3457TIP3   OH231929   2.652   4.587   0.985  0.4633 -0.4680  0.9791
 3457TIP3    H131930   2.683   4.678   0.992  1.6031 -0.8224  0.6730
 3457TIP3    H231931   2.687   4.544   1.063  1.1737 -0.9897  0.3839
 3458TIP3   OH231932   2.338   6.889   7.211 -0.0032 -0.4187  0.5983
 3458TIP3    H131933   2.399   6.833   7.162 -0.1375 -1.4160  1.5386
 3458TIP3    H231934   2.276   6.920   7.145 -0.0728 -1.5904  0.0860
 3459TIP3   OH231935   0.475   3.894   6.384 -0.0556 -0.7515 -0.1021
 3459TIP3    H131936   0.422   3.969   6.410 -0.8073 -1.3265  0.0491
 3459TIP3    H231937   0.435   3.862   6.304  0.1978 -1.0577 -0.1110
 3460TIP3   OH231938   7.038   4.258   0.242  0.0858 -0.3197  0.3722
 3460TIP3    H131939   7.106   4.191   0.233  0.2312  0.0261 -1.4805
 3460TIP3    H231940   7.082   4.340   0.218 -0.9301 -0.0693 -0.6989
 3461TIP3   OH231941   1.753   6.321   7.232  0.0770  0.1734  0.3587
 3461TIP3    H131942   1.760   6.242   7.286  1.7742  1.5769  2.3577
 3461TIP3    H231943   1.756   6.393   7.295 -1.1738  1.8711 -1.4266
 3462TIP3   OH231944   0.348   6.272   0.728  0.3895 -0.5746 -0.3112
 3462TIP3    H131945   0.271   6.319   0.761  0.0429 -1.1530 -0.2903
 3462TIP3    H231946   0.387   6.333   0.665  0.2316 -0.0530  0.0878
 3463TIP3   OH231947   3.841   4.078   7.438 -0.3247  0.2830  0.5833
 3463TIP3    H131948   3.746   4.088   7.436 -0.2578  1.9281 -3.1050
 3463TIP3    H231949   3.874   4.167   7.438  1.1383 -0.2177 -0.7163
 3464TIP3   OH231950   2.379   6.097   0.298 -0.2084  0.1148 -0.1993
 3464TIP3    H131951   2.446   6.028   0.300 -0.4305 -0.2967 -3.1668
 3464TIP3    H231952   2.385   6.137   0.385  0.6605 -2.9067  1.3018
 3465TIP3   OH231953   7.001   6.674   0.429 -0.4685  0.1616 -0.0125
 3465TIP3    H131954   6.985   6.593   0.477 -1.2184 -0.2145 -0.8444
 3465TIP3    H231955   7.088   6.663   0.391  0.0943  0.4331  1.1763
 3466TIP3   OH231956   2.327   6.163   6.030  0.3889  0.6596 -0.8062
 3466TIP3    H131957   2.235   6.168   6.005  0.7205  2.0916 -1.8608
 3466TIP3    H231958   2.374   6.162   5.946  1.3269 -0.3279 -0.2856
 3467TIP3   OH231959   1.735   0.527   6.641  0.4980  0.3527  0.4846
 3467TIP3    H131960   1.714   0.478   6.561  1.4309  0.2747  0.2672
 3467TIP3    H231961   1.831   0.529   6.642  0.4793  1.0673  1.1757
 3468TIP3   OH231962   3.760   2.049   7.837 -0.0231  0.4554  0.6452
 3468TIP3    H131963   3.715   2.132   7.818  1.1810  1.3694  1.6527
 3468TIP3    H231964   3.697   1.982   7.810 -1.2364  1.6803  0.2742
 3469TIP3   OH231965   3.798   4.666   1.563 -0.1678 -0.0516  0.4185
 3469TIP3    H131966   3.760   4.641   1.478  1.8470 -1.1809 -0.2013
 3469TIP3    H231967   3.775   4.594   1.622  0.1171 -0.2164  0.3261
 3470TIP3   OH231968   3.215   5.871   7.785  0.0283  0.4692 -0.1451
 3470TIP3    H131969   3.310   5.880   7.774  0.2090 -0.1878  0.7805
 3470TIP3    H231970   3.199   5.777   7.786 -0.4680  0.5417  0.8719
 3471TIP3   OH231971   6.772   3.128   1.517 -0.3659 -0.5770 -0.2292
 3471TIP3    H131972   6.784   3.035   1.537  0.3171  0.1854  3.6993
 3471TIP3    H231973   6.677   3.139   1.513 -0.4500 -1.5304 -1.5322
 3472TIP3   OH231974   2.794   2.686   0.721  0.3861 -0.1106  0.3358
 3472TIP3    H131975   2.720   2.673   0.780 -0.0318  2.3814  0.4833
 3472TIP3    H231976   2.871   2.660   0.772 -0.1936 -0.6163  0.9741
 3473TIP3   OH231977   4.607   0.584   6.315  0.4632 -0.3566  0.7920
 3473TIP3    H131978   4.580   0.583   6.223 -0.0465  1.0834  0.8933
 3473TIP3    H231979   4.702   0.597   6.312  0.4494 -0.3261  0.4572
 3474TIP3   OH231980   3.333   1.634   6.701 -0.9330  0.2309 -0.1879
 3474TIP3    H131981   3.251   1.599   6.735 -0.5007 -2.6074 -1.7042
 3474TIP3    H231982   3.318   1.646   6.607  0.0440  0.7478 -0.2963
 3475TIP3   OH231983   0.814   5.295   6.575 -0.3735 -0.4668 -0.1568
 3475TIP3    H131984   0.816   5.214   6.626 -0.7363 -0.1575  0.3593
 3475TIP3    H231985   0.744   5.282   6.511 -0.4857 -0.5335 -0.0215
 3476TIP3   OH231986   5.349   5.105   0.423 -0.0131  0.1467 -0.1317
 3476TIP3    H131987   5.338   5.115   0.518 -2.5007  2.0033 -0.5169
 3476TIP3    H231988   5.416   5.169   0.400 -1.2354  1.5828  0.1169
 3477TIP3   OH231989   5.404   4.196   7.181 -0.3302  0.3614  0.3792
 3477TIP3    H131990   5.415   4.145   7.100 -0.0678 -0.4388  0.9032
 3477TIP3    H231991   5.418   4.287   7.154  0.9969 -0.0023 -0.2540
 3478TIP3   OH231992   0.114   4.118   7.359  0.2848  0.7495  0.1507
 3478TIP3    H131993   0.114   4.189   7.295 -0.7762  0.8478  0.2460
 3478TIP3    H231994   0.104   4.162   7.443 -0.4944  0.4916  0.2002
 3479TIP3   OH231995   6.228   1.666   0.356  0.5017 -0.2533 -0.3597
 3479TIP3    H131996   6.266   1.648   0.270 -0.7503  0.0579 -0.9959
 3479TIP3    H231997   6.252   1.590   0.410  2.2377  0.0509 -0.6326
 3480TIP3   OH231998   2.977   5.453   6.498  0.1902 -0.1078 -0.0693
 3480TIP3    H131999   2.978   5.547   6.517  0.3530 -0.4649  1.8904
 3480TIP3    H232000   2.890   5.423   6.525 -0.9223 -0.1071 -3.2712
 3481TIP3   OH232001   1.225   3.227   0.053  0.1412 -0.6469 -0.2645
 3481TIP3    H132002   1.135   3.242   0.025  0.2816 -1.3839 -1.1537
 3481TIP3    H232003   1.278   3.251  -0.023  0.6237 -1.3041 -0.1474
 3482TIP3   OH232004   1.182   5.220   7.392  0.2085 -0.4538  0.4595
 3482TIP3    H132005   1.259   5.259   7.352 -1.4715  2.5970 -0.1410
 3482TIP3    H232006   1.162   5.144   7.337  1.1121  0.4339 -1.1722
 3483TIP3   OH232007   4.400   4.112   6.428  0.2748 -0.2414 -0.2668
 3483TIP3    H132008   4.354   4.193   6.404  2.4349  0.4892 -2.4099
 3483TIP3    H232009   4.471   4.141   6.486  0.4844 -0.7229 -0.2758
 3484TIP3   OH232010   6.564   4.022   0.678 -0.2272 -0.5818 -0.1028
 3484TIP3    H132011   6.549   3.928   0.674  0.7658 -0.7969  0.7137
 3484TIP3    H232012   6.489   4.061   0.634 -1.3898 -1.6844  0.8522
 3485TIP3   OH232013   0.216   3.168   5.515 -0.2718 -0.0361  0.0628
 3485TIP3    H132014   0.135   3.118   5.513 -0.0650 -0.3572 -1.3778
 3485TIP3    H232015   0.280   3.108   5.553 -0.4764 -0.1472  0.2297
 3486TIP3   OH232016   6.044   0.539   1.566 -0.4264  0.0071 -0.4492
 3486TIP3    H132017   6.107   0.610   1.551 -1.1601  0.6222 -0.7031
 3486TIP3    H232018   6.071   0.469   1.506  0.2623  0.0940 -0.2488
 3487TIP3   OH232019   5.399   0.997   6.358 -0.2838 -0.0535 -0.1808
 3487TIP3    H132020   5.460   1.026   6.291 -0.4506 -0.9226 -0.7249
 3487TIP3    H232021   5.429   1.040   6.438  0.6019  0.0916 -0.5811
 3488TIP3   OH232022   5.842   0.621   7.356  0.3703  0.2856 -0.2558
 3488TIP3    H132023   5.913   0.685   7.355  0.2716  0.3923 -0.5466
 3488TIP3    H232024   5.878   0.545   7.311 -0.4148  1.1277 -2.4636
 3489TIP3   OH232025   5.698   1.507   7.480  0.1470 -0.2419 -0.2728
 3489TIP3    H132026   5.747   1.587   7.462 -0.9740  0.6168  0.4315
 3489TIP3    H232027   5.649   1.525   7.560 -0.7458 -1.3541 -0.5403
 3490TIP3   OH232028   3.719   6.212   0.827 -0.2579  0.0369  0.2985
 3490TIP3    H132029   3.743   6.138   0.771 -1.0602  0.1041 -0.1443
 3490TIP3    H232030   3.716   6.175   0.915  0.8434 -0.1066  0.2978
 3491TIP3   OH232031   2.674   2.664   1.074  0.3316 -0.3450  0.2770
 3491TIP3    H132032   2.661   2.570   1.063  0.5267 -0.5481  1.5906
 3491TIP3    H232033   2.760   2.672   1.116  0.0672  0.3859  0.6994
 3492TIP3   OH232034   1.008   1.863   7.323  0.1990  0.4657  0.4707
 3492TIP3    H132035   1.068   1.792   7.302  1.3371  1.5761 -0.2031
 3492TIP3    H232036   0.931   1.847   7.268  1.5202  1.1539 -1.7022
 3493TIP3   OH232037   2.038   4.077   0.510 -0.2604 -0.4743 -1.0831
 3493TIP3    H132038   1.947   4.050   0.518 -0.3594 -0.1146 -0.9716
 3493TIP3    H232039   2.054   4.080   0.415 -1.6196  3.4352 -1.3939
 3494TIP3   OH232040   0.589   4.974   1.260 -0.1848  0.4060 -0.5512
 3494TIP3    H132041   0.616   4.904   1.201 -1.2120 -0.3017 -0.2042
 3494TIP3    H232042   0.639   4.958   1.340 -1.5127 -0.8828  0.0783
 3495TIP3   OH232043   6.913   3.828   7.537 -0.2337  0.3960  0.7046
 3495TIP3    H132044   6.997   3.853   7.498 -0.0505  0.2205  0.9859
 3495TIP3    H232045   6.912   3.870   7.623 -0.2323  0.0210  0.8896
 3496TIP3   OH232046   3.051   1.232   1.331  0.5129 -0.1620 -0.4007
 3496TIP3    H132047   3.130   1.233   1.385  0.6902 -0.8094 -0.6440
 3496TIP3    H232048   3.060   1.154   1.277 -1.6296 -1.9131  1.5397
 3497TIP3   OH232049   6.332   2.660   0.243 -0.6799  0.1584 -0.6680
 3497TIP3    H132050   6.371   2.709   0.171  0.8657 -0.2669 -0.1674
 3497TIP3    H232051   6.305   2.577   0.204 -1.7943  0.7234 -1.1651
 3498TIP3   OH232052   6.666   4.609   0.140  0.1702 -0.0243  0.1190
 3498TIP3    H132053   6.744   4.619   0.194  0.6258  1.2743 -0.7277
 3498TIP3    H232054   6.689   4.651   0.057 -1.6504  0.9685  0.0832
 3499TIP3   OH232055   3.551   3.502   6.206 -0.3289 -0.3402  0.0889
 3499TIP3    H132056   3.634   3.473   6.243  0.5045  1.1261 -0.5364
 3499TIP3    H232057   3.553   3.471   6.115 -0.1849  0.1996 -0.0979
 3500TIP3   OH232058   6.008   3.374   7.011  0.3321  0.4835  0.2027
 3500TIP3    H132059   6.032   3.341   7.098  2.2075 -0.4649 -0.6333
 3500TIP3    H232060   5.926   3.421   7.026  0.8565  0.7889  2.5796
 3501TIP3   OH232061   0.516   4.041   1.142 -0.3186  0.4837 -0.5574
 3501TIP3    H132062   0.497   4.063   1.234  0.0287  1.4007 -0.6956
 3501TIP3    H232063   0.529   3.946   1.143  0.7493  0.6060  0.5437
 3502TIP3   OH232064   6.558   7.083   1.010  0.7087  0.0930 -0.3560
 3502TIP3    H132065   6.472   7.092   0.968  1.7343 -1.1496 -2.9349
 3502TIP3    H232066   6.610   7.154   0.974  1.2152 -0.1084 -0.0257
 3503TIP3   OH232067   2.166   0.416   7.220 -0.1760 -0.0714  0.2022
 3503TIP3    H132068   2.136   0.504   7.245 -0.0480 -0.2420  0.9560
 3503TIP3    H232069   2.217   0.385   7.295 -1.0223 -1.1866  0.3318
 3504TIP3   OH232070   5.434   0.166   7.198 -0.2024  0.3613 -0.0265
 3504TIP3    H132071   5.462   0.162   7.107  1.1438 -0.2612  0.3994
 3504TIP3    H232072   5.509   0.201   7.246 -0.1679 -1.1331  1.1121
 3505TIP3   OH232073   0.272   6.235   7.844  0.0386  0.4391 -0.7935
 3505TIP3    H132074   0.278   6.303   7.777  0.7107 -1.6647 -3.0152
 3505TIP3    H232075   0.348   6.180   7.829 -2.1280 -2.6772 -1.3033
 3506TIP3   OH232076   0.570   2.111   7.038  0.8208  0.1048 -0.2674
 3506TIP3    H132077   0.529   2.034   7.077  2.8372 -0.4221  0.9722
 3506TIP3    H232078   0.514   2.184   7.063  0.1565 -0.6778  0.5661
 3507TIP3   OH232079   4.654   7.058   6.633  0.4581 -0.3837 -0.3748
 3507TIP3    H132080   4.676   6.971   6.665 -0.4784 -1.0887 -1.5676
 3507TIP3    H232081   4.571   7.079   6.675  1.2831  0.4998  0.8867
 3508TIP3   OH232082   2.990   5.697   6.830  0.1506  0.0175 -0.1556
 3508TIP3    H132083   2.971   5.618   6.881  1.0434 -0.0915  0.0158
 3508TIP3    H232084   3.019   5.664   6.745 -1.4819  0.2001 -0.8148
 3509TIP3   OH232085   3.520   0.139   0.909 -0.0252  0.5252  0.0023
 3509TIP3    H132086   3.587   0.070   0.904  0.0967  0.5449  1.1259
 3509TIP3    H232087   3.462   0.121   0.835 -0.1159 -0.9153  0.3766
 3510TIP3   OH232088   2.029   0.592   6.642  0.1456  0.2923  0.0502
 3510TIP3    H132089   2.014   0.653   6.714  1.0960  0.7714 -0.1457
 3510TIP3    H232090   2.063   0.513   6.683 -1.9629 -0.4978  0.4089
 3511TIP3   OH232091   5.747   4.812   1.137 -0.4362 -0.7316  0.6372
 3511TIP3    H132092   5.813   4.770   1.082  0.7455  1.0574  0.5781
 3511TIP3    H232093   5.663   4.778   1.106  0.2539 -0.4997 -1.6132
 3512TIP3   OH232094   4.041   0.937   7.630  0.4224  0.4288  0.4589
 3512TIP3    H132095   4.074   0.854   7.597  1.9495  1.3324 -0.4172
 3512TIP3    H232096   4.118   0.993   7.634 -0.6799  2.0155  0.3609
 3513TIP3   OH232097   6.123   5.695   1.106  0.6346 -0.1613  0.5545
 3513TIP3    H132098   6.097   5.687   1.014  1.3878 -1.4839  0.4351
 3513TIP3    H232099   6.041   5.697   1.154  0.1356  2.4951 -0.2321
 3514TIP3   OH232100   2.696   0.319   0.133  0.5608 -0.1191  0.3689
 3514TIP3    H132101   2.680   0.235   0.089  0.6831 -0.3472  0.7535
 3514TIP3    H232102   2.653   0.384   0.078  0.1198 -0.4828  0.2779
 3515TIP3   OH232103   2.598   0.461   6.994 -0.4017 -0.3616  0.4005
 3515TIP3    H132104   2.624   0.369   6.995 -0.3815 -0.3600  1.2847
 3515TIP3    H232105   2.604   0.487   6.902 -1.9102 -1.6496 -0.1022
 3516TIP3   OH232106   6.584   7.025   6.667 -0.0049  0.0144 -0.2691
 3516TIP3    H132107   6.664   7.017   6.719 -0.5902  0.3246  0.6977
 3516TIP3    H232108   6.563   7.118   6.669 -1.1320 -0.2390  0.6362
 3517TIP3   OH232109   7.103   0.760   6.847  0.0543 -0.1216  0.2082
 3517TIP3    H132110   7.068   0.695   6.786 -0.5844 -1.2205  1.6966
 3517TIP3    H232111   7.077   0.729   6.933  2.7010  0.2898  1.2432
 3518TIP3   OH232112   5.098   5.814   7.654 -0.3821 -0.2165 -0.0986
 3518TIP3    H132113   5.027   5.758   7.687 -0.5734 -1.0818 -1.8686
 3518TIP3    H232114   5.171   5.797   7.714 -1.5272  0.4727  1.5930
 3519TIP3   OH232115   2.968   2.903   0.017 -0.0684 -0.2767 -1.0381
 3519TIP3    H132116   3.044   2.876  -0.034  0.3192  0.2782 -0.7790
 3519TIP3    H232117   3.004   2.964   0.082 -0.5097 -1.1289  0.0379
 3520TIP3   OH232118   7.074   3.625   7.992  0.3615 -0.4893  0.1447
 3520TIP3    H132119   7.001   3.673   7.952  0.6202  0.4774  0.8076
 3520TIP3    H232120   7.147   3.640   7.932  0.8496  1.2822  1.1387
 3521TIP3   OH232121   2.540   4.638   7.833 -0.0210 -0.2701 -0.0960
 3521TIP3    H132122   2.586   4.593   7.762 -0.3669  0.0644 -0.5362
 3521TIP3    H232123   2.478   4.696   7.789 -1.0988 -0.9370  0.4829
 3522TIP3   OH232124   4.877   4.778   6.586  0.2502  0.2428 -0.0293
 3522TIP3    H132125   4.916   4.860   6.619 -1.3704  0.8460  0.4572
 3522TIP3    H232126   4.856   4.798   6.495  0.0177  0.3068  0.0388
 3523TIP3   OH232127   0.284   7.012   7.373 -0.3926 -0.3397  0.2817
 3523TIP3    H132128   0.243   6.954   7.437 -0.8839  0.2068  0.4719
 3523TIP3    H232129   0.242   7.097   7.387 -0.6970 -0.2694 -0.9393
 3524TIP3   OH232130   5.712   5.372   1.218 -0.5468  0.3003  0.3480
 3524TIP3    H132131   5.732   5.346   1.308  1.1096 -0.4494 -0.2131
 3524TIP3    H232132   5.679   5.292   1.177  0.2909  0.2043 -0.1540
 3525TIP3   OH232133   7.067   3.613   1.314  0.1332  0.1855 -0.0660
 3525TIP3    H132134   7.121   3.571   1.381 -1.3210 -0.0435  1.0257
 3525TIP3    H232135   6.979   3.576   1.328 -0.4057  0.8519 -1.4947
 3526TIP3   OH232136   5.576   1.480   0.309 -0.0501  0.4767  0.3295
 3526TIP3    H132137   5.565   1.448   0.219 -1.4259  0.5633  0.4485
 3526TIP3    H232138   5.587   1.401   0.361 -1.8805  0.2145  0.4081
 3527TIP3   OH232139   1.191   0.865   0.833 -0.3994  0.5793  0.2165
 3527TIP3    H132140   1.241   0.937   0.794  2.1746 -0.8867  0.5688
 3527TIP3    H232141   1.206   0.791   0.774 -1.2779 -0.2078  0.9496
 3528TIP3   OH232142   6.078   0.710   0.175  0.3658 -0.5606 -0.1798
 3528TIP3    H132143   6.130   0.764   0.116 -0.3152 -0.7617 -0.9896
 3528TIP3    H232144   6.118   0.623   0.171  1.4217 -0.1631  1.0733
 3529TIP3   OH232145   0.756   6.947   1.580  0.0423  0.0808 -0.2394
 3529TIP3    H132146   0.711   6.978   1.501 -0.1613 -1.3935 -0.7371
 3529TIP3    H232147   0.799   6.866   1.552  0.1855 -0.3200  1.0997
 3530TIP3   OH232148   2.321   3.966   6.647  0.0254 -0.4717 -0.1404
 3530TIP3    H132149   2.391   3.909   6.615 -0.5948 -0.1311 -2.2452
 3530TIP3    H232150   2.251   3.957   6.583 -0.6705  1.5110  0.2588
 3531TIP3   OH232151   1.525   3.833   5.652 -0.2734  0.2371 -0.0335
 3531TIP3    H132152   1.457   3.900   5.649 -0.1908  0.7614  4.0524
 3531TIP3    H232153   1.607   3.881   5.641 -0.3366  0.1912 -0.8067
 3532TIP3   OH232154   4.988   6.454   0.899 -0.4341 -0.3406  0.0650
 3532TIP3    H132155   4.949   6.418   0.820  0.0305 -0.7869  0.0298
 3532TIP3    H232156   5.012   6.377   0.951 -0.9385 -0.0555  0.7475
 3533TIP3   OH232157   2.677   0.928   2.136  0.0252  0.4198  0.0762
 3533TIP3    H132158   2.721   0.888   2.062 -0.8591 -0.2487 -0.1105
 3533TIP3    H232159   2.745   0.937   2.203  0.5249 -0.2547 -0.3308
 3534TIP3   OH232160   3.623   2.542   6.896 -0.2876  0.2625  0.0649
 3534TIP3    H132161   3.713   2.516   6.879 -0.0911  0.2356  1.0898
 3534TIP3    H232162   3.616   2.543   6.992 -1.2829  0.5665 -0.0025
 3535TIP3   OH232163   1.124   4.970   1.045 -0.0802 -1.2349 -0.0558
 3535TIP3    H132164   1.111   5.056   1.006 -1.4918 -1.1444  0.5624
 3535TIP3    H232165   1.206   4.977   1.093  1.0462 -0.9676 -1.8975
 3536TIP3   OH232166   5.232   0.939   7.476 -0.1823 -0.1516  0.4975
 3536TIP3    H132167   5.196   1.014   7.429 -1.5005  0.2725  2.0950
 3536TIP3    H232168   5.326   0.956   7.482 -0.0011 -0.0777 -1.6370
 3537TIP3   OH232169   1.948   3.993   7.869  0.3368  0.5611  0.5858
 3537TIP3    H132170   1.903   4.048   7.804  2.6024  0.1314 -1.4678
 3537TIP3    H232171   2.026   4.043   7.893  1.1422 -0.6596  0.5737
 3538TIP3   OH232172   0.306   6.336   7.579 -0.3544  0.1002 -0.2500
 3538TIP3    H132173   0.291   6.242   7.570 -2.2555  0.2398  0.9141
 3538TIP3    H232174   0.234   6.378   7.532 -0.4205  0.9358  0.5487
 3539TIP3   OH232175   3.201   6.641   1.147  0.0440 -0.0792 -0.1946
 3539TIP3    H132176   3.269   6.575   1.151 -0.3450 -0.4453  0.4824
 3539TIP3    H232177   3.144   6.623   1.221  0.8714  2.0450  1.0534
 3540TIP3   OH232178   1.445   1.296   5.538  0.2424  0.4261  0.4789
 3540TIP3    H132179   1.465   1.368   5.598  0.7059 -0.0680  0.9248
 3540TIP3    H232180   1.369   1.327   5.488  0.2323  1.0870  0.8921
 3541TIP3   OH232181   4.707   5.476   6.688  0.1344 -0.1356  0.3923
 3541TIP3    H132182   4.796   5.444   6.679  0.4304  0.6542  0.4141
 3541TIP3    H232183   4.654   5.398   6.703  0.9189 -0.5555  1.0595
 3542TIP3   OH232184   5.718   0.365   1.743  0.4952  0.4881 -0.5037
 3542TIP3    H132185   5.686   0.365   1.833 -0.5437 -0.5517 -0.8515
 3542TIP3    H232186   5.735   0.458   1.723  1.6204  0.6495  1.0356
 3543TIP3   OH232187   0.514   5.391   1.308 -0.2271  0.5688 -0.3465
 3543TIP3    H132188   0.590   5.390   1.250  0.4188 -0.0242  0.4974
 3543TIP3    H232189   0.550   5.410   1.395 -1.0127  0.0763  0.0936
 3544TIP3   OH232190   2.609   6.442   1.673 -0.7426 -0.1809 -0.0495
 3544TIP3    H132191   2.690   6.393   1.661 -1.2764 -0.9731 -0.4605
 3544TIP3    H232192   2.568   6.443   1.586 -1.7622 -0.8448  0.4088
 3545TIP3   OH232193   1.882   1.082   1.195  0.1679 -0.3751  0.2479
 3545TIP3    H132194   1.970   1.046   1.210  0.6463  0.5802 -0.1478
 3545TIP3    H232195   1.894   1.143   1.122 -0.6701  0.3418  0.6918
 3546TIP3   OH232196   2.926   6.545   7.051 -0.2851 -0.4776  0.1409
 3546TIP3    H132197   2.887   6.590   7.127 -0.7988  0.3118 -0.5618
 3546TIP3    H232198   2.862   6.477   7.029 -0.0602 -0.8097  0.5098
 3547TIP3   OH232199   5.279   4.621   5.566 -0.1526  0.5683 -0.7650
 3547TIP3    H132200   5.252   4.681   5.636  1.6749 -0.1548  0.6139
 3547TIP3    H232201   5.369   4.645   5.547  0.5090 -1.4849 -0.4212
 3548TIP3   OH232202   1.318   2.274   7.830  0.5794 -0.1284  0.5144
 3548TIP3    H132203   1.371   2.290   7.908 -0.1272 -0.1075  0.9979
 3548TIP3    H232204   1.228   2.292   7.858  0.5279  2.1218 -0.9244
 3549TIP3   OH232205   1.383   2.168   7.373  0.3971 -0.3041 -0.8373
 3549TIP3    H132206   1.398   2.142   7.464  1.7263 -0.6981 -1.1354
 3549TIP3    H232207   1.381   2.264   7.375  0.6909 -0.3039 -0.4322
 3550TIP3   OH232208   4.131   7.123   0.545 -0.2015 -0.0175 -0.1760
 3550TIP3    H132209   4.090   7.071   0.614  1.4924  0.0932  0.9455
 3550TIP3    H232210   4.206   7.165   0.586  1.1597 -0.3133 -2.1778
 3551TIP3   OH232211   3.952   5.661   7.500  0.4839  0.2003 -0.6141
 3551TIP3    H132212   4.031   5.609   7.481 -0.3933 -1.2947 -0.3389
 3551TIP3    H232213   3.979   5.751   7.484  2.6857 -0.1120  0.9260
 3552TIP3   OH232214   6.938   2.505   1.313  0.0179 -0.1170  1.0264
 3552TIP3    H132215   7.033   2.514   1.322  0.1201  1.9410 -1.0940
 3552TIP3    H232216   6.922   2.516   1.220 -2.3993  0.7065  1.4715
 3553TIP3   OH232217   3.493   6.816   7.433  0.0071 -0.5740  0.3021
 3553TIP3    H132218   3.577   6.775   7.410 -1.4131 -3.0873 -0.7770
 3553TIP3    H232219   3.457   6.761   7.502 -2.1351 -1.4781 -1.4310
 3554TIP3   OH232220   4.199   4.385   0.102  0.1232  0.4962  0.2479
 3554TIP3    H132221   4.139   4.337   0.045  0.8581 -0.1887  0.0329
 3554TIP3    H232222   4.286   4.352   0.079  0.4131 -0.0792  2.0244
 3555TIP3   OH232223   2.419   1.004   0.025 -0.3164  0.3886  0.1927
 3555TIP3    H132224   2.431   1.098   0.020  0.0726  0.2625 -2.3027
 3555TIP3    H232225   2.481   0.976   0.093 -0.6268  1.9241  1.1568
 3556TIP3   OH232226   2.633   5.370   0.512  0.2087 -0.2601  0.2583
 3556TIP3    H132227   2.651   5.460   0.539  0.9133 -0.5512  0.8121
 3556TIP3    H232228   2.709   5.346   0.458  0.4716 -0.8031  0.8474
 3557TIP3   OH232229   0.905   1.288   0.880 -0.0697 -0.0289  0.1810
 3557TIP3    H132230   0.953   1.371   0.869  0.8364 -0.6091 -0.4065
 3557TIP3    H232231   0.814   1.311   0.862  0.4280  0.4588 -2.0736
 3558TIP3   OH232232   3.489   5.949   1.279  0.0313 -0.0503  0.0730
 3558TIP3    H132233   3.515   5.876   1.223 -1.6301 -0.4529 -0.2271
 3558TIP3    H232234   3.563   5.961   1.339  1.5665 -0.0444 -1.7372
 3559TIP3   OH232235   1.906   6.711   0.048 -0.2859 -0.9147 -0.5087
 3559TIP3    H132236   1.887   6.804   0.057  0.4068 -0.7496 -0.6715
 3559TIP3    H232237   1.854   6.669   0.117  1.1799 -0.1689  1.1275
 3560TIP3   OH232238   3.802   5.722   1.356  0.2702  0.2902  0.1184
 3560TIP3    H132239   3.731   5.714   1.419  0.8402 -0.7662  0.6604
 3560TIP3    H232240   3.793   5.645   1.300  1.0660  0.0659  0.2871
 3561TIP3   OH232241   5.895   3.205   6.834 -0.5030  0.0962 -0.3506
 3561TIP3    H132242   5.956   3.148   6.786  0.4619  1.9063 -1.4166
 3561TIP3    H232243   5.952   3.262   6.886 -1.5233 -1.8966  3.2507
 3562TIP3   OH232244   0.691   2.801   1.367  0.1336 -0.3636 -0.4644
 3562TIP3    H132245   0.780   2.835   1.357 -0.0170 -0.5166 -3.3678
 3562TIP3    H232246   0.702   2.706   1.368  0.0947 -0.3696  1.0199
 3563TIP3   OH232247   6.467   3.101   0.562 -0.0539  0.1822 -0.1180
 3563TIP3    H132248   6.527   3.028   0.554 -1.3102 -0.9282  0.2833
 3563TIP3    H232249   6.380   3.061   0.561 -0.8637  1.8232 -1.9082
 3564TIP3   OH232250   5.861   5.106   1.451  0.2278 -0.0281  0.0630
 3564TIP3    H132251   5.884   5.076   1.538  0.8064  0.3470  0.0418
 3564TIP3    H232252   5.944   5.131   1.411 -0.1811  1.2263 -0.0556
 3565TIP3   OH232253   2.945   1.963   6.914  0.3728  0.3171  0.0547
 3565TIP3    H132254   2.914   2.019   6.843  1.9863 -0.2798 -1.1779
 3565TIP3    H232255   3.041   1.962   6.904  0.7212  0.6811  2.6050
 3566TIP3   OH232256   0.969   4.477   6.929 -0.3030  0.1493 -0.0095
 3566TIP3    H132257   0.915   4.554   6.911 -2.8666 -1.4918  0.2012
 3566TIP3    H232258   0.924   4.405   6.884 -0.3351 -1.9502  3.1207
 3567TIP3   OH232259   3.324   3.417   2.093 -0.2797  0.0960 -0.0901
 3567TIP3    H132260   3.340   3.467   2.013 -1.4373  1.3022  0.3820
 3567TIP3    H232261   3.403   3.431   2.145 -0.1359  0.5586 -0.4198
 3568TIP3   OH232262   2.075   5.989   7.243 -0.5527  0.2601 -0.6477
 3568TIP3    H132263   2.082   6.077   7.205 -1.1404  1.3082  1.5243
 3568TIP3    H232264   2.048   6.004   7.334  1.0348 -2.0898  0.3061
 3569TIP3   OH232265   4.251   1.046   6.408 -0.3727 -0.0323 -0.2168
 3569TIP3    H132266   4.301   1.121   6.441  0.7063 -0.7940 -0.0721
 3569TIP3    H232267   4.227   0.997   6.487 -0.1828 -0.3927 -0.3852
 3570TIP3   OH232268   0.477   2.098   6.222 -0.7242  0.0561  0.0793
 3570TIP3    H132269   0.550   2.159   6.234 -2.2201  1.9329  0.2982
 3570TIP3    H232270   0.515   2.011   6.235  1.4259  0.9509  0.2445
 3571TIP3   OH232271   2.531   4.977   7.966 -0.0691  0.8159  0.3630
 3571TIP3    H132272   2.471   4.904   7.979  1.5859 -1.1737 -2.1618
 3571TIP3    H232273   2.495   5.024   7.892  1.3599 -0.4190 -1.2017
 3572TIP3   OH232274   1.900   3.069   0.749 -0.3886  0.0710 -0.1351
 3572TIP3    H132275   1.982   3.114   0.768 -0.8579  0.9411 -0.0872
 3572TIP3    H232276   1.839   3.139   0.726 -1.1650 -0.5391 -0.0054
 3573TIP3   OH232277   6.493   5.597   1.142  0.2096  0.2179 -0.0894
 3573TIP3    H132278   6.417   5.552   1.179 -0.0763  1.5425  1.0108
 3573TIP3    H232279   6.461   5.634   1.060 -0.0259 -0.1468 -0.1647
 3574TIP3   OH232280   2.091   1.418   5.837 -0.0121  0.2902 -0.8633
 3574TIP3    H132281   2.098   1.511   5.819  0.6425  0.9542  2.2203
 3574TIP3    H232282   2.069   1.413   5.930  2.3768 -2.6120 -0.3011
 3575TIP3   OH232283   6.234   4.974   1.025  0.1710  0.2457 -0.8072
 3575TIP3    H132284   6.245   4.984   0.930 -0.1101 -0.1456 -0.8855
 3575TIP3    H232285   6.303   5.028   1.063  0.2318  0.4756 -1.2346
 3576TIP3   OH232286   5.998   5.353   1.049 -0.0031 -0.4425  0.0048
 3576TIP3    H132287   5.935   5.345   1.121  0.7570 -1.3951  0.5846
 3576TIP3    H232288   5.953   5.406   0.983 -1.2957 -0.8755  0.5205
 3577TIP3   OH232289   5.131   3.991   1.545  0.1637  0.0508 -0.2616
 3577TIP3    H132290   5.208   3.934   1.543 -0.0423 -0.2307 -0.1944
 3577TIP3    H232291   5.117   4.008   1.638  0.3794  0.4230 -0.2952
 3578TIP3   OH232292   2.478   0.468   5.664 -0.1147  0.0895  0.1869
 3578TIP3    H132293   2.521   0.430   5.588 -2.1127 -0.8504 -0.5649
 3578TIP3    H232294   2.409   0.405   5.685 -1.1870  1.5523  1.2177
 3579TIP3   OH232295   1.270   1.799   6.595 -0.1221 -0.3222 -0.6856
 3579TIP3    H132296   1.185   1.840   6.613  0.2771  1.3819 -2.3627
 3579TIP3    H232297   1.335   1.862   6.626  0.5782 -1.5231  0.4006
 3580TIP3   OH232298   1.770   3.214   2.009 -0.3152 -0.2758  0.0620
 3580TIP3    H132299   1.802   3.166   1.933  1.2316  1.3331 -0.3568
 3580TIP3    H232300   1.692   3.165   2.037  1.6281 -3.5595  0.2562
 3581TIP3   OH232301   4.889   6.248   0.467  0.3513  0.6444 -0.4018
 3581TIP3    H132302   4.810   6.256   0.414 -0.2598 -1.2070  0.1196
 3581TIP3    H232303   4.957   6.220   0.405 -0.1216 -0.5584 -0.4006
 3582TIP3   OH232304   3.928   2.932   0.141  0.0925 -0.0643 -0.2073
 3582TIP3    H132305   3.859   2.996   0.155  0.5322  0.3347  0.1345
 3582TIP3    H232306   3.981   2.935   0.220 -0.1069 -1.1395 -0.0071
 3583TIP3   OH232307   1.421   2.571   7.628  0.1032 -0.5897  0.4956
 3583TIP3    H132308   1.442   2.530   7.544  0.9743  0.9285 -0.0587
 3583TIP3    H232309   1.506   2.585   7.669 -0.3519 -2.5623  2.3137
 3584TIP3   OH232310   5.871   0.528   0.398  0.2449  0.3827 -0.1038
 3584TIP3    H132311   5.952   0.579   0.401  0.4471  0.0494  0.1817
 3584TIP3    H232312   5.896   0.441   0.429 -0.4603  0.5988  1.1670
 3585TIP3   OH232313   5.512   6.968   0.678  0.1578  0.0314  0.1405
 3585TIP3    H132314   5.498   6.899   0.614  0.3802 -2.0120  2.1810
 3585TIP3    H232315   5.444   6.955   0.744 -0.0517  2.0366  0.4082
 3586TIP3   OH232316   1.761   5.248   6.377 -0.9719  0.1827  0.5957
 3586TIP3    H132317   1.761   5.292   6.293  0.5954  0.0013  0.4599
 3586TIP3    H232318   1.783   5.157   6.356 -0.8623  0.0730  1.1720
 3587TIP3   OH232319   6.358   2.119   6.280  0.0578 -0.4035 -0.0521
 3587TIP3    H132320   6.349   2.025   6.263 -0.4301 -0.3269 -0.2390
 3587TIP3    H232321   6.274   2.143   6.320  0.3211 -0.1211  0.3283
 3588TIP3   OH232322   6.281   0.722   7.498 -0.3505  0.5741 -0.6476
 3588TIP3    H132323   6.267   0.697   7.589 -2.3616 -0.8092 -1.2535
 3588TIP3    H232324   6.312   0.642   7.455  1.2019  1.3709 -1.0957
 3589TIP3   OH232325   4.119   3.381   7.856  0.1724  0.3227  0.0415
 3589TIP3    H132326   4.091   3.463   7.897  0.1552  1.0612 -1.3582
 3589TIP3    H232327   4.038   3.334   7.836  0.1237  0.4886 -0.1574
 3590TIP3   OH232328   3.025   2.616   0.832  0.1556 -0.4152 -0.2241
 3590TIP3    H132329   3.091   2.553   0.863 -0.4903 -0.7942  0.4333
 3590TIP3    H232330   3.047   2.698   0.877  0.2230 -0.5241 -0.0556
 3591TIP3   OH232331   1.362   6.306   0.296  0.8857 -0.0661 -0.1166
 3591TIP3    H132332   1.347   6.398   0.272 -0.1220 -0.5133 -1.3409
 3591TIP3    H232333   1.290   6.285   0.355  2.1035  0.3921  1.6049
 3592TIP3   OH232334   4.842   1.320   6.844  0.7038  0.7092 -0.0162
 3592TIP3    H132335   4.886   1.294   6.763 -1.7682 -0.8681 -0.9752
 3592TIP3    H232336   4.855   1.246   6.903 -0.5512  0.2163 -0.3168
 3593TIP3   OH232337   3.355   5.604   1.741 -0.4342  0.4745 -0.1686
 3593TIP3    H132338   3.412   5.547   1.690 -1.9806 -1.0841 -0.2516
 3593TIP3    H232339   3.385   5.594   1.831  0.4660  0.9809 -0.4045
 3594TIP3   OH232340   0.217   5.224   0.597  0.9390  0.3794 -0.2943
 3594TIP3    H132341   0.212   5.291   0.529  0.1394  0.4867 -0.1362
 3594TIP3    H232342   0.284   5.257   0.658  0.1416  1.3229  0.0841
 3595TIP3   OH232343   4.254   7.018   7.570 -0.5348 -0.5558 -0.0937
 3595TIP3    H132344   4.338   6.989   7.534 -0.3555 -0.5385  0.3067
 3595TIP3    H232345   4.262   7.004   7.664 -0.8173 -0.1390 -0.0035
 3596TIP3   OH232346   0.143   5.257   7.086  0.1548  0.3619 -0.0801
 3596TIP3    H132347   0.071   5.305   7.045  0.8431  0.1697 -1.5805
 3596TIP3    H232348   0.143   5.172   7.042  1.7606  0.6266 -0.6283
 3597TIP3   OH232349   2.584   6.490   1.119 -0.3420  0.4075 -0.2196
 3597TIP3    H132350   2.625   6.576   1.112  0.5895 -0.1671 -3.6221
 3597TIP3    H232351   2.491   6.510   1.131 -0.0385  1.8669 -0.0456
 3598TIP3   OH232352   2.215   1.421   7.292  0.1122  0.0048  0.1760
 3598TIP3    H132353   2.237   1.328   7.297  1.0037  0.2319  0.8228
 3598TIP3    H232354   2.135   1.425   7.240  0.8943 -0.9895 -1.1506
 3599TIP3   OH232355   5.546   6.162   0.174  0.6705 -0.0490  0.3310
 3599TIP3    H132356   5.519   6.207   0.254 -1.8930 -1.3870  0.3233
 3599TIP3    H232357   5.572   6.232   0.114 -0.4696  1.2117  1.2684
 3600TIP3   OH232358   4.225   6.144   7.372 -0.0955  0.0027  0.3275
 3600TIP3    H132359   4.206   6.195   7.451  0.1156  1.9794 -0.8231
 3600TIP3    H232360   4.213   6.206   7.300  2.0726 -1.0558 -1.0524
 3601TIP3   OH232361   0.997   0.355   7.120 -0.7313  0.2984  0.4429
 3601TIP3    H132362   1.026   0.304   7.044 -1.6752  0.7467 -0.2495
 3601TIP3    H232363   0.929   0.301   7.160 -1.7344  0.9769 -0.2920
 3602TIP3   OH232364   0.328   1.872   6.679 -0.3444  0.2129 -0.1735
 3602TIP3    H132365   0.364   1.918   6.755 -0.2247  1.4127 -0.9272
 3602TIP3    H232366   0.241   1.911   6.667 -0.8628 -0.8380  0.0748
 3603TIP3   OH232367   5.166   6.062   6.953  0.4006 -0.0731  0.4222
 3603TIP3    H132368   5.241   6.120   6.938  0.7559 -0.2672  1.3922
 3603TIP3    H232369   5.100   6.119   6.992  0.9234 -0.3825  1.8387
 3604TIP3   OH232370   5.762   0.617   1.504 -0.0253 -0.4731 -0.2066
 3604TIP3    H132371   5.853   0.587   1.509  0.0818 -0.0272  0.7160
 3604TIP3    H232372   5.728   0.607   1.593 -1.0603 -1.1616 -0.6563
 3605TIP3   OH232373   6.949   0.950   7.307  0.0918  0.2012  0.1985
 3605TIP3    H132374   6.923   0.867   7.346 -0.1827 -0.3764 -1.1553
 3605TIP3    H232375   6.881   1.012   7.334 -0.3015 -0.2755  0.3144
 3606TIP3   OH232376   1.492   0.382   7.373  0.4088  0.5610  0.1021
 3606TIP3    H132377   1.545   0.459   7.352 -1.5120  1.5863 -1.3729
 3606TIP3    H232378   1.438   0.369   7.295  1.9345 -3.4956 -0.4848
 3607TIP3   OH232379   4.346   3.396   6.210 -0.1763  0.2496  0.5376
 3607TIP3    H132380   4.307   3.439   6.134 -1.9004  1.7964  2.2115
 3607TIP3    H232381   4.311   3.307   6.207  1.8297 -0.5721 -1.8387
 3608TIP3   OH232382   5.139   0.416   5.440 -0.1673 -0.2831 -0.1762
 3608TIP3    H132383   5.134   0.446   5.531 -0.5824 -2.1792  0.4605
 3608TIP3    H232384   5.207   0.350   5.440 -0.5733 -0.7232 -1.1330
 3609TIP3   OH232385   2.947   0.441   1.598  0.8033  1.1188  0.4018
 3609TIP3    H132386   3.038   0.470   1.588  1.0134  0.6883  0.9971
 3609TIP3    H232387   2.952   0.370   1.662  0.3192 -0.2959 -1.0679
 3610TIP3   OH232388   2.407   0.170   6.780 -0.1805  0.1453  0.4868
 3610TIP3    H132389   2.488   0.201   6.819  2.4152 -2.6402 -2.1014
 3610TIP3    H232390   2.407   0.075   6.797 -1.8742 -0.2332 -1.2620
 3611TIP3   OH232391   3.472   1.861   6.336  0.2537  0.3294 -0.3033
 3611TIP3    H132392   3.541   1.926   6.328  0.7911 -0.2558 -0.5327
 3611TIP3    H232393   3.446   1.864   6.428  0.4726  0.6684 -0.2532
 3612TIP3   OH232394   6.403   6.847   7.857 -0.0152 -0.0786  0.0617
 3612TIP3    H132395   6.425   6.778   7.793  2.7466 -2.2941  3.0490
 3612TIP3    H232396   6.316   6.823   7.889  0.2250 -1.2604 -0.1112
 3613TIP3   OH232397   4.668   6.827   1.474 -0.2046  0.0131 -0.8228
 3613TIP3    H132398   4.647   6.914   1.505 -1.6852  0.2251 -2.2506
 3613TIP3    H232399   4.616   6.768   1.529  1.3437 -0.0776  0.6213
 3614TIP3   OH232400   3.781   6.820   1.765  0.3403 -0.1510  0.4013
 3614TIP3    H132401   3.700   6.846   1.808 -0.4529 -0.3344 -0.9354
 3614TIP3    H232402   3.849   6.839   1.830 -0.8343 -0.9071  1.9347
 3615TIP3   OH232403   0.463   0.124   0.640  0.5329 -0.0044  0.5272
 3615TIP3    H132404   0.419   0.081   0.567 -0.1012  2.3525 -0.5888
 3615TIP3    H232405   0.556   0.116   0.619  0.3682  0.3508 -0.4064
 3616TIP3   OH232406   4.397   5.914   0.326  0.1741 -0.0714 -0.1146
 3616TIP3    H132407   4.341   5.991   0.324 -0.4674 -0.5417 -0.5422
 3616TIP3    H232408   4.386   5.873   0.240  2.7897  0.9405 -1.0231
 3617TIP3   OH232409   6.083   2.428   1.192  0.5347  0.1086 -0.5623
 3617TIP3    H132410   6.082   2.433   1.097 -1.2109 -2.7486 -0.8169
 3617TIP3    H232411   5.992   2.440   1.218  1.1709  2.3589  0.9586
 3618TIP3   OH232412   0.560   5.071   6.060 -0.1872  0.3706  0.7246
 3618TIP3    H132413   0.607   5.123   5.995  0.7190 -1.5907 -0.2823
 3618TIP3    H232414   0.519   5.136   6.117  2.0231  2.1861  0.4057
 3619TIP3   OH232415   4.522   6.120   7.332  0.1601 -0.4747  0.4215
 3619TIP3    H132416   4.515   6.212   7.358 -0.8946  0.0510 -1.5328
 3619TIP3    H232417   4.438   6.082   7.357 -0.3465 -0.2849 -0.9283
 3620TIP3   OH232418   0.965   5.071   1.461  0.2456 -0.1814 -0.3810
 3620TIP3    H132419   0.894   5.007   1.470 -1.1967  1.2700 -0.8513
 3620TIP3    H232420   1.012   5.042   1.383 -0.4957 -0.5697 -0.7024
 3621TIP3   OH232421   2.262   6.059   6.807 -0.7136 -0.5652 -0.4683
 3621TIP3    H132422   2.307   6.076   6.725 -0.2628  0.8615  0.0557
 3621TIP3    H232423   2.219   6.142   6.829 -0.3862 -0.7569  0.9978
 3622TIP3   OH232424   6.359   5.832   1.017 -0.5647 -0.5494  0.8025
 3622TIP3    H132425   6.291   5.771   1.046  0.2049 -0.7542  2.3033
 3622TIP3    H232426   6.375   5.887   1.094  0.5438 -0.1306  0.2916
 3623TIP3   OH232427   6.632   6.683   5.547  0.3283  0.7177 -0.0782
 3623TIP3    H132428   6.714   6.705   5.591 -0.0113  1.2485  0.3110
 3623TIP3    H232429   6.582   6.765   5.547 -1.7064 -0.3345  2.9247
 3624TIP3   OH232430   4.342   0.437   8.007  0.3420  0.3346 -0.4999
 3624TIP3    H132431   4.326   0.529   7.986 -1.7977  0.0900 -0.2462
 3624TIP3    H232432   4.360   0.396   7.923 -0.5035  0.6913 -0.8675
 3625TIP3   OH232433   5.938   6.672   7.203  0.1455 -0.8474 -0.0887
 3625TIP3    H132434   5.932   6.585   7.242 -1.3099 -0.7006  0.0936
 3625TIP3    H232435   5.901   6.731   7.269  0.8727 -0.1209 -0.3110
 3626TIP3   OH232436   3.354   3.857   6.698  0.3404  0.2546 -0.6012
 3626TIP3    H132437   3.373   3.945   6.666 -0.4280  0.8174  0.4291
 3626TIP3    H232438   3.341   3.868   6.793 -1.0400 -0.7483 -0.6476
 3627TIP3   OH232439   3.173   4.724   7.200 -0.0904  0.6220  0.4497
 3627TIP3    H132440   3.194   4.681   7.283  2.1332  1.6243  0.4827
 3627TIP3    H232441   3.172   4.817   7.221 -1.3779  0.8099 -0.3116
 3628TIP3   OH232442   3.492   2.767   6.778  0.0110 -0.2557  0.1700
 3628TIP3    H132443   3.520   2.706   6.846  1.9665  0.2181 -0.1534
 3628TIP3    H232444   3.529   2.733   6.697  0.2975  0.7982 -0.1685
 3629TIP3   OH232445   6.908   3.636   6.260  0.3066 -0.2024 -0.1849
 3629TIP3    H132446   6.945   3.631   6.171  1.5433 -0.7240  0.3411
 3629TIP3    H232447   6.907   3.546   6.291 -1.0623 -0.1567 -0.0101
 3630TIP3   OH232448   6.739   0.014   7.717  0.1395 -0.0183  0.1365
 3630TIP3    H132449   6.774  -0.072   7.694 -0.7801 -0.5679  0.7377
 3630TIP3    H232450   6.645   0.006   7.701  0.1586  1.1653 -0.6608
 3631TIP3   OH232451   2.025   4.281   1.465 -0.7577 -0.3400  0.0577
 3631TIP3    H132452   1.953   4.331   1.426  1.8226  2.5360 -1.4616
 3631TIP3    H232453   2.073   4.345   1.516  0.5900 -2.2452  1.3051
 3632TIP3   OH232454   2.758   3.075   0.875 -0.1235  0.1443  0.3789
 3632TIP3    H132455   2.774   3.128   0.953 -0.8411  0.5530  0.2549
 3632TIP3    H232456   2.833   3.015   0.871  0.8003  1.2523  0.4285
 3633TIP3   OH232457   6.682   4.493   0.549  0.0576  0.3135 -0.5617
 3633TIP3    H132458   6.770   4.483   0.512  0.6949 -0.4958  1.0555
 3633TIP3    H232459   6.627   4.435   0.496  0.2314  1.6745 -2.3066
 3634TIP3   OH232460   4.195   4.761   1.099 -0.3394 -0.5994  0.1681
 3634TIP3    H132461   4.271   4.808   1.134  0.0263 -0.1033 -1.2141
 3634TIP3    H232462   4.222   4.735   1.011 -1.0811 -2.1313  0.3667
 3635TIP3   OH232463   5.515   6.762   0.213 -0.1650  0.3279  0.5739
 3635TIP3    H132464   5.484   6.802   0.132  2.7286 -0.3866 -1.0371
 3635TIP3    H232465   5.436   6.740   0.261 -1.9788  1.5952 -1.6501
 3636TIP3   OH232466   2.172   2.125   0.042 -0.5527 -0.0049  0.2782
 3636TIP3    H132467   2.139   2.079  -0.035  1.8359 -1.0228 -0.2216
 3636TIP3    H232468   2.152   2.217   0.026  0.3970 -0.1253 -1.8634
 3637TIP3   OH232469   1.383   0.041   6.579 -0.1859  0.6641  0.4225
 3637TIP3    H132470   1.429  -0.043   6.573  1.0541  1.3064  0.7106
 3637TIP3    H232471   1.374   0.071   6.488 -1.2017 -0.0543  0.2630
 3638TIP3   OH232472   3.229   2.637   6.534 -0.6827 -0.4313  0.1865
 3638TIP3    H132473   3.175   2.569   6.574 -0.6708 -0.5605 -0.0163
 3638TIP3    H232474   3.185   2.657   6.451  0.0871 -1.2252 -0.4465
 3639TIP3   OH232475   0.422   6.523   7.944  0.2949 -0.2256  0.2692
 3639TIP3    H132476   0.428   6.442   7.993  0.8035 -0.0099  0.5707
 3639TIP3    H232477   0.479   6.584   7.991  0.7169  0.0129 -0.5298
 3640TIP3   OH232478   5.860   0.229   6.715  0.1095 -0.0396 -0.0882
 3640TIP3    H132479   5.875   0.139   6.684 -1.3293  0.2677 -1.8256
 3640TIP3    H232480   5.842   0.219   6.808 -2.2191 -1.8624 -0.6315
 3641TIP3   OH232481   6.845   7.044   5.701 -0.2006 -0.9681  0.2249
 3641TIP3    H132482   6.765   7.087   5.732  1.1306 -0.9455  4.2825
 3641TIP3    H232483   6.886   7.108   5.642 -1.8112  0.2158  0.3264
 3642TIP3   OH232484   6.057   4.773   1.106  0.1906  0.2964 -0.7600
 3642TIP3    H132485   6.102   4.852   1.076  0.7935  0.4613  0.4928
 3642TIP3    H232486   6.059   4.780   1.202  1.2764 -1.7754 -0.5631
 3643TIP3   OH232487   2.099   1.905   7.629  0.0451  0.1125 -0.3188
 3643TIP3    H132488   2.092   1.949   7.544  0.6393 -0.0156 -0.4363
 3643TIP3    H232489   2.193   1.896   7.644 -0.0618 -0.2651  0.1450
 3644TIP3   OH232490   5.015   3.540   0.055 -0.0740 -0.0862  0.5109
 3644TIP3    H132491   5.041   3.517   0.145  3.5946 -0.3252 -0.4644
 3644TIP3    H232492   5.064   3.619   0.035 -1.1880  0.2285 -1.1852
 3645TIP3   OH232493   0.228   4.027   6.355 -0.2323 -0.3124 -0.0598
 3645TIP3    H132494   0.211   4.058   6.444 -0.8996 -1.5594  0.2690
 3645TIP3    H232495   0.157   4.065   6.303 -0.4985 -0.5129  0.1564
 3646TIP3   OH232496   4.171   2.098   1.737 -0.0658 -1.0656  0.1942
 3646TIP3    H132497   4.123   2.093   1.819 -0.1138 -1.8815  0.1224
 3646TIP3    H232498   4.162   2.189   1.709 -0.4110 -0.8886  0.8725
 3647TIP3   OH232499   4.810   5.722   0.923 -0.2529  0.3293  0.3843
 3647TIP3    H132500   4.865   5.749   0.997 -0.8681  3.4592 -0.1579
 3647TIP3    H232501   4.872   5.687   0.859  0.8157  1.2530  0.8629
 3648TIP3   OH232502   7.108   0.353   1.347 -0.7145  0.0806 -0.3565
 3648TIP3    H132503   7.094   0.276   1.403  0.2831  0.0567 -0.1230
 3648TIP3    H232504   7.065   0.330   1.265 -1.4988 -0.2168  0.1219
 3649TIP3   OH232505   2.674   5.657   6.813 -0.1757  0.4585 -0.3255
 3649TIP3    H132506   2.694   5.747   6.838 -1.2386  0.4966  0.4589
 3649TIP3    H232507   2.596   5.664   6.757 -1.0672 -0.0540  0.8188
 3650TIP3   OH232508   5.936   4.680   7.116  0.1655  0.4141 -0.0529
 3650TIP3    H132509   5.959   4.596   7.155 -3.2416 -0.9347 -0.6079
 3650TIP3    H232510   5.982   4.680   7.032 -0.0705 -1.1060 -0.2203
 3651TIP3   OH232511   6.228   6.562   0.265  0.0914  0.4359  0.9151
 3651TIP3    H132512   6.217   6.647   0.306 -1.0688  1.0580 -0.6050
 3651TIP3    H232513   6.230   6.500   0.338  0.7225  1.7097  2.0248
 3652TIP3   OH232514   5.460   5.501   1.118  0.3706 -0.1683 -0.4148
 3652TIP3    H132515   5.511   5.439   1.065 -1.4309 -0.7435 -1.5690
 3652TIP3    H232516   5.524   5.538   1.179  1.5651 -3.1705  0.3751
 3653TIP3   OH232517   4.081   3.326   6.915 -0.1746 -0.4694 -0.7414
 3653TIP3    H132518   4.029   3.267   6.970 -1.4749  1.1821 -0.0760
 3653TIP3    H232519   4.150   3.271   6.878  0.5012 -1.7807  2.1877
 3654TIP3   OH232520   3.643   5.270   6.184 -0.4338  0.5859 -0.3443
 3654TIP3    H132521   3.551   5.292   6.176 -0.5593  1.5597  2.5764
 3654TIP3    H232522   3.675   5.325   6.256  2.0746 -0.7061 -0.3592
 3655TIP3   OH232523   4.680   1.511   7.492 -0.0658  0.5049 -0.1080
 3655TIP3    H132524   4.744   1.509   7.564  0.6943  0.9769 -0.7534
 3655TIP3    H232525   4.667   1.604   7.474 -3.9639  0.7237  2.5734
 3656TIP3   OH232526   1.896   3.596   5.789 -0.0673 -0.2454 -0.0967
 3656TIP3    H132527   1.974   3.578   5.735 -0.4850  1.3570 -1.3199
 3656TIP3    H232528   1.921   3.672   5.842 -0.1022 -1.0308  1.0701
 3657TIP3   OH232529   3.785   3.417   7.493  0.4596  0.3487 -0.0170
 3657TIP3    H132530   3.755   3.335   7.453 -3.1180  1.5936 -0.2840
 3657TIP3    H232531   3.801   3.476   7.420 -1.9873  1.3413  0.1460
 3658TIP3   OH232532   4.733   4.836   1.170 -0.5552  0.3298  0.3973
 3658TIP3    H132533   4.734   4.752   1.124  0.7241 -0.4674  1.7742
 3658TIP3    H232534   4.735   4.812   1.263 -0.6912  1.8817  0.8247
 3659TIP3   OH232535   2.548   6.191   1.289 -0.5088 -0.8795 -0.3138
 3659TIP3    H132536   2.618   6.157   1.233 -0.6481  1.1052 -1.8017
 3659TIP3    H232537   2.578   6.279   1.313 -1.9620 -0.4390 -0.0340
 3660TIP3   OH232538   0.644   6.369   6.418  0.3816 -0.0611 -0.0164
 3660TIP3    H132539   0.579   6.351   6.350  1.6942 -1.7480 -0.8910
 3660TIP3    H232540   0.595   6.362   6.500 -0.1840 -3.7346 -0.4879
 3661TIP3   OH232541   2.589   3.308   2.224  0.8032  0.3093  0.1275
 3661TIP3    H132542   2.654   3.305   2.294  0.8845 -1.2406  0.0095
 3661TIP3    H232543   2.576   3.217   2.198 -0.5560  0.6852 -0.6556
 3662TIP3   OH232544   1.362   1.122   0.864  0.7945  0.1613  0.9543
 3662TIP3    H132545   1.285   1.102   0.919  1.5852 -1.0759  1.6578
 3662TIP3    H232546   1.399   1.201   0.903  0.0820  0.5652  0.8262
 3663TIP3   OH232547   6.791   1.757   1.225  0.8942  0.4480 -0.1920
 3663TIP3    H132548   6.809   1.807   1.305  2.5115  0.1985 -0.3599
 3663TIP3    H232549   6.792   1.822   1.155  0.2413  0.5573 -0.1050
 3664TIP3   OH232550   4.071   0.336   6.979 -0.7183 -0.3361 -0.0518
 3664TIP3    H132551   3.990   0.388   6.980  0.2299  1.2280 -0.0438
 3664TIP3    H232552   4.051   0.259   7.031 -1.9356  0.4785  0.7493
 3665TIP3   OH232553   5.123   7.006   0.644 -0.6335 -0.0463 -0.3853
 3665TIP3    H132554   5.116   7.072   0.714 -1.9431 -1.1318  0.5693
 3665TIP3    H232555   5.035   7.001   0.607 -0.6092 -1.3808 -0.3013
 3666TIP3   OH232556   2.880   0.596   6.682 -0.5351 -0.2443  0.0198
 3666TIP3    H132557   2.961   0.550   6.707  1.2337  1.4808 -2.0939
 3666TIP3    H232558   2.906   0.651   6.608 -2.9182  2.8155  1.2435
 3667TIP3   OH232559   2.870   4.259   7.309  0.0592  0.4309 -0.0627
 3667TIP3    H132560   2.918   4.334   7.345 -2.1660  1.4165  1.0852
 3667TIP3    H232561   2.889   4.187   7.370  0.6059  0.6085 -0.0196
 3668TIP3   OH232562   6.932   4.069   6.445 -0.3988  0.1854 -0.2206
 3668TIP3    H132563   6.985   3.990   6.452  1.7557  1.3511 -2.0847
 3668TIP3    H232564   6.879   4.057   6.366 -0.0593  0.5797 -0.5148
 3669TIP3   OH232565   6.017   0.120   7.695  0.0886 -0.4180  0.2780
 3669TIP3    H132566   5.987   0.061   7.625  2.3696  0.0995 -1.2513
 3669TIP3    H232567   5.978   0.084   7.774 -1.6794 -1.7315 -1.0916
 3670TIP3   OH232568   6.182   7.107   7.370 -0.2854 -0.2677 -0.3205
 3670TIP3    H132569   6.171   7.048   7.445 -0.2933  0.5418  0.3192
 3670TIP3    H232570   6.264   7.079   7.330  0.2193 -0.0826  0.5637
 3671TIP3   OH232571   1.982   2.034   1.577 -0.6021 -0.4381  0.5631
 3671TIP3    H132572   2.019   2.018   1.664 -1.0924 -0.0953  0.8397
 3671TIP3    H232573   1.971   2.129   1.573 -0.9498 -0.4897  0.2771
 3672TIP3   OH232574   5.730   5.726   6.141 -0.1791 -0.3990 -0.1821
 3672TIP3    H132575   5.642   5.689   6.132 -0.4692  0.5889 -1.9846
 3672TIP3    H232576   5.717   5.820   6.130  1.2638 -0.3624 -2.2018
 3673TIP3   OH232577   5.529   3.506   0.922 -0.0550 -0.0520 -0.4872
 3673TIP3    H132578   5.525   3.598   0.949 -0.2755 -0.6424  1.7366
 3673TIP3    H232579   5.609   3.473   0.962 -2.0425 -1.7864  2.4838
 3674TIP3   OH232580   7.143   6.909   1.160  0.6949 -0.1606 -0.3043
 3674TIP3    H132581   7.210   6.976   1.146  1.4215 -0.8627 -0.2732
 3674TIP3    H232582   7.085   6.917   1.085  1.3810 -0.2051 -0.8514
 3675TIP3   OH232583   3.652   1.662   7.277 -0.6037 -0.2571 -0.2656
 3675TIP3    H132584   3.747   1.671   7.289 -0.6210 -1.2364  0.8181
 3675TIP3    H232585   3.615   1.726   7.338 -0.6297 -2.2656  2.0163
 3676TIP3   OH232586   2.286   6.500   1.258 -0.1127 -0.3209 -0.1160
 3676TIP3    H132587   2.237   6.570   1.214  1.0070  1.2893  1.0704
 3676TIP3    H232588   2.234   6.481   1.336  0.5951  0.7124  0.6432
 3677TIP3   OH232589   5.663   0.367   1.067 -0.3815 -0.0482  0.0942
 3677TIP3    H132590   5.586   0.373   1.011  0.0295  0.6119 -0.4130
 3677TIP3    H232591   5.671   0.454   1.107  0.6029  0.1778 -0.5491
 3678TIP3   OH232592   3.840   6.054   6.057 -0.1910 -0.9296  0.2853
 3678TIP3    H132593   3.934   6.074   6.063 -0.3798  0.1865 -0.2630
 3678TIP3    H232594   3.836   5.977   6.000  0.4453 -1.6765  1.1984
 3679TIP3   OH232595   5.917   5.053   6.527 -0.2606 -0.1312 -0.3000
 3679TIP3    H132596   5.919   4.975   6.581 -1.3530  1.7652  2.7509
 3679TIP3    H232597   5.878   5.025   6.445 -1.4103 -2.6160  0.9967
 3680TIP3   OH232598   3.454   1.739   1.990  0.6175  0.0677 -0.3799
 3680TIP3    H132599   3.409   1.660   1.959  0.2592 -1.0823  2.6217
 3680TIP3    H232600   3.504   1.770   1.915 -1.8377 -1.0558 -2.6547
 3681TIP3   OH232601   4.836   3.799   7.293 -0.4505 -0.4042  0.0159
 3681TIP3    H132602   4.824   3.891   7.318 -0.0130 -0.4378  0.3505
 3681TIP3    H232603   4.930   3.785   7.298 -0.3717 -0.4821 -1.4042
 3682TIP3   OH232604   4.412   1.130   1.856  0.2544 -0.1817  0.0924
 3682TIP3    H132605   4.405   1.106   1.764  0.6797 -1.0115  0.2603
 3682TIP3    H232606   4.448   1.218   1.856  1.4250 -0.6346 -0.5268
 3683TIP3   OH232607   6.594   5.615   7.344 -0.0725  0.1446 -0.2097
 3683TIP3    H132608   6.504   5.648   7.339 -1.7455 -3.9557 -0.3679
 3683TIP3    H232609   6.598   5.567   7.427  1.3614 -1.2828 -1.0427
 3684TIP3   OH232610   2.162   5.950   1.059  0.2901 -0.2150 -0.8732
 3684TIP3    H132611   2.228   5.893   1.097  1.4593  1.4681 -0.2221
 3684TIP3    H232612   2.101   5.968   1.131  0.8212  0.5729 -0.5963
 3685TIP3   OH232613   0.410   3.205   6.899  0.5356 -0.5118  0.5620
 3685TIP3    H132614   0.380   3.198   6.808  0.8811 -0.5405  0.4489
 3685TIP3    H232615   0.343   3.158   6.949 -0.2334  0.4201  0.4513
 3686TIP3   OH232616   1.226   2.300   7.036  0.1431 -0.0277  0.3337
 3686TIP3    H132617   1.302   2.353   7.061  0.2668  0.1672 -0.4318
 3686TIP3    H232618   1.151   2.345   7.073 -0.0607  2.1897 -2.4275
 3687TIP3   OH232619   2.701   5.849   7.512  0.5377  0.4460 -0.1326
 3687TIP3    H132620   2.791   5.820   7.525  0.5921  1.0746  0.9885
 3687TIP3    H232621   2.679   5.899   7.591 -0.7954  0.3071 -0.3801
 3688TIP3   OH232622   5.100   1.588   6.507 -0.2858 -0.4060  0.2208
 3688TIP3    H132623   5.023   1.594   6.451  0.7448 -0.8489 -1.3180
 3688TIP3    H232624   5.081   1.515   6.566 -0.5040 -1.4253 -1.0690
 3689TIP3   OH232625   1.649   2.615   6.166  0.3701 -0.4885  0.0999
 3689TIP3    H132626   1.670   2.530   6.127  1.5459 -0.1244 -0.1077
 3689TIP3    H232627   1.638   2.595   6.259 -0.2477 -1.0076 -0.0772
 3690TIP3   OH232628   5.138   6.861   0.020 -0.0620 -0.4159 -0.4413
 3690TIP3    H132629   5.072   6.927   0.002  2.1899  2.1691  0.1294
 3690TIP3    H232630   5.157   6.871   0.113  1.2041 -0.9697 -0.6143
 3691TIP3   OH232631   0.694   0.500   1.641  0.2469 -0.0614  0.0706
 3691TIP3    H132632   0.782   0.463   1.625  0.1130 -1.0995  1.4780
 3691TIP3    H232633   0.639   0.423   1.656 -0.7919  0.6065 -0.2734
 3692TIP3   OH232634   0.750   2.278   1.819  0.0147  0.5906  0.0044
 3692TIP3    H132635   0.728   2.190   1.790  1.3300  0.3237 -0.2186
 3692TIP3    H232636   0.791   2.266   1.905  0.9388  0.9011 -0.3850
 3693TIP3   OH232637   2.990   1.149   0.008 -0.3540  0.2656 -0.9171
 3693TIP3    H132638   2.907   1.158   0.054  0.0429 -1.1306  0.1538
 3693TIP3    H232639   3.023   1.063   0.034  1.2800  0.6508 -1.5614
 3694TIP3   OH232640   3.006   4.992   0.114  0.0906 -0.1649  0.1962
 3694TIP3    H132641   3.097   4.992   0.083 -0.2641 -2.5160 -1.1375
 3694TIP3    H232642   3.007   5.045   0.193  2.1266  1.8593 -1.0493
 3695TIP3   OH232643   6.980   4.100   1.313 -0.0472  0.5796  0.5331
 3695TIP3    H132644   6.939   4.128   1.394 -2.6077  1.1386 -0.8643
 3695TIP3    H232645   6.934   4.147   1.244  2.6451  0.8553 -1.2664
 3696TIP3   OH232646   6.363   1.011   7.772 -0.0899 -0.4746 -0.7762
 3696TIP3    H132647   6.342   0.928   7.731 -1.9261 -0.2249 -0.3991
 3696TIP3    H232648   6.374   0.990   7.865  0.3000 -0.4179 -0.8055
 3697TIP3   OH232649   5.610   6.700   1.583 -0.1497  0.3094  0.1629
 3697TIP3    H132650   5.615   6.743   1.669 -0.2713 -0.3365  0.4989
 3697TIP3    H232651   5.642   6.766   1.521  0.4553  0.5993  0.7708
 3698TIP3   OH232652   6.142   4.097   0.009 -0.2769  0.1041 -0.0629
 3698TIP3    H132653   6.185   4.182   0.014  1.7559 -0.7083 -2.0889
 3698TIP3    H232654   6.147   4.062   0.097  0.3551  1.3780  0.4309
 3699TIP3   OH232655   6.650   2.968   0.252 -0.5349  0.3849  0.7117
 3699TIP3    H132656   6.703   2.987   0.330  1.9518 -0.0158 -0.7792
 3699TIP3    H232657   6.683   2.883   0.221 -1.1551  0.7460 -1.0100
 3700TIP3   OH232658   4.190   1.468   7.126 -0.7619 -0.3886  0.5503
 3700TIP3    H132659   4.284   1.457   7.139 -0.2797 -0.4370 -2.3487
 3700TIP3    H232660   4.156   1.379   7.115 -1.1096 -0.3494  1.2442
 3701TIP3   OH232661   0.655   0.574   7.441 -0.0554 -0.4809  0.6421
 3701TIP3    H132662   0.605   0.533   7.370  0.7404  0.0965 -0.2908
 3701TIP3    H232663   0.719   0.629   7.395  1.8810 -1.7091  1.7613
 3702TIP3   OH232664   6.701   3.973   5.965 -0.5766 -0.4132  0.0764
 3702TIP3    H132665   6.718   3.895   6.017 -0.0093  0.3640  1.0888
 3702TIP3    H232666   6.649   4.030   6.022 -0.1804  0.3342 -0.2927
 3703TIP3   OH232667   3.225   6.228   0.596  0.5615  0.4369  0.8291
 3703TIP3    H132668   3.306   6.235   0.647  0.0434  0.8745  1.6197
 3703TIP3    H232669   3.219   6.312   0.550  0.7784  0.2323  0.4247
 3704TIP3   OH232670   6.954   0.220   2.072  0.3122 -0.1536  0.1682
 3704TIP3    H132671   6.957   0.262   1.986 -0.8097  0.9804  0.6525
 3704TIP3    H232672   6.965   0.291   2.135  1.5125 -1.0183  0.9762
 3705TIP3   OH232673   5.206   1.401   6.957 -0.4235  0.5333 -1.0266
 3705TIP3    H132674   5.293   1.426   6.988 -0.9096  1.3518 -0.2818
 3705TIP3    H232675   5.147   1.430   7.026 -1.2970  0.0670 -1.5688
 3706TIP3   OH232676   6.532   6.454   1.083 -0.6295 -0.0480  0.4996
 3706TIP3    H132677   6.437   6.441   1.081 -0.7097  0.2168  1.9941
 3706TIP3    H232678   6.561   6.426   0.996 -2.3305  1.9637 -0.8184
 3707TIP3   OH232679   1.064   3.541   2.148  0.7314  0.2466 -0.1427
 3707TIP3    H132680   1.080   3.461   2.198  0.7974  0.4226  0.1213
 3707TIP3    H232681   1.064   3.513   2.056  1.2583  0.0252 -0.0792
 3708TIP3   OH232682   6.005   5.650   1.911  0.2461  0.2711 -0.3551
 3708TIP3    H132683   6.007   5.571   1.966 -0.8669  0.2838 -0.2817
 3708TIP3    H232684   6.065   5.711   1.955 -1.0903  0.5082  1.2371
 3709TIP3   OH232685   5.185   4.875   0.064 -0.3729 -0.0127  0.2185
 3709TIP3    H132686   5.231   4.899  -0.017  0.7831 -0.4880  0.7125
 3709TIP3    H232687   5.190   4.780   0.067 -0.4154  0.0021  0.8419
 3710TIP3   OH232688   3.809   1.301   7.360 -0.1987  0.6713 -0.1615
 3710TIP3    H132689   3.784   1.268   7.446  0.4494  1.8699  0.5121
 3710TIP3    H232690   3.748   1.258   7.299 -0.6623 -0.1908  0.8773
 3711TIP3   OH232691   4.059   3.263   7.291  0.0363 -0.4371 -0.1518
 3711TIP3    H132692   3.965   3.265   7.307  0.1569  0.6987  0.5286
 3711TIP3    H232693   4.094   3.336   7.342  1.3887 -1.2902  0.2016
 3712TIP3   OH232694   6.050   2.981   7.052 -0.2629  0.3888 -0.4726
 3712TIP3    H132695   6.008   2.897   7.033 -1.6703  1.1501 -0.8731
 3712TIP3    H232696   6.083   3.011   6.967  0.4595  0.1393 -0.2875
 3713TIP3   OH232697   5.357   0.660   6.853  0.0032  0.3728  0.0034
 3713TIP3    H132698   5.313   0.738   6.887 -0.1518 -0.6416  2.4018
 3713TIP3    H232699   5.385   0.613   6.932 -0.0386 -2.0464 -1.3201
 3714TIP3   OH232700   0.777   6.195   1.039  0.4046  0.5294 -0.6589
 3714TIP3    H132701   0.775   6.237   0.952 -0.4204  0.4267 -0.7034
 3714TIP3    H232702   0.774   6.101   1.020 -0.5795  0.5216 -0.5164
 3715TIP3   OH232703   2.751   3.261   0.575 -0.2284  0.3225 -0.1056
 3715TIP3    H132704   2.793   3.291   0.655  0.0040 -0.6310  0.1296
 3715TIP3    H232705   2.660   3.244   0.600  0.1782 -1.4031  0.3392
 3716TIP3   OH232706   3.115   6.606   6.549  0.3640  0.3094  0.4626
 3716TIP3    H132707   3.209   6.626   6.541  0.4746 -0.0649  0.7520
 3716TIP3    H232708   3.107   6.568   6.636 -0.1915  1.0247  0.7274
 3717TIP3   OH232709   6.658   4.352   1.992 -0.3451 -0.1221  0.1537
 3717TIP3    H132710   6.753   4.357   1.983 -0.4412 -2.1298 -4.1679
 3717TIP3    H232711   6.645   4.330   2.085  3.3475  0.0491  0.8913
 3718TIP3   OH232712   0.729   4.607   6.565  0.3250  0.5675 -0.0343
 3718TIP3    H132713   0.716   4.667   6.492 -0.3295  0.8032  0.2660
 3718TIP3    H232714   0.675   4.643   6.635 -1.2134 -1.1039 -0.2730
 3719TIP3   OH232715   4.498   5.109   7.743  0.6528  0.1732 -0.9676
 3719TIP3    H132716   4.449   5.076   7.818  0.1868 -0.9688 -1.7500
 3719TIP3    H232717   4.449   5.079   7.667  1.3834  0.8939 -1.7411
 3720TIP3   OH232718   0.120   1.692   1.110 -0.3604 -0.0967  0.2572
 3720TIP3    H132719   0.193   1.725   1.162 -0.4867  1.4733 -0.4822
 3720TIP3    H232720   0.149   1.703   1.019 -0.5615 -1.7817 -0.0512
 3721TIP3   OH232721   4.494   1.382   1.895 -0.3180 -0.1497 -0.0544
 3721TIP3    H132722   4.445   1.379   1.977  0.0851 -1.5067  0.1639
 3721TIP3    H232723   4.491   1.473   1.868 -1.0275  0.1908  1.1270
 3722TIP3   OH232724   2.181   1.138   1.998  0.8101 -0.8439  0.2904
 3722TIP3    H132725   2.195   1.058   1.946  0.1668 -0.5730 -0.3238
 3722TIP3    H232726   2.104   1.119   2.051  0.1814 -0.3698 -0.4286
 3723TIP3   OH232727   2.937   2.621   0.076  0.4783  0.1880  0.3107
 3723TIP3    H132728   2.939   2.707   0.118  1.9680  0.8789 -1.0766
 3723TIP3    H232729   3.029   2.599   0.062  0.1326  0.3971 -3.2530
 3724TIP3   OH232730   3.903   2.707   0.376  0.1590 -0.4596  0.2506
 3724TIP3    H132731   3.952   2.625   0.384  1.1402 -0.0951 -1.6365
 3724TIP3    H232732   3.970   2.775   0.376 -0.4443  0.1539 -0.9488
 3725TIP3   OH232733   6.241   0.980   1.097 -0.3715  0.1309 -0.3997
 3725TIP3    H132734   6.169   1.007   1.039 -1.3790  2.4188  1.7335
 3725TIP3    H232735   6.318   1.021   1.059 -1.2441  2.8155  0.4970
 3726TIP3   OH232736   1.397   1.014   7.995 -0.1509 -0.2734 -0.5014
 3726TIP3    H132737   1.313   1.048   8.025  0.4490  1.3039 -0.5538
 3726TIP3    H232738   1.445   1.090   7.963  0.9482 -1.2767 -1.3626
 3727TIP3   OH232739   4.999   1.669   7.518 -0.0718  0.2479  0.3097
 3727TIP3    H132740   4.955   1.585   7.512  0.3640 -0.0948  1.6157
 3727TIP3    H232741   5.071   1.663   7.456 -0.8806  0.2126 -0.6504
 3728TIP3   OH232742   0.593   0.302   0.259  0.1940  0.2600 -0.0196
 3728TIP3    H132743   0.536   0.355   0.316 -0.3616 -0.5974  0.2317
 3728TIP3    H232744   0.676   0.351   0.256 -0.7753  1.9456 -1.0239
 3729TIP3   OH232745   2.050   3.476   0.852  0.1746 -0.4391  0.0544
 3729TIP3    H132746   2.097   3.504   0.931  0.4703 -2.6696  0.7420
 3729TIP3    H232747   2.020   3.557   0.812  1.4262  0.8490  1.5888
 3730TIP3   OH232748   3.651   2.860   0.288 -0.3676 -0.1158  0.4888
 3730TIP3    H132749   3.735   2.815   0.283  0.2312  0.8152  1.5052
 3730TIP3    H232750   3.651   2.918   0.212  0.0176  0.0340  0.5983
 3731TIP3   OH232751   5.362   1.691   7.795  0.3908  0.1496  0.4826
 3731TIP3    H132752   5.321   1.763   7.748  3.2614  0.4073 -1.9692
 3731TIP3    H232753   5.290   1.632   7.816 -1.7475  2.6332  0.5927
 3732TIP3   OH232754   6.984   3.765   0.833 -0.5141 -0.0771 -0.0348
 3732TIP3    H132755   7.016   3.848   0.870  1.2209 -0.2829 -0.9946
 3732TIP3    H232756   7.002   3.700   0.901  1.3174 -0.2083 -0.5941
 3733TIP3   OH232757   4.271   0.391   1.051  0.8890 -0.4448  0.2949
 3733TIP3    H132758   4.271   0.486   1.044 -0.0479 -0.2534  2.2046
 3733TIP3    H232759   4.250   0.360   0.963  1.4253  1.0867 -0.4028
 3734TIP3   OH232760   2.653   2.982   6.151  0.5659 -0.0631 -0.3423
 3734TIP3    H132761   2.592   2.909   6.139  1.6223 -1.0880  0.3316
 3734TIP3    H232762   2.711   2.979   6.076  0.9943 -0.3088 -0.0066
 3735TIP3   OH232763   6.160   5.441   7.519  0.7175 -0.3527 -0.1856
 3735TIP3    H132764   6.220   5.381   7.564  0.1633 -0.8789 -0.1418
 3735TIP3    H232765   6.211   5.473   7.444  2.3829  2.0543  1.7846
 3736TIP3   OH232766   3.786   5.362   1.023 -0.1814  0.4409 -0.5806
 3736TIP3    H132767   3.808   5.280   1.067 -0.1124  0.0720 -1.2877
 3736TIP3    H232768   3.864   5.417   1.034  0.2994 -0.0868 -1.2588
 3737TIP3   OH232769   3.965   0.769   1.931  0.1913 -0.3056  0.2097
 3737TIP3    H132770   4.039   0.759   1.990 -0.4492 -0.2608  1.0323
 3737TIP3    H232771   4.001   0.813   1.854  1.0011 -0.2434  0.6193
 3738TIP3   OH232772   0.895   3.815   1.103 -0.7074 -0.6747  0.1114
 3738TIP3    H132773   0.957   3.856   1.163 -1.2490 -0.6531  0.6690
 3738TIP3    H232774   0.834   3.768   1.160 -0.5650 -1.5920 -0.4802
 3739TIP3   OH232775   5.400   5.396   7.430  0.0336 -0.0456 -0.4319
 3739TIP3    H132776   5.488   5.370   7.403  0.0525 -0.1130 -0.3065
 3739TIP3    H232777   5.396   5.373   7.523  0.3422  1.1637 -0.1059
 3740TIP3   OH232778   4.007   3.889   7.187 -0.3126 -0.1401  0.3475
 3740TIP3    H132779   4.018   3.874   7.093 -1.9627 -0.1574  0.1215
 3740TIP3    H232780   4.096   3.896   7.221  0.3122  0.4446 -1.3078
 3741TIP3   OH232781   5.535   0.114   0.191  0.5896  0.7658  0.0467
 3741TIP3    H132782   5.500   0.044   0.136 -0.5190  1.5206 -0.2479
 3741TIP3    H232783   5.562   0.070   0.272  1.9223 -0.3125 -0.9188
 3742TIP3   OH232784   7.145   0.503   1.607 -0.5893  0.3882 -0.4845
 3742TIP3    H132785   7.138   0.434   1.673 -2.6661  1.6277  0.6954
 3742TIP3    H232786   7.158   0.456   1.525  1.2894 -1.2360  0.6458
 3743TIP3   OH232787   2.620   4.285   7.854 -0.6410 -0.0999 -0.2202
 3743TIP3    H132788   2.553   4.221   7.829 -2.4985  1.8980 -0.6446
 3743TIP3    H232789   2.575   4.346   7.912  1.1546  0.6937  0.4303
 3744TIP3   OH232790   5.681   6.475   1.437  0.6219  0.5013  0.3883
 3744TIP3    H132791   5.739   6.418   1.487 -0.6190 -0.9721  0.2056
 3744TIP3    H232792   5.658   6.545   1.498  2.6593  1.1882  0.4174
 3745TIP3   OH232793   6.047   3.616   1.096  0.5197 -0.4595  0.1053
 3745TIP3    H132794   6.057   3.642   1.188  0.5411 -2.0621  0.5944
 3745TIP3    H232795   6.115   3.665   1.050  2.3086 -1.5857  1.3905
 3746TIP3   OH232796   3.402   2.651   1.717  0.2888 -0.4431  0.3779
 3746TIP3    H132797   3.409   2.625   1.625  1.1302 -0.9825  0.5765
 3746TIP3    H232798   3.384   2.569   1.764 -0.2930 -0.1489  0.6832
 3747TIP3   OH232799   3.102   4.883   0.706  0.0844 -0.2263 -0.1380
 3747TIP3    H132800   3.006   4.886   0.707  0.0370  0.1630  2.9550
 3747TIP3    H232801   3.125   4.844   0.790  2.6708  0.4342 -0.4723
 3748TIP3   OH232802   5.304   2.217   1.817  0.6806 -0.2381 -0.4693
 3748TIP3    H132803   5.281   2.163   1.893 -0.1030 -1.1607 -1.3327
 3748TIP3    H232804   5.346   2.155   1.756  1.4485  0.5191 -0.7304
 3749TIP3   OH232805   5.061   0.194   7.580 -0.0590 -0.3247  0.1819
 3749TIP3    H132806   5.091   0.217   7.492  1.5835 -2.1841  0.1752
 3749TIP3    H232807   5.051   0.098   7.577  1.9335 -0.6913  2.5083
 3750TIP3   OH232808   6.068   2.454   6.163 -0.4788  0.2354 -0.1273
 3750TIP3    H132809   6.101   2.388   6.103  0.4972 -1.1922  1.8778
 3750TIP3    H232810   5.985   2.419   6.196  0.0319 -0.0173  0.9313
 3751TIP3   OH232811   2.558   3.088   6.768 -0.0739  0.5925 -0.8834
 3751TIP3    H132812   2.560   3.005   6.720 -0.6194  0.8927 -1.4412
 3751TIP3    H232813   2.563   3.063   6.860  1.5022  0.0253 -1.0979
 3752TIP3   OH232814   0.780   3.287   7.436 -0.1014  0.5662  0.2114
 3752TIP3    H132815   0.760   3.324   7.522 -0.7064  0.4417  0.1284
 3752TIP3    H232816   0.764   3.193   7.446  1.4426  0.2978  0.4271
 3753TIP3   OH232817   6.638   0.021   7.249  0.1235  0.1404 -0.1772
 3753TIP3    H132818   6.625   0.064   7.333  1.8688 -0.8309  0.6508
 3753TIP3    H232819   6.705   0.073   7.205  1.6533 -1.1731  0.4890
 3754TIP3   OH232820   1.622   3.355   7.555  0.0168  0.1367 -0.5492
 3754TIP3    H132821   1.548   3.396   7.600  0.0991 -1.5456  1.2579
 3754TIP3    H232822   1.698   3.378   7.608  0.0221 -2.5188  0.7465
 3755TIP3   OH232823   2.734   0.887   6.176 -0.1121 -0.2247 -0.0785
 3755TIP3    H132824   2.704   0.834   6.103 -1.7100  0.6028 -0.0627
 3755TIP3    H232825   2.743   0.975   6.140  3.3592 -0.5469 -0.3339
 3756TIP3   OH232826   6.688   5.216   0.005 -0.3915 -1.1064  0.1870
 3756TIP3    H132827   6.611   5.261   0.039  0.1748  0.0135  0.0333
 3756TIP3    H232828   6.654   5.155  -0.060 -1.1503 -0.6145  0.1086
 3757TIP3   OH232829   1.321   1.847   5.922 -0.3383  0.1400  0.2605
 3757TIP3    H132830   1.366   1.924   5.887 -0.4284  0.8336  1.5857
 3757TIP3    H232831   1.360   1.773   5.878  0.5641  0.8805 -0.2047
 3758TIP3   OH232832   6.030   6.625   1.245 -0.0500 -0.3959  0.5710
 3758TIP3    H132833   6.046   6.702   1.300 -1.6944  0.8704 -0.6287
 3758TIP3    H232834   6.116   6.586   1.232  1.2171  2.5263 -0.6136
 3759TIP3   OH232835   6.143   6.968   7.599  0.1759 -0.1638  0.1176
 3759TIP3    H132836   6.119   6.881   7.568 -0.6902  0.0952  0.0394
 3759TIP3    H232837   6.136   6.962   7.695 -0.5768  0.0030  0.0829
 3760TIP3   OH232838   1.759   4.718   0.799 -0.1856 -0.3892 -0.1430
 3760TIP3    H132839   1.829   4.741   0.860 -1.4561 -1.2522  1.7195
 3760TIP3    H232840   1.711   4.800   0.787 -0.1230 -0.2818  0.3008
 3761TIP3   OH232841   5.874   6.158   7.987 -0.1117  0.0254 -0.0981
 3761TIP3    H132842   5.828   6.240   7.968  0.5620  0.1347 -1.3989
 3761TIP3    H232843   5.914   6.172   8.073 -0.4952  0.8277 -0.0389
 3762TIP3   OH232844   3.772   5.316   1.466 -0.2536 -0.4894  0.3355
 3762TIP3    H132845   3.712   5.252   1.503  0.4008 -0.7969  0.9005
 3762TIP3    H232846   3.827   5.343   1.540  1.7974 -1.9176 -0.5923
 3763TIP3   OH232847   1.686   3.995   0.981  0.9169  0.0138  0.4000
 3763TIP3    H132848   1.602   4.034   0.956  1.4653  1.2085  0.3728
 3763TIP3    H232849   1.745   4.069   0.991  2.3458 -0.8845 -0.9457
 3764TIP3   OH232850   4.193   3.778   6.920 -0.3265 -0.3465 -0.1366
 3764TIP3    H132851   4.272   3.750   6.965  0.8247  0.9394 -1.2604
 3764TIP3    H232852   4.136   3.701   6.919  0.5459 -1.0498  1.4305
 3765TIP3   OH232853   5.175   5.453   0.400 -0.2033 -0.0231  0.1976
 3765TIP3    H132854   5.129   5.383   0.447 -0.2362  0.2444  0.5772
 3765TIP3    H232855   5.236   5.408   0.343 -0.2242 -0.3631  0.4392
 3766TIP3   OH232856   6.384   6.379   7.240  0.1510  0.4971 -0.0912
 3766TIP3    H132857   6.470   6.361   7.202 -0.4639 -1.3642 -0.6711
 3766TIP3    H232858   6.323   6.375   7.166 -0.7638 -0.8911  0.6870
 3767TIP3   OH232859   3.075   1.554   6.730  0.4202  0.3055  0.2349
 3767TIP3    H132860   3.092   1.524   6.641  0.0549  1.6060 -0.2975
 3767TIP3    H232861   3.009   1.493   6.764 -1.1866  1.1476 -1.2233
 3768TIP3   OH232862   5.056   5.988   8.026  0.5802 -0.5061  0.1135
 3768TIP3    H132863   5.121   5.958   8.090  0.0374 -3.6865 -0.6393
 3768TIP3    H232864   4.980   5.933   8.042 -0.7873  0.9377 -1.1096
 3769TIP3   OH232865   2.442   5.857   1.176 -0.3489 -0.2600  0.3195
 3769TIP3    H132866   2.535   5.876   1.168  0.6563 -3.7362  1.7247
 3769TIP3    H232867   2.414   5.907   1.253  1.1838 -1.3954  1.6967
 3770TIP3   OH232868   6.519   3.325   0.774 -0.8048 -0.2431  0.0562
 3770TIP3    H132869   6.529   3.277   0.856  0.9924 -1.4426 -0.8040
 3770TIP3    H232870   6.506   3.258   0.708 -0.4159  0.5833 -0.8939
 3771TIP3   OH232871   0.766   1.096   1.118  0.0880 -0.3738 -0.1252
 3771TIP3    H132872   0.826   1.085   1.044  1.2128  0.6500  0.6066
 3771TIP3    H232873   0.700   1.158   1.086 -1.9132 -3.0581 -1.6594
 3772TIP3   OH232874   6.692   2.630   7.805  0.0678 -0.2614  0.6968
 3772TIP3    H132875   6.757   2.579   7.853 -0.4553  1.3741  3.3751
 3772TIP3    H232876   6.612   2.577   7.807  0.8391 -1.6023 -1.2773
 3773TIP3   OH232877   2.040   4.757   1.283  0.6908 -0.2073  0.3187
 3773TIP3    H132878   1.980   4.683   1.277 -0.1498  0.4066  0.8947
 3773TIP3    H232879   2.093   4.752   1.204 -0.2992 -0.6245 -0.3314
 3774TIP3   OH232880   3.028   3.463   7.899 -0.3692  0.1089  0.1934
 3774TIP3    H132881   3.018   3.558   7.894 -0.3679  0.1923  1.3806
 3774TIP3    H232882   3.010   3.432   7.810 -0.6131  1.1942 -0.1536
 3775TIP3   OH232883   0.967   4.979   0.634  0.6110 -0.8998  0.4230
 3775TIP3    H132884   1.011   4.937   0.708  2.2390 -0.4975 -0.2730
 3775TIP3    H232885   1.009   4.942   0.557 -1.0821 -1.3326 -0.3287
 3776TIP3   OH232886   6.613   1.468   7.923 -0.1745 -0.1797 -0.0964
 3776TIP3    H132887   6.567   1.545   7.958 -0.1672 -0.3430  0.2736
 3776TIP3    H232888   6.670   1.439   7.994  1.1070  0.4919 -0.8035
 3777TIP3   OH232889   1.395   1.535   5.636  0.7705 -0.0194 -1.0046
 3777TIP3    H132890   1.300   1.531   5.642  0.8959 -2.3763  1.1894
 3777TIP3    H232891   1.424   1.568   5.721  1.9385  0.6127 -1.6156
 3778TIP3   OH232892   2.399   3.633   5.954  1.0579 -0.6409  0.6341
 3778TIP3    H132893   2.443   3.708   5.916 -1.3388  0.9265  0.7118
 3778TIP3    H232894   2.422   3.636   6.047  2.0773 -0.8569  0.3977
 3779TIP3   OH232895   5.917   1.536   6.932 -0.5960  0.1197 -0.3260
 3779TIP3    H132896   5.931   1.628   6.957 -1.6886 -0.5264  3.1644
 3779TIP3    H232897   5.859   1.541   6.856 -0.8150  2.3087 -0.0878
 3780TIP3   OH232898   3.806   5.788   7.193  0.3572  0.4489  0.1612
 3780TIP3    H132899   3.836   5.852   7.128  2.4001 -2.4291 -1.9654
 3780TIP3    H232900   3.863   5.802   7.268  0.6652  1.2155 -0.2002
 3781TIP3   OH232901   5.353   4.102   0.408 -0.1179 -0.0320 -0.7955
 3781TIP3    H132902   5.343   4.147   0.324 -2.2524 -0.6323 -0.9334
 3781TIP3    H232903   5.289   4.145   0.465 -1.3146 -1.9874 -0.5749
 3782TIP3   OH232904   4.145   1.493   1.312  0.0961 -0.3110 -0.0518
 3782TIP3    H132905   4.124   1.435   1.385 -0.7534  0.5442  0.4050
 3782TIP3    H232906   4.094   1.572   1.329 -0.0179 -0.0505 -1.5134
 3783TIP3   OH232907   3.878   2.167   0.012 -0.3548  0.1158 -0.3622
 3783TIP3    H132908   3.893   2.232  -0.057  1.4341 -0.9105 -1.0354
 3783TIP3    H232909   3.825   2.099  -0.030  3.6390 -2.2987 -2.1025
 3784TIP3   OH232910   1.923   2.639   7.415 -0.2436  0.1906 -0.0988
 3784TIP3    H132911   1.865   2.681   7.479  0.5993  0.2430  0.6585
 3784TIP3    H232912   1.895   2.548   7.413 -0.7466  0.3436 -0.2025
 3785TIP3   OH232913   4.041   1.688   7.167 -0.4776 -0.4241  0.3781
 3785TIP3    H132914   3.988   1.672   7.245 -0.8932 -2.2862 -0.2290
 3785TIP3    H232915   4.098   1.612   7.160 -1.1819 -0.8277 -1.6913
 3786TIP3   OH232916   4.941   6.349   0.016  0.2165  0.0097 -0.0027
 3786TIP3    H132917   4.952   6.274  -0.042 -1.0282 -0.7535  0.7101
 3786TIP3    H232918   5.007   6.411  -0.013  2.3705 -1.9637  0.3815
 3787TIP3   OH232919   1.487   3.991   0.028 -0.0543  0.1427  0.1622
 3787TIP3    H132920   1.419   3.985  -0.039  0.2169 -2.1012  0.0143
 3787TIP3    H232921   1.568   4.003  -0.022 -0.1909  1.8929  0.2979
 3788TIP3   OH232922   4.874   3.601   7.604 -0.0428 -0.8577  0.2269
 3788TIP3    H132923   4.850   3.589   7.696 -1.5248  0.7580  0.1192
 3788TIP3    H232924   4.953   3.654   7.606 -1.5948  1.6265  0.6551
 3789TIP3   OH232925   0.375   2.901   5.848  0.2406 -0.3135 -0.4969
 3789TIP3    H132926   0.351   2.820   5.804 -1.4307  0.4128 -0.9667
 3789TIP3    H232927   0.399   2.961   5.778  1.3507 -0.3242 -0.1586
 3790TIP3   OH232928   5.722   4.105   1.494 -0.1673 -0.2661  0.4152
 3790TIP3    H132929   5.743   4.048   1.419 -0.1723  0.9864 -0.5699
 3790TIP3    H232930   5.759   4.190   1.471  0.7814 -0.1193  2.3475
 3791TIP3   OH232931   3.378   6.007   0.925  0.3096  0.6030  0.2403
 3791TIP3    H132932   3.328   5.941   0.878 -1.0634  1.2894  0.6843
 3791TIP3    H232933   3.403   6.071   0.859 -0.3500  0.8100  0.1843
 3792TIP3   OH232934   0.810   0.343   6.447 -0.2214  0.8693  0.0955
 3792TIP3    H132935   0.806   0.426   6.401 -1.4858  0.7692 -0.0113
 3792TIP3    H232936   0.849   0.282   6.384  0.8468  1.4001  0.2273
 3793TIP3   OH232937   6.730   4.623   6.850  0.1846  0.1532 -0.3478
 3793TIP3    H132938   6.799   4.574   6.895  0.6206  1.5478  0.5636
 3793TIP3    H232939   6.742   4.602   6.758  2.4277  1.0346 -0.3222
 3794TIP3   OH232940   4.017   4.241   7.968  0.3725  0.6403 -0.2606
 3794TIP3    H132941   4.052   4.225   7.881  2.5433 -1.0667  0.8147
 3794TIP3    H232942   3.923   4.223   7.960  0.6247 -0.0560 -2.0871
 3795TIP3   OH232943   5.615   4.116   0.525  0.1191 -0.0520 -0.4215
 3795TIP3    H132944   5.539   4.103   0.469  0.0198 -0.8131 -0.1296
 3795TIP3    H232945   5.628   4.031   0.568  0.8210  0.2148 -0.0817
 3796TIP3   OH232946   0.403   3.132   0.814  0.3987  0.9436  0.0648
 3796TIP3    H132947   0.452   3.130   0.732  1.6601 -0.5653  0.8162
 3796TIP3    H232948   0.330   3.072   0.800 -0.3242  1.9342 -0.4920
 3797TIP3   OH232949   0.004   1.859   0.511  0.2913  0.0920  0.2619
 3797TIP3    H132950  -0.067   1.886   0.570 -0.6454 -0.9967 -0.3327
 3797TIP3    H232951   0.067   1.816   0.569 -0.0770  0.0388  0.6321
 3798TIP3   OH232952   1.820   2.049   7.188 -0.0591 -0.2008 -0.2728
 3798TIP3    H132953   1.841   1.974   7.133 -0.0480  0.1334 -0.7238
 3798TIP3    H232954   1.745   2.021   7.241 -0.0782 -0.5134 -0.4694
 3799TIP3   OH232955   6.263   3.091   1.946 -0.0125  0.0573 -0.6130
 3799TIP3    H132956   6.284   3.180   1.919  0.8995 -0.2195 -0.8493
 3799TIP3    H232957   6.317   3.077   2.024  0.3216 -0.5062 -0.9462
 3800TIP3   OH232958   1.162   2.950   1.253  0.1034  0.3015 -0.1437
 3800TIP3    H132959   1.241   2.903   1.225  0.4264  0.4653  0.4699
 3800TIP3    H232960   1.168   3.035   1.209 -0.6318 -0.3081 -1.4952
 3801TIP3   OH232961   2.248   5.662   1.131  1.0748 -0.7065 -0.3459
 3801TIP3    H132962   2.327   5.696   1.088  1.3202 -0.5333  0.2354
 3801TIP3    H232963   2.259   5.684   1.223  1.2933 -2.4158  0.0858
 3802TIP3   OH232964   6.968   1.515   0.065 -0.6756  0.1282  0.2769
 3802TIP3    H132965   6.890   1.561   0.096 -2.1285 -0.8588 -1.6569
 3802TIP3    H232966   6.934   1.449   0.005  1.4676 -2.2209  1.4695
 3803TIP3   OH232967   4.972   5.851   7.216 -0.1405 -0.3470 -0.4164
 3803TIP3    H132968   4.910   5.921   7.239  0.6108  0.0402  0.4995
 3803TIP3    H232969   4.919   5.788   7.168 -1.7849 -1.0682  2.1285
 3804TIP3   OH232970   1.994   0.068   0.149  0.0082  0.3176 -0.3237
 3804TIP3    H132971   2.087   0.048   0.158  0.3945  2.1759  0.2363
 3804TIP3    H232972   1.991   0.161   0.129 -1.7270  0.1756 -0.8967
 3805TIP3   OH232973   1.307   5.167   1.349 -0.6463 -0.1655  0.3922
 3805TIP3    H132974   1.316   5.090   1.292 -1.7413  0.2330 -0.3354
 3805TIP3    H232975   1.269   5.133   1.430  2.0263 -0.9499  1.4462
 3806TIP3   OH232976   2.327   2.542   7.407  0.2206  0.3425  0.0733
 3806TIP3    H132977   2.334   2.456   7.450  0.3266 -0.4252 -1.4095
 3806TIP3    H232978   2.287   2.523   7.323  0.6399  1.7038 -0.4603
 3807TIP3   OH232979   5.006   1.512   7.127 -0.4005 -0.7013  0.2646
 3807TIP3    H132980   4.941   1.470   7.183  0.6534 -1.6298  0.8521
 3807TIP3    H232981   5.060   1.563   7.188 -1.6434  1.5776 -0.4352
 3808TIP3   OH232982   4.892   2.777   0.531 -1.0801 -0.1478  0.0928
 3808TIP3    H132983   4.946   2.794   0.608 -1.3173  0.3995  0.1396
 3808TIP3    H232984   4.948   2.800   0.457 -0.6089 -1.3120  0.0560
 3809TIP3   OH232985   5.749   2.146   1.175 -1.0553 -0.0602 -0.3484
 3809TIP3    H132986   5.782   2.188   1.255 -0.1350  0.0507 -0.7698
 3809TIP3    H232987   5.691   2.077   1.207 -0.4001 -0.2702  0.4435
 3810TIP3   OH232988   2.017   1.514   6.915  0.4470 -0.1270  0.3915
 3810TIP3    H132989   2.017   1.436   6.970  1.0878  0.3587  1.1043
 3810TIP3    H232990   2.110   1.531   6.899  0.2732 -0.3370 -0.9685
 3811TIP3   OH232991   3.896   0.962   1.674  0.1579 -0.2237 -0.1979
 3811TIP3    H132992   3.840   0.988   1.748 -1.2132 -1.5631 -0.7170
 3811TIP3    H232993   3.835   0.931   1.608  1.5385 -2.0757 -0.6583
 3812TIP3   OH232994   5.930   0.403   1.194  0.0179 -0.0123  0.0624
 3812TIP3    H132995   5.958   0.387   1.284 -0.8765  0.0090  0.3567
 3812TIP3    H232996   5.891   0.321   1.166  0.8502 -0.2147 -0.5329
 3813TIP3   OH232997   2.420   4.172   1.383  0.0155 -0.4525 -0.2438
 3813TIP3    H132998   2.435   4.200   1.293  0.4597 -0.3590 -0.1426
 3813TIP3    H232999   2.338   4.216   1.409  1.5518  2.1923  0.4903
 3814TIP3   OH233000   1.985   5.342   7.300  0.2053  0.0457  0.2491
 3814TIP3    H133001   1.906   5.397   7.297 -0.3331 -0.6651  0.9129
 3814TIP3    H233002   2.054   5.402   7.330  0.3026  1.0696 -1.8615
 3815TIP3   OH233003   4.008   2.320   5.904  0.3059 -0.2443  0.3132
 3815TIP3    H133004   4.075   2.383   5.877  0.7670 -1.9927 -3.2825
 3815TIP3    H233005   4.047   2.235   5.884 -1.9374 -1.4518  0.7986
 3816TIP3   OH233006   6.767   6.835   1.514  0.0500 -0.3638 -0.6497
 3816TIP3    H133007   6.838   6.845   1.577 -0.3055  0.6860 -0.4062
 3816TIP3    H233008   6.705   6.775   1.558  0.2824 -0.4455 -0.4281
 3817TIP3   OH233009   3.736   4.750   0.666 -0.5167 -0.1075 -0.0863
 3817TIP3    H133010   3.815   4.743   0.613  0.3965 -0.5702  1.2953
 3817TIP3    H233011   3.723   4.844   0.677  0.1575 -0.0343  0.1321
 3818TIP3   OH233012   6.052   4.873   6.314  0.0714 -0.2704  0.4331
 3818TIP3    H133013   6.038   4.913   6.228 -0.8753 -0.6757  0.3982
 3818TIP3    H233014   6.009   4.788   6.310 -1.5747  0.4372  1.8897
 3819TIP3   OH233015   3.640   6.300   2.153 -0.5119 -0.1462  0.2183
 3819TIP3    H133016   3.593   6.224   2.118 -0.6258  0.1064 -0.1750
 3819TIP3    H233017   3.637   6.365   2.083  0.2529 -0.0560  0.2628
 3820TIP3   OH233018   6.930   6.918   0.391 -0.5556  0.5451  0.7095
 3820TIP3    H133019   7.014   6.951   0.421  0.6131 -0.8226 -0.8559
 3820TIP3    H233020   6.939   6.822   0.393 -2.0990  0.3612  0.5714
 3821TIP3   OH233021   0.898   1.813   7.807  0.0919 -0.2202 -0.8033
 3821TIP3    H133022   0.886   1.723   7.839  1.3288 -0.0677  0.1690
 3821TIP3    H233023   0.809   1.847   7.800 -0.3298 -0.6425  1.5248
 3822TIP3   OH233024   6.225   7.139   6.777  0.2343 -0.5193 -0.2926
 3822TIP3    H133025   6.292   7.204   6.754  0.7044 -0.8376  0.1729
 3822TIP3    H233026   6.245   7.114   6.867  1.3075 -2.7986 -1.0965
 3823TIP3   OH233027   2.572   3.636   1.424  0.5666 -0.2816 -0.4741
 3823TIP3    H133028   2.628   3.568   1.461  2.0675  1.8047  1.3175
 3823TIP3    H233029   2.623   3.716   1.432 -2.2520  1.5755  0.2000
 3824TIP3   OH233030   6.770   0.393   0.954 -0.2492 -0.7737 -0.6692
 3824TIP3    H133031   6.703   0.326   0.943  0.0379 -1.3533  0.7630
 3824TIP3    H233032   6.733   0.472   0.914 -1.5994 -1.1906 -0.2903
 3825TIP3   OH233033   0.309   6.640   7.355  0.0021  0.6372 -0.0700
 3825TIP3    H133034   0.239   6.695   7.389 -2.5585 -2.0903 -0.5027
 3825TIP3    H233035   0.360   6.616   7.432 -1.1537  0.5681  0.6957
 3826TIP3   OH233036   1.911   6.174   7.729  0.0757  0.3855 -0.2903
 3826TIP3    H133037   1.840   6.208   7.783  1.8707  2.3727  0.9844
 3826TIP3    H233038   1.925   6.085   7.762 -1.1275  0.3335  0.1382
 3827TIP3   OH233039   5.557   4.859   0.880  0.0681  0.1673  0.0335
 3827TIP3    H133040   5.529   4.800   0.810 -0.4461  0.7419 -0.2531
 3827TIP3    H233041   5.505   4.939   0.867  2.0824  1.4089 -0.7182
 3828TIP3   OH233042   6.940   7.138   6.644 -0.0953 -0.1239  0.4033
 3828TIP3    H133043   6.928   7.147   6.549  0.9358  1.3179  0.3690
 3828TIP3    H233044   6.954   7.044   6.658 -1.9486 -0.6068 -0.6288
 3829TIP3   OH233045   7.101   2.267   7.768  0.2284 -0.3267 -0.2598
 3829TIP3    H133046   7.171   2.250   7.831 -0.4568 -1.3565  0.2687
 3829TIP3    H233047   7.034   2.201   7.789  0.2794 -1.2021 -2.5294
 3830TIP3   OH233048   3.515   3.764   7.810 -0.7158  0.1483 -0.4663
 3830TIP3    H133049   3.454   3.717   7.867  0.7606  0.3044  1.3323
 3830TIP3    H233050   3.557   3.828   7.867 -0.0340  1.1681 -2.0375
 3831TIP3   OH233051   0.295   2.632   5.749  0.4668  0.1762 -0.1146
 3831TIP3    H133052   0.274   2.576   5.824 -0.3588  0.6111 -0.0094
 3831TIP3    H233053   0.276   2.578   5.673 -1.3453  0.6153 -0.0312
 3832TIP3   OH233054   3.666   2.281   7.414  0.3260 -0.0598 -0.1370
 3832TIP3    H133055   3.632   2.279   7.325 -1.9008 -0.0623  0.6538
 3832TIP3    H233056   3.594   2.316   7.467  1.7006  0.2588  1.6246
 3833TIP3   OH233057   6.205   1.493   1.151  0.6236  0.1932 -0.1105
 3833TIP3    H133058   6.207   1.584   1.180  1.3061  0.5986 -1.3357
 3833TIP3    H233059   6.120   1.484   1.107  0.6382  0.2998 -0.1613
 3834TIP3   OH233060   5.737   3.143   1.178 -0.5883  0.1312  0.0647
 3834TIP3    H133061   5.804   3.075   1.171 -1.1445 -0.4218  0.0450
 3834TIP3    H233062   5.679   3.128   1.104 -0.2129  1.2012 -0.4692
 3835TIP3   OH233063   5.926   6.060   0.241 -0.0638 -0.0609 -0.0984
 3835TIP3    H133064   5.909   6.028   0.330  0.3316  0.6841  0.2527
 3835TIP3    H233065   6.009   6.018   0.217  1.1784  1.6849  0.8908
 3836TIP3   OH233066   3.262   0.800   1.254  0.4757  0.2159 -0.0886
 3836TIP3    H133067   3.186   0.767   1.302  0.9414 -1.4053 -0.3883
 3836TIP3    H233068   3.302   0.864   1.314 -1.0805  1.0942  0.0751
 3837TIP3   OH233069   3.079   0.330   7.586  0.2645  0.1528 -0.0151
 3837TIP3    H133070   3.171   0.310   7.601  0.7447  1.3190 -1.2014
 3837TIP3    H233071   3.037   0.244   7.579  1.2155 -0.3938  0.7060
 3838TIP3   OH233072   7.072   2.180   7.490 -0.0896 -0.0112  0.6612
 3838TIP3    H133073   7.116   2.210   7.570  0.2174  0.0773  0.4605
 3838TIP3    H233074   7.009   2.115   7.520 -1.0210  1.0676  1.1559
 3839TIP3   OH233075   3.413   6.566   0.806  0.1638 -0.0692  0.1500
 3839TIP3    H133076   3.477   6.539   0.871  0.5304  1.3496  0.4144
 3839TIP3    H233077   3.465   6.604   0.735 -0.3549  1.0050  0.3231
 3840TIP3   OH233078   7.057   2.714   7.587 -0.4234  0.4474  0.0011
 3840TIP3    H133079   7.003   2.656   7.641 -0.4877  1.0554  0.5974
 3840TIP3    H233080   7.069   2.665   7.505 -3.2245  0.9573 -0.8159
 3841TIP3   OH233081   1.184   0.363   6.282  0.1755 -1.0114 -0.3464
 3841TIP3    H133082   1.211   0.379   6.192 -0.6369 -0.9465 -0.5869
 3841TIP3    H233083   1.101   0.316   6.274 -0.3636 -0.2065  0.3669
 3842TIP3   OH233084   3.658   0.095   2.142  0.1604 -0.2709  0.1508
 3842TIP3    H133085   3.579   0.079   2.194  0.8898 -1.1130  1.0362
 3842TIP3    H233086   3.655   0.189   2.122  0.1909  0.2455  2.3106
 3843TIP3   OH233087   4.804   1.474   0.137  0.1970 -0.1701  0.6625
 3843TIP3    H133088   4.835   1.513   0.219  1.2704 -1.5525  0.9267
 3843TIP3    H233089   4.809   1.380   0.150 -0.1869 -0.4283 -0.7970
 3844TIP3   OH233090   6.100   2.589   7.323 -0.0863 -0.6978  0.1134
 3844TIP3    H133091   6.010   2.591   7.290  0.3551  1.5062 -1.1576
 3844TIP3    H233092   6.144   2.660   7.276  2.2914 -1.6291  0.8126
 3845TIP3   OH233093   4.105   4.599   7.537  0.1976  0.0659  0.5943
 3845TIP3    H133094   4.150   4.675   7.575 -1.0043  1.6258 -0.9414
 3845TIP3    H233095   4.013   4.612   7.559 -0.1267 -0.5012 -0.3735
 3846TIP3   OH233096   1.885   2.386   6.287 -0.4277  0.4412  0.1306
 3846TIP3    H133097   1.898   2.470   6.330 -0.7591 -0.1840  1.5055
 3846TIP3    H233098   1.791   2.369   6.295 -0.1456 -0.7572  1.2700
 3847TIP3   OH233099   4.041   1.909   0.462  0.4056  0.1408  0.4850
 3847TIP3    H133100   4.030   1.873   0.550  1.9924  1.7669  1.4110
 3847TIP3    H233101   4.069   1.835   0.409  0.6264 -0.6254  1.6324
 3848TIP3   OH233102   4.319   3.432   1.069  0.3131  0.1999 -0.3068
 3848TIP3    H133103   4.346   3.494   1.137 -0.3257  1.5273 -1.2179
 3848TIP3    H233104   4.283   3.487   1.000 -0.2681 -1.2099 -1.1625
 3849TIP3   OH233105   3.753   6.614   6.378 -0.2496 -0.3280 -0.0505
 3849TIP3    H133106   3.777   6.641   6.467 -0.8863 -0.4547  0.1641
 3849TIP3    H233107   3.763   6.519   6.379  0.1407 -0.2933 -0.2434
 3850TIP3   OH233108   1.604   6.180   6.388  0.0565  0.9356  0.1867
 3850TIP3    H133109   1.609   6.097   6.340  0.9750  0.4098  1.1449
 3850TIP3    H233110   1.519   6.176   6.433 -0.7110  1.3342 -1.1544
 3851TIP3   OH233111   0.031   4.885   6.035 -0.4713 -0.1649 -0.3888
 3851TIP3    H133112   0.044   4.872   5.941  0.9604 -0.9051 -0.1160
 3851TIP3    H233113   0.075   4.810   6.075  0.2992  0.9600  0.9243
 3852TIP3   OH233114   3.281   4.665   1.246 -0.8500  0.0651 -0.1710
 3852TIP3    H133115   3.340   4.740   1.247  0.2796 -0.8091 -0.3392
 3852TIP3    H233116   3.336   4.590   1.226 -1.4487 -1.2455  2.6452
 3853TIP3   OH233117   6.285   4.657   0.210  0.9089  0.5620  0.1517
 3853TIP3    H133118   6.329   4.707   0.278  0.2521 -0.5438  1.4215
 3853TIP3    H233119   6.297   4.566   0.235  0.2310  0.1450 -0.9514
 3854TIP3   OH233120   1.097   3.823   7.540  0.5091  0.4479 -0.1591
 3854TIP3    H133121   1.054   3.840   7.624  0.6065 -0.1589  0.0204
 3854TIP3    H233122   1.143   3.904   7.520  1.8005  0.0726  1.1718
 3855TIP3   OH233123   6.017   5.024   0.593 -0.1578  0.0921 -0.0219
 3855TIP3    H133124   5.948   4.968   0.556  0.2737 -0.3013 -0.2407
 3855TIP3    H233125   6.052   4.972   0.665 -0.8872  0.7905  0.8471
 3856TIP3   OH233126   2.856   2.425   6.825  0.4499  0.0664  0.2048
 3856TIP3    H133127   2.852   2.364   6.898  1.5844 -0.7346 -0.3570
 3856TIP3    H233128   2.909   2.498   6.857  0.7179 -0.1554  0.2698
 3857TIP3   OH233129   2.926   3.369   7.578 -0.4875  0.5223  0.1902
 3857TIP3    H133130   2.851   3.319   7.543  0.2172  0.3606 -1.1502
 3857TIP3    H233131   2.916   3.456   7.539  1.7341 -0.3597 -2.7316
 3858TIP3   OH233132   2.126   0.121   7.179  0.0595  0.1903 -0.5293
 3858TIP3    H133133   2.057   0.171   7.136  0.5461  0.8321 -0.5781
 3858TIP3    H233134   2.207   0.155   7.141  0.3719 -1.2897 -1.2642
 3859TIP3   OH233135   0.534   3.562   7.988  0.1509  0.5488  0.2861
 3859TIP3    H133136   0.512   3.628   7.923 -0.2893 -0.7592 -0.9490
 3859TIP3    H233137   0.467   3.495   7.978  1.5484 -0.9208  0.2759
 3860TIP3   OH233138   4.706   1.208   1.810 -0.2417  0.2267  0.6448
 3860TIP3    H133139   4.743   1.202   1.898 -1.5616  0.1024  1.2188
 3860TIP3    H233140   4.633   1.269   1.819  0.6491  1.5682 -0.7622
 3861TIP3   OH233141   1.089   4.914   7.783 -0.0887  0.4319 -0.3468
 3861TIP3    H133142   1.101   5.001   7.747  0.4265  0.1207 -0.9586
 3861TIP3    H233143   1.177   4.887   7.810 -0.3558  0.3857  0.5242
 3862TIP3   OH233144   0.625   1.140   0.506 -0.0504 -0.1320 -0.4191
 3862TIP3    H133145   0.550   1.135   0.447  0.2716 -0.4625 -0.8018
 3862TIP3    H233146   0.660   1.050   0.509  0.3671  0.0312 -0.2926
 3863TIP3   OH233147   2.394   1.859   6.896 -0.7756  0.3581 -0.6764
 3863TIP3    H133148   2.467   1.873   6.956 -0.5787 -0.2149 -0.7788
 3863TIP3    H233149   2.433   1.863   6.809 -0.4437 -2.0630 -0.7117
 3864TIP3   OH233150   2.489   0.208   0.536  0.2399  0.1613  0.0260
 3864TIP3    H133151   2.523   0.189   0.449  1.2662 -2.3406  0.8511
 3864TIP3    H233152   2.432   0.133   0.556 -1.2697  1.4814  0.9003
 3865TIP3   OH233153   0.187   6.681   6.054 -0.2053  0.5340  0.1296
 3865TIP3    H133154   0.238   6.762   6.046 -0.8957  0.9950  0.2955
 3865TIP3    H233155   0.247   6.612   6.025  1.6459  0.6386  3.2177
 3866TIP3   OH233156   5.527   6.028   0.499 -0.0658 -0.1114  0.2103
 3866TIP3    H133157   5.437   5.998   0.503  0.6456 -2.2553  3.3343
 3866TIP3    H233158   5.520   6.124   0.498 -2.3234 -0.2225 -0.1873
 3867TIP3   OH233159   6.126   2.756   6.725  0.1049 -0.1826  0.3393
 3867TIP3    H133160   6.072   2.693   6.772 -0.5286 -0.7691 -1.1224
 3867TIP3    H233161   6.159   2.708   6.649 -0.2899  1.1906 -0.7462
 3868TIP3   OH233162   5.525   6.269   1.370 -0.0944 -0.6003  0.0056
 3868TIP3    H133163   5.537   6.218   1.450  0.5106  1.0868  1.0454
 3868TIP3    H233164   5.580   6.346   1.383  0.9850 -0.8497 -2.5907
 3869TIP3   OH233165   3.842   2.372   6.109  0.2474 -0.1260  0.1250
 3869TIP3    H133166   3.902   2.350   6.180 -0.1653 -3.0049 -0.2830
 3869TIP3    H233167   3.898   2.377   6.031  0.2203 -1.0948  0.0274
 3870TIP3   OH233168   6.239   2.557   6.588  0.1479  0.0478 -0.8068
 3870TIP3    H133169   6.210   2.466   6.580 -0.9558  0.4068 -1.1096
 3870TIP3    H233170   6.332   2.555   6.565  0.4160 -1.1621  0.2151
 3871TIP3   OH233171   6.318   0.714   6.735  0.0834 -0.2688 -0.0843
 3871TIP3    H133172   6.223   0.698   6.733 -0.1357  0.9133 -0.4071
 3871TIP3    H233173   6.326   0.809   6.721  1.3943 -0.6472 -2.4123
 3872TIP3   OH233174   2.433   3.922   0.708 -0.2270 -0.2912  0.6047
 3872TIP3    H133175   2.478   3.886   0.784 -0.2692  1.1618  1.3696
 3872TIP3    H233176   2.345   3.942   0.740  0.0513  1.2635  0.5101
 3873TIP3   OH233177   1.751   2.534   1.106 -0.2820  0.0959 -1.0671
 3873TIP3    H133178   1.735   2.625   1.130  1.0427 -0.0272  0.4387
 3873TIP3    H233179   1.751   2.534   1.010 -0.1741  1.7011 -1.0899
 3874TIP3   OH233180   6.950   5.282   0.583  0.1453  0.2363 -0.6619
 3874TIP3    H133181   6.983   5.356   0.532 -0.2477  0.7054 -0.2396
 3874TIP3    H233182   6.864   5.310   0.613 -0.2078 -0.5851 -0.8973
 3875TIP3   OH233183   6.290   6.199   0.684  0.5919 -0.5585 -0.0782
 3875TIP3    H133184   6.381   6.183   0.658  0.5629 -2.8540  1.0094
 3875TIP3    H233185   6.288   6.182   0.778 -0.2578  3.0803  0.7153
 3876TIP3   OH233186   0.740   4.176   0.608  0.0469 -0.1246 -0.5149
 3876TIP3    H133187   0.763   4.213   0.523  2.3073 -0.0996  0.0526
 3876TIP3    H233188   0.749   4.082   0.597  0.3686 -0.1199 -0.3015
 3877TIP3   OH233189   4.276   3.176   1.131  0.0532  0.2346 -0.0346
 3877TIP3    H133190   4.291   3.268   1.109  0.0742 -0.2582 -2.2905
 3877TIP3    H233191   4.199   3.151   1.079  0.5006 -1.2079 -0.0396
 3878TIP3   OH233192   6.276   2.493   7.141 -0.0450 -0.2089  0.8581
 3878TIP3    H133193   6.212   2.489   7.212  0.3517 -0.0245  1.2238
 3878TIP3    H233194   6.354   2.532   7.180 -0.0299  0.4795  0.1745
 3879TIP3   OH233195   0.435   3.176   7.441  0.5154 -0.0093  0.0474
 3879TIP3    H133196   0.397   3.232   7.373 -0.1607  0.1175  0.5213
 3879TIP3    H233197   0.510   3.226   7.474  2.2424 -1.0295 -2.1221
 3880TIP3   OH233198   2.690   2.534   5.688  0.1688 -0.2664 -0.0228
 3880TIP3    H133199   2.762   2.514   5.747  0.5523  1.3547  0.0943
 3880TIP3    H233200   2.715   2.493   5.605  0.7452 -0.5466  0.2841
 3881TIP3   OH233201   4.897   2.025   6.870  0.0990 -0.2745  0.7535
 3881TIP3    H133202   4.925   1.949   6.820  1.6911  0.0143  1.1555
 3881TIP3    H233203   4.923   2.100   6.817  0.1599  0.0116  1.1793
 3882TIP3   OH233204   1.455   4.710   7.305 -0.1942 -0.1676  0.3801
 3882TIP3    H133205   1.489   4.680   7.221 -0.5394  0.2127  0.0993
 3882TIP3    H233206   1.467   4.805   7.302 -0.2036 -0.1558  0.7613
 3883TIP3   OH233207   5.885   2.526   1.389 -0.0321  0.0492 -0.4359
 3883TIP3    H133208   5.916   2.545   1.478 -0.5531 -0.8802 -0.0441
 3883TIP3    H233209   5.876   2.431   1.387 -2.0413  0.2004 -0.8017
 3884TIP3   OH233210   4.393   3.660   0.922 -0.2121  0.2162 -0.0675
 3884TIP3    H133211   4.409   3.623   0.836  0.1132 -1.0795  0.5216
 3884TIP3    H233212   4.475   3.649   0.969 -0.5794  0.3117  0.6158
 3885TIP3   OH233213   3.811   6.372   0.483 -0.2558  0.1634  0.2354
 3885TIP3    H133214   3.816   6.276   0.486  0.9560  0.1962  0.0849
 3885TIP3    H233215   3.807   6.399   0.575  0.8986 -0.0044  0.3574
 3886TIP3   OH233216   0.049   1.480   0.294 -0.2843 -0.0898  0.0305
 3886TIP3    H133217   0.004   1.515   0.217  1.7403 -0.0442 -1.2042
 3886TIP3    H233218   0.101   1.554   0.326  1.7787 -1.1019 -0.8471
 3887TIP3   OH233219   2.130   6.621   7.163  0.5342  0.6853 -0.0690
 3887TIP3    H133220   2.128   6.716   7.161 -0.7796  0.6703 -0.8990
 3887TIP3    H233221   2.090   6.594   7.080 -1.7064 -0.5535  1.2880
 3888TIP3   OH233222   6.453   1.063   6.310  0.2960  0.0374  0.0890
 3888TIP3    H133223   6.530   1.017   6.279 -0.5769 -0.8159 -0.8917
 3888TIP3    H233224   6.411   1.002   6.371  0.0858  0.2567  0.1676
 3889TIP3   OH233225   4.424   1.255   6.508  0.0117 -0.4419 -0.2006
 3889TIP3    H133226   4.492   1.321   6.517 -0.1301 -0.2437 -0.5661
 3889TIP3    H233227   4.403   1.229   6.598  1.9156 -1.8930 -0.1061
 3890TIP3   OH233228   2.844   6.921   7.948  0.0671  0.5275  0.5894
 3890TIP3    H133229   2.771   6.941   7.890 -0.9125 -1.2490  1.1399
 3890TIP3    H233230   2.821   6.836   7.987  2.6569 -0.3603  0.3842
 3891TIP3   OH233231   1.094   3.014   1.836 -0.4232 -0.0776 -0.5665
 3891TIP3    H133232   1.083   3.027   1.931  1.1873 -1.4151 -0.1575
 3891TIP3    H233233   1.113   3.101   1.802 -1.1511  0.4424  0.3049
 3892TIP3   OH233234   6.356   4.009   7.899 -0.1172 -0.2021  0.0507
 3892TIP3    H133235   6.276   4.013   7.951 -0.7180 -1.0566 -0.7558
 3892TIP3    H233236   6.413   3.949   7.947 -0.3825 -0.4171  0.1014
 3893TIP3   OH233237   6.493   1.336   6.140 -0.0044  0.5118 -0.3580
 3893TIP3    H133238   6.518   1.411   6.194  0.4338  0.1063  0.0141
 3893TIP3    H233239   6.492   1.262   6.201 -2.3380  0.5130 -0.2976
 3894TIP3   OH233240   4.491   6.333   0.333  0.3284 -0.3857 -0.0404
 3894TIP3    H133241   4.473   6.426   0.344  1.4018 -0.1297 -0.3819
 3894TIP3    H233242   4.554   6.329   0.261 -0.3233 -1.4394 -0.5757
 3895TIP3   OH233243   2.590   3.269   8.014 -0.2197 -0.0320  0.4306
 3895TIP3    H133244   2.664   3.223   7.974 -0.7178 -0.1193 -0.4186
 3895TIP3    H233245   2.578   3.225   8.099 -0.1363 -0.9023  0.0044
 3896TIP3   OH233246   6.347   4.084   0.530  0.4438  0.4763 -0.2802
 3896TIP3    H133247   6.417   4.070   0.466  0.0726  2.4080 -1.2021
 3896TIP3    H233248   6.280   4.019   0.508  0.8413  0.3283 -1.0796
 3897TIP3   OH233249   3.502   1.355   7.430 -0.3780 -0.2955 -0.1115
 3897TIP3    H133250   3.558   1.430   7.414  1.0614 -1.4071 -0.5012
 3897TIP3    H233251   3.545   1.283   7.385 -1.5485 -1.4275  0.5093
 3898TIP3   OH233252   3.520   5.486   0.414 -0.0580 -0.0001  0.1730
 3898TIP3    H133253   3.537   5.410   0.471  1.2309 -0.3790 -0.6569
 3898TIP3    H233254   3.599   5.539   0.422 -1.2665  1.7237  1.3718
 3899TIP3   OH233255   2.939   6.031   7.700  0.2144 -0.1333 -0.6607
 3899TIP3    H133256   3.007   6.076   7.650  0.1139  0.9435  0.1443
 3899TIP3    H233257   2.868   6.095   7.708  0.6626  0.1757  1.7808
 3900TIP3   OH233258   0.054   1.411   6.406 -0.3422  0.5164 -0.1769
 3900TIP3    H133259   0.060   1.381   6.315  0.8989  2.1911 -0.6961
 3900TIP3    H233260   0.130   1.372   6.449  0.7218  2.0215 -0.6146
 3901TIP3   OH233261   1.089   5.502   6.942  0.2529  0.4220 -0.5227
 3901TIP3    H133262   1.014   5.558   6.957  0.0206  0.0790 -0.3820
 3901TIP3    H233263   1.118   5.523   6.853 -0.1512  0.3894 -0.6628
 3902TIP3   OH233264   0.627   5.846   6.866 -0.2236  0.0492 -0.0675
 3902TIP3    H133265   0.541   5.884   6.886 -0.4496  1.1891 -2.7303
 3902TIP3    H233266   0.613   5.800   6.783  1.3873 -1.1584  0.3028
 3903TIP3   OH233267   0.859   5.468   0.592 -0.2625 -0.1980  0.1120
 3903TIP3    H133268   0.838   5.375   0.599 -1.4625 -0.0327 -0.8893
 3903TIP3    H233269   0.822   5.507   0.671 -1.6693 -0.2831 -0.4739
 3904TIP3   OH233270   4.797   0.305   7.536  1.4417 -0.0089  0.2009
 3904TIP3    H133271   4.879   0.265   7.565 -0.6766 -3.3345  2.1568
 3904TIP3    H233272   4.784   0.273   7.447  2.3559  0.8012 -0.2426
 3905TIP3   OH233273   0.265   4.298   7.186  0.4627  0.3061 -0.2161
 3905TIP3    H133274   0.302   4.344   7.111  1.2867  3.3685  1.8638
 3905TIP3    H233275   0.338   4.289   7.247 -0.8125  0.7645  1.4523
 3906TIP3   OH233276   7.128   6.427   0.704 -0.1834 -0.5087  0.0861
 3906TIP3    H133277   7.037   6.452   0.689  0.1454  0.7240 -0.0144
 3906TIP3    H233278   7.164   6.414   0.616  0.0736  0.3470  0.0531
 3907TIP3   OH233279   5.856   2.631   6.058  0.3463 -0.0893 -0.1364
 3907TIP3    H133280   5.924   2.626   5.992  0.0853 -2.0396 -0.3266
 3907TIP3    H233281   5.869   2.553   6.112 -1.1331  0.0012  0.4095
 3908TIP3   OH233282   5.805   5.974   1.170 -0.1783  0.5337 -0.2365
 3908TIP3    H133283   5.823   5.961   1.077 -1.1312 -0.3438 -0.3233
 3908TIP3    H233284   5.712   5.992   1.174  0.0402  1.5753  0.4767
 3909TIP3   OH233285   4.880   4.051   0.512  1.0133 -0.1483 -0.3889
 3909TIP3    H133286   4.861   4.072   0.420 -2.4541  1.4098  0.5057
 3909TIP3    H233287   4.882   4.136   0.556 -1.0434 -0.9758  1.4858
 3910TIP3   OH233288   6.332   5.359   0.464  0.2781 -0.0522  0.3679
 3910TIP3    H133289   6.254   5.341   0.516  1.3090 -2.0167  1.3305
 3910TIP3    H233290   6.317   5.313   0.381  0.3673 -0.3797  0.5306
 3911TIP3   OH233291   0.778   5.936   7.079  0.1699 -0.2553 -0.5862
 3911TIP3    H133292   0.741   6.024   7.079 -0.2341 -0.3983  1.0037
 3911TIP3    H233293   0.746   5.897   6.997 -0.7849  0.6117 -0.6525
 3912TIP3   OH233294   0.952   4.925   1.238  0.1274 -0.0965  0.2067
 3912TIP3    H133295   0.884   4.863   1.211  1.3406 -0.8714 -1.2113
 3912TIP3    H233296   0.995   4.950   1.156  1.4883  0.4432  1.0636
 3913TIP3   OH233297   1.579   6.101   1.720 -0.6087  0.1831 -0.2187
 3913TIP3    H133298   1.604   6.168   1.783  0.2769  0.0063 -0.3739
 3913TIP3    H233299   1.516   6.145   1.663  0.2192  0.9990 -0.5262
 3914TIP3   OH233300   5.863   5.281   7.020  0.1943  0.4668 -0.1698
 3914TIP3    H133301   5.829   5.199   7.055  0.0561  0.0143 -1.3240
 3914TIP3    H233302   5.908   5.257   6.940  0.0676  1.5288 -0.5855
 3915TIP3   OH233303   5.664   4.582   0.278  0.2587  0.0485  0.0775
 3915TIP3    H133304   5.668   4.496   0.234 -0.5728  0.2209 -0.3603
 3915TIP3    H233305   5.623   4.639   0.213 -0.2341  0.5059  0.7885
 3916TIP3   OH233306   6.642   1.131   0.024  0.1365 -0.1806  0.2367
 3916TIP3    H133307   6.680   1.192   0.088  1.7215  0.7464 -1.4910
 3916TIP3    H233308   6.695   1.052   0.033  0.5682  0.0630 -0.1408
 3917TIP3   OH233309   5.780   2.034   7.010 -0.0091  0.5072 -0.6859
 3917TIP3    H133310   5.741   2.019   6.923  0.7178  1.5973 -1.2225
 3917TIP3    H233311   5.803   1.946   7.041 -0.7892  0.0548 -1.3469
 3918TIP3   OH233312   4.149   5.565   0.050  0.0475 -0.9871 -0.0156
 3918TIP3    H133313   4.054   5.561   0.039 -0.1763  1.0239  0.7045
 3918TIP3    H233314   4.165   5.533   0.138 -0.1628  0.0690  0.4273
 3919TIP3   OH233315   5.781   3.190   7.106 -0.2664  0.0659 -0.0515
 3919TIP3    H133316   5.775   3.259   7.040 -2.1795 -1.7222 -1.9257
 3919TIP3    H233317   5.807   3.112   7.056  0.0305 -0.9785  1.6557
 3920TIP3   OH233318   6.153   2.972   5.973  0.1416 -0.7290 -0.2099
 3920TIP3    H133319   6.154   2.877   5.983  0.3077 -0.8559 -1.2329
 3920TIP3    H233320   6.176   2.986   5.881 -0.0632  0.2947 -0.1184
 3921TIP3   OH233321   6.808   1.841   6.609 -0.1409  0.3984  0.2678
 3921TIP3    H133322   6.812   1.937   6.606 -0.5606  0.3938 -0.9305
 3921TIP3    H233323   6.715   1.821   6.607 -0.0300 -0.0530 -0.7508
 3922TIP3   OH233324   2.940   0.759   6.453  0.5007  0.6560 -0.3103
 3922TIP3    H133325   3.002   0.829   6.471 -0.2962  1.0249  1.1772
 3922TIP3    H233326   2.855   0.802   6.445  0.3471  0.1172 -1.9505
 3923TIP3   OH233327   1.243   5.068   1.681  0.5343 -0.1595  0.1713
 3923TIP3    H133328   1.280   5.058   1.769  0.2452 -0.8230  0.2201
 3923TIP3    H233329   1.272   4.991   1.633  0.4592  0.0636 -0.2406
 3924TIP3   OH233330   0.419   0.493   0.359  0.2609 -0.0307  0.2968
 3924TIP3    H133331   0.415   0.576   0.405 -2.0121 -0.2947  0.6700
 3924TIP3    H233332   0.370   0.432   0.414 -1.8831 -0.5384 -2.0071
 3925TIP3   OH233333   3.094   0.488   6.809  0.2511  0.2793 -0.7509
 3925TIP3    H133334   3.124   0.399   6.827 -0.7902  0.3451  1.6021
 3925TIP3    H233335   3.174   0.539   6.796  0.9209 -0.6840 -0.4498
 3926TIP3   OH233336   6.535   5.875   1.423  0.4585 -0.0204 -0.3525
 3926TIP3    H133337   6.500   5.789   1.447 -0.1676 -0.1521 -1.6284
 3926TIP3    H233338   6.497   5.935   1.486  0.1526 -0.5628 -0.0098
 3927TIP3   OH233339   0.842   2.314   7.380  0.2831  0.3361  0.2578
 3927TIP3    H133340   0.813   2.394   7.422  1.3595  1.4424 -0.9726
 3927TIP3    H233341   0.778   2.247   7.405 -0.8096  1.6527  1.0603
 3928TIP3   OH233342   3.020   6.927   0.877  0.4491  0.0414  0.1085
 3928TIP3    H133343   3.007   6.834   0.896 -3.3231  0.2193 -0.8822
 3928TIP3    H233344   2.940   6.970   0.906 -0.1150  2.1927 -3.8779
 3929TIP3   OH233345   5.611   6.309   7.565  0.1444 -0.5832 -0.3338
 3929TIP3    H133346   5.617   6.355   7.648  0.3651 -0.1122 -0.6097
 3929TIP3    H233347   5.633   6.218   7.587 -1.3464 -0.8064  0.4084
 3930TIP3   OH233348   0.562   4.630   6.964 -0.1679 -0.2394  0.6977
 3930TIP3    H133349   0.487   4.632   7.024  0.9556 -0.3416  2.1450
 3930TIP3    H233350   0.633   4.592   7.015  0.5594 -1.3975 -1.0559
 3931TIP3   OH233351   2.809   6.278   7.872 -0.6179  0.6698 -0.4761
 3931TIP3    H133352   2.745   6.347   7.855 -1.4325  0.1833  0.5046
 3931TIP3    H233353   2.786   6.245   7.959 -0.8274 -1.4808 -1.3115
 3932TIP3   OH233354   4.874   6.988   0.521  0.0896 -1.0301  0.7484
 3932TIP3    H133355   4.882   7.062   0.461  1.0679 -1.8501 -0.1635
 3932TIP3    H233356   4.794   7.006   0.571  0.0273  0.3707  0.1914
 3933TIP3   OH233357   2.594   4.200   7.283 -0.5032  0.8154  0.4999
 3933TIP3    H133358   2.594   4.167   7.193 -1.2011 -0.9752  1.0972
 3933TIP3    H233359   2.685   4.225   7.300  0.0454 -0.6221 -0.1198
 3934TIP3   OH233360   5.593   5.768   1.031 -0.8541  0.1994  0.3778
 3934TIP3    H133361   5.513   5.819   1.020  0.1641  2.1048  1.1169
 3934TIP3    H233362   5.574   5.708   1.103 -1.0161  2.1477  2.0585
 3935TIP3   OH233363   0.403   0.776   7.095  0.2888  0.6879  0.4943
 3935TIP3    H133364   0.328   0.829   7.071  0.8382  0.9841 -0.6734
 3935TIP3    H233365   0.469   0.839   7.124  0.1235  0.4383  1.4331
 3936TIP3   OH233366   0.861   2.908   6.083 -0.2687  0.1227 -0.2477
 3936TIP3    H133367   0.947   2.927   6.120 -0.7861  1.5205  0.2736
 3936TIP3    H233368   0.812   2.867   6.155 -0.6751  1.1673  0.0912
 3937TIP3   OH233369   6.361   3.056   6.860 -0.6225 -0.2207 -0.3416
 3937TIP3    H133370   6.325   3.138   6.894  1.0867  2.0650 -3.4835
 3937TIP3    H233371   6.350   2.993   6.932 -1.1452  2.9773  2.6592
 3938TIP3   OH233372   0.742   3.658   7.653 -0.0978 -0.4694 -0.3355
 3938TIP3    H133373   0.661   3.691   7.692  0.3803  1.3929 -0.8193
 3938TIP3    H233374   0.756   3.713   7.576  1.0728 -1.4660 -0.8691
 3939TIP3   OH233375   6.513   1.672   0.393  0.0109 -0.1227  0.2396
 3939TIP3    H133376   6.452   1.598   0.394  0.1070 -0.2399 -0.9308
 3939TIP3    H233377   6.556   1.669   0.478 -0.1486 -1.2850  0.2955
 3940TIP3   OH233378   6.871   5.498   7.379  0.2616 -0.0182  0.5064
 3940TIP3    H133379   6.864   5.499   7.283 -0.8398  1.1571  0.5761
 3940TIP3    H233380   6.796   5.550   7.409  0.7496 -0.1412  2.0007
 3941TIP3   OH233381   2.185   5.503   6.338  0.4174 -0.2454  0.4502
 3941TIP3    H133382   2.089   5.509   6.341  0.5319  1.2998  1.4648
 3941TIP3    H233383   2.210   5.566   6.270  0.6806 -1.4466 -0.6055
 3942TIP3   OH233384   5.405   5.273   7.686  0.5800  0.1462 -0.0890
 3942TIP3    H133385   5.498   5.284   7.707  0.5265  0.7256 -0.1353
 3942TIP3    H233386   5.360   5.309   7.762  0.3893 -0.8400  0.2736
 3943TIP3   OH233387   0.364   6.843   7.153  0.1256  0.3015 -0.4169
 3943TIP3    H133388   0.398   6.811   7.236  0.1170 -0.6537 -0.7652
 3943TIP3    H233389   0.292   6.902   7.176 -1.0617 -1.3345  0.2334
 3944TIP3   OH233390   4.249   1.903   1.530  0.3959  0.6875 -0.2918
 3944TIP3    H133391   4.285   1.824   1.569 -1.5267  0.5133  1.3021
 3944TIP3    H233392   4.210   1.951   1.603 -0.5966  1.9211 -1.5572
 3945TIP3   OH233393   2.663   3.592   7.231  0.5519  0.0987 -0.3020
 3945TIP3    H133394   2.674   3.566   7.139  2.3341 -0.1960 -0.0527
 3945TIP3    H233395   2.582   3.550   7.258  0.1360 -0.0335 -1.6677
 3946TIP3   OH233396   5.950   6.981   1.173  0.6305  0.2201 -0.5996
 3946TIP3    H133397   6.014   7.040   1.211 -1.3951  1.3830  1.1801
 3946TIP3    H233398   5.932   7.018   1.087 -0.3562  2.0668  0.3540
 3947TIP3   OH233399   3.308   2.841   0.901  0.2037 -0.0105  0.7980
 3947TIP3    H133400   3.221   2.827   0.939 -0.1110 -0.8926 -0.1820
 3947TIP3    H233401   3.299   2.922   0.851 -0.0992 -0.1516  0.6141
 3948TIP3   OH233402   5.004   6.728   0.913 -0.3060  0.3219 -0.2281
 3948TIP3    H133403   4.985   6.634   0.915 -1.8268  0.6019  0.9116
 3948TIP3    H233404   5.064   6.741   0.986  0.0430  0.2208 -0.4936
 3949TIP3   OH233405   5.320   5.686   0.768  0.9836  0.1206 -0.1025
 3949TIP3    H133406   5.323   5.683   0.672  1.1394  0.8904 -0.1315
 3949TIP3    H233407   5.376   5.761   0.791 -0.3738  0.9798  0.4991
 3950TIP3   OH233408   5.217   7.048   6.643  0.1466 -0.2438  0.0423
 3950TIP3    H133409   5.247   7.120   6.588  2.3131 -1.3338 -0.3078
 3950TIP3    H233410   5.284   7.039   6.711  1.5011 -3.6301 -1.5214
 3951TIP3   OH233411   2.725   6.321   7.225  0.5630 -0.0926  0.5274
 3951TIP3    H133412   2.703   6.398   7.278  0.0188  0.4436 -0.4413
 3951TIP3    H233413   2.806   6.288   7.263 -0.1755 -0.1787  2.1588
 3952TIP3   OH233414   3.146   5.957   6.370  0.7119 -0.1325  0.4379
 3952TIP3    H133415   3.095   6.005   6.305  0.2830 -1.5402 -0.2835
 3952TIP3    H233416   3.214   6.019   6.396 -0.8975  1.5231  0.8987
 3953TIP3   OH233417   2.962   4.076   6.759 -0.1897 -0.3945  1.1143
 3953TIP3    H133418   2.978   3.987   6.790  2.0420  0.2918  2.1820
 3953TIP3    H233419   2.925   4.122   6.835 -0.8992 -0.2740  0.7084
 3954TIP3   OH233420   1.528   5.016   7.867 -0.3101 -0.4462  0.7759
 3954TIP3    H133421   1.534   4.975   7.781  0.1444 -1.0364  1.0821
 3954TIP3    H233422   1.599   4.976   7.918 -0.1801  0.3459  1.2377
 3955TIP3   OH233423   1.043   1.996   7.038 -0.0365  0.0982  0.2700
 3955TIP3    H133424   0.988   2.065   7.076  0.3064 -0.4819  1.9228
 3955TIP3    H233425   0.982   1.936   6.996 -0.4945  0.4726  0.3892
 3956TIP3   OH233426   0.548   5.222   6.794  0.4453 -0.1438 -0.2668
 3956TIP3    H133427   0.503   5.141   6.817  3.5392 -2.0607 -0.4123
 3956TIP3    H233428   0.577   5.259   6.877 -1.1898  1.0527 -0.1772
 3957TIP3   OH233429   3.085   0.694   5.660  0.0135  0.6652 -0.0597
 3957TIP3    H133430   3.084   0.706   5.755 -2.3337  0.5593 -0.0022
 3957TIP3    H233431   3.178   0.686   5.637  0.6040 -0.2397  2.3384
 3958TIP3   OH233432   2.576   1.775   7.432  0.1898  0.0197  0.2210
 3958TIP3    H133433   2.502   1.834   7.447 -0.5927 -0.2311 -2.2284
 3958TIP3    H233434   2.549   1.692   7.471  0.3181  0.5926  1.6061
 3959TIP3   OH233435   2.456   3.139   6.219 -0.5736  0.1921  0.3557
 3959TIP3    H133436   2.529   3.082   6.193 -0.7595 -0.0035  0.2613
 3959TIP3    H233437   2.397   3.081   6.268 -1.0212  0.1823 -0.1976
 3960TIP3   OH233438   6.411   4.248   6.017  0.1244 -0.1901 -0.1357
 3960TIP3    H133439   6.453   4.261   5.932 -0.2913 -3.0700 -0.9053
 3960TIP3    H233440   6.317   4.245   5.996 -0.2616  2.0212  0.9434
 3961TIP3   OH233441   3.107   2.076   6.480 -0.0166  0.0018 -0.3704
 3961TIP3    H133442   3.083   2.167   6.497  3.0896  1.1844 -1.4436
 3961TIP3    H233443   3.185   2.062   6.534  0.8300 -1.2473 -1.8363
 3962TIP3   OH233444   7.109   4.022   0.535  0.1791 -0.1150  0.3125
 3962TIP3    H133445   7.126   4.101   0.482  0.8388 -0.3804  0.1204
 3962TIP3    H233446   7.026   4.041   0.579 -0.3534  0.1429 -0.7607
 3963TIP3   OH233447   3.304   5.008   7.791 -0.1612  0.2875  0.2939
 3963TIP3    H133448   3.234   4.959   7.835  0.5602 -1.1039 -0.0459
 3963TIP3    H233449   3.313   5.088   7.842 -4.2171  2.1605 -1.4801
 3964TIP3   OH233450   7.030   5.609   1.075 -0.0383  0.2404 -0.7518
 3964TIP3    H133451   6.937   5.616   1.054 -0.5344  0.0737  1.1789
 3964TIP3    H233452   7.064   5.547   1.011 -1.2718  0.2249 -1.4341
 3965TIP3   OH233453   5.212   0.649   5.948  0.1445 -0.5953 -0.0969
 3965TIP3    H133454   5.167   0.700   5.881 -1.0873 -0.9974  0.3852
 3965TIP3    H233455   5.232   0.566   5.905 -2.6495 -1.7441  0.5642
 3966TIP3   OH233456   4.829   0.876   0.610  0.1426 -0.1955 -0.1014
 3966TIP3    H133457   4.858   0.967   0.616 -0.6144  0.1732 -1.4384
 3966TIP3    H233458   4.750   0.880   0.555  0.9784 -1.8254 -1.5138
 3967TIP3   OH233459   1.226   1.033   0.337 -0.1004  0.3051  0.2162
 3967TIP3    H133460   1.298   1.050   0.277  0.6340  0.0800  1.0011
 3967TIP3    H233461   1.151   1.078   0.299  0.5406  0.8343 -0.4412
 3968TIP3   OH233462   6.711   2.396   5.571 -0.0083  0.0255  0.1151
 3968TIP3    H133463   6.636   2.353   5.531  0.8336 -1.1449 -0.2704
 3968TIP3    H233464   6.694   2.490   5.559 -1.2110 -0.2259 -0.2942
 3969TIP3   OH233465   6.447   3.385   7.545 -0.0998  0.5351  1.0043
 3969TIP3    H133466   6.504   3.405   7.619  0.6800 -2.6481  1.3992
 3969TIP3    H233467   6.501   3.400   7.468 -0.2261  1.7899  1.1381
 3970TIP3   OH233468   0.052   6.222   0.531 -0.0656  0.4651 -0.4740
 3970TIP3    H133469   0.128   6.206   0.587  0.3094 -1.1137 -1.3886
 3970TIP3    H233470  -0.019   6.173   0.572  0.5199 -1.8041 -2.0043
 3971TIP3   OH233471   3.672   0.088   6.432  0.2707  1.0219 -0.1348
 3971TIP3    H133472   3.739   0.156   6.427  1.0651  0.8020  3.9417
 3971TIP3    H233473   3.653   0.080   6.525  0.0082 -4.1184 -0.3418
 3972TIP3   OH233474   3.440   3.522   1.633 -0.6284 -0.7733  0.4841
 3972TIP3    H133475   3.496   3.492   1.705 -0.4621  0.0003  0.6902
 3972TIP3    H233476   3.435   3.617   1.645  0.9257 -0.3462 -1.5615
 3973TIP3   OH233477   6.716   6.842   6.378  0.1171  0.5531  0.0881
 3973TIP3    H133478   6.684   6.792   6.303  1.5858 -1.3101  0.6014
 3973TIP3    H233479   6.639   6.856   6.433 -0.5470 -0.1438 -0.6366
 3974TIP3   OH233480   7.118   3.046   1.452  0.3866 -0.2388  0.0633
 3974TIP3    H133481   7.157   2.977   1.397  0.0257  0.2168 -0.7716
 3974TIP3    H233482   7.085   2.999   1.529 -2.1195 -1.4330 -1.5986
 3975TIP3   OH233483   4.453   1.020   0.608  0.6351  0.1943  0.3276
 3975TIP3    H133484   4.487   1.051   0.692 -0.7853 -1.3060  1.5325
 3975TIP3    H233485   4.359   1.007   0.624  0.0241  1.2902 -1.9546
 3976TIP3   OH233486   4.955   2.835   7.127  0.0160  0.1197 -0.4052
 3976TIP3    H133487   4.972   2.911   7.182  1.4895  0.1262 -0.8165
 3976TIP3    H233488   4.897   2.780   7.179 -0.5840  1.2333  0.1422
 3977TIP3   OH233489   3.446   4.704   0.907  0.4178 -0.2012  0.8801
 3977TIP3    H133490   3.508   4.637   0.878 -2.6246 -1.8317 -2.4854
 3977TIP3    H233491   3.437   4.763   0.832  0.6349  2.2870  2.6765
 3978TIP3   OH233492   0.070   2.903   6.455  0.2914 -0.1929  0.5017
 3978TIP3    H133493   0.117   2.903   6.371 -3.5531 -0.1885 -1.9204
 3978TIP3    H233494   0.062   2.811   6.477  0.4382 -0.2629  0.2716
 3979TIP3   OH233495   6.682   2.894   2.188 -0.3399  0.1248 -0.4387
 3979TIP3    H133496   6.606   2.871   2.242 -0.2523  1.8694  0.4850
 3979TIP3    H233497   6.669   2.843   2.107 -2.1855 -0.0599 -0.0786
 3980TIP3   OH233498   5.962   5.552   0.662  0.4254 -0.2118 -0.4150
 3980TIP3    H133499   5.914   5.546   0.745 -0.4180  2.2676 -0.6427
 3980TIP3    H233500   5.905   5.604   0.605  2.6630  1.4825 -1.2381
 3981TIP3   OH233501   2.687   0.324   1.045  0.6264  0.2145 -0.1867
 3981TIP3    H133502   2.661   0.267   0.973  1.9305 -0.3568 -0.2173
 3981TIP3    H233503   2.782   0.327   1.041  0.7360  0.0669  1.6078
 3982TIP3   OH233504   5.335   3.964   7.370 -0.8116  0.1109 -0.1653
 3982TIP3    H133505   5.303   4.009   7.448  1.5673 -0.1062  1.0152
 3982TIP3    H233506   5.373   4.033   7.316 -1.3003  0.0904 -0.5418
 3983TIP3   OH233507   0.647   2.723   2.077  0.1598 -0.5640  0.2322
 3983TIP3    H133508   0.574   2.668   2.048 -0.9082  1.2247 -0.6709
 3983TIP3    H233509   0.605   2.794   2.125  1.4964 -0.4817  1.3300
 3984TIP3   OH233510   3.819   0.384   0.892  0.2144  0.1307 -0.1379
 3984TIP3    H133511   3.894   0.442   0.907 -0.4320  0.8178  0.4723
 3984TIP3    H233512   3.762   0.398   0.967 -1.3728  0.9425 -1.4372
 3985TIP3   OH233513   4.270   7.060   1.299 -0.0815  0.6974 -0.0184
 3985TIP3    H133514   4.273   7.038   1.392  0.3411  0.9022  0.0219
 3985TIP3    H233515   4.232   7.148   1.296  0.9242  1.1499  0.0556
 3986TIP3   OH233516   1.555   1.937   7.297 -0.5573  0.3423 -0.0562
 3986TIP3    H133517   1.628   1.938   7.359  0.1788  0.3180 -0.8950
 3986TIP3    H233518   1.498   2.008   7.326 -0.9928 -0.5884  1.5114
 3987TIP3   OH233519   6.582   6.174   1.572 -0.2108  0.3512 -0.7005
 3987TIP3    H133520   6.526   6.121   1.628  1.0571 -0.6593 -0.3234
 3987TIP3    H233521   6.627   6.233   1.633  0.6694 -0.2911 -0.7007
 3988TIP3   OH233522   6.417   6.385   7.625 -0.1120 -0.3063 -0.3008
 3988TIP3    H133523   6.414   6.479   7.640 -2.4193 -0.0351 -2.0025
 3988TIP3    H233524   6.430   6.347   7.712 -0.3944  1.5111  0.5766
 3989TIP3   OH233525   0.199   1.000   0.448  0.2004 -0.2429  0.2978
 3989TIP3    H133526   0.140   0.964   0.382  2.1714 -1.1305 -1.1011
 3989TIP3    H233527   0.189   1.095   0.439 -0.8004 -0.3702 -0.0872
 3990TIP3   OH233528   2.782   1.913   2.351 -0.4909 -0.2400  0.4954
 3990TIP3    H133529   2.778   2.007   2.367 -3.0673  0.3191 -2.5938
 3990TIP3    H233530   2.855   1.903   2.290 -0.6883 -0.1316  0.2401
 3991TIP3   OH233531   1.949   0.464   1.371 -0.1140 -0.5613 -0.2133
 3991TIP3    H133532   1.926   0.409   1.446  0.7349  0.7020  1.0136
 3991TIP3    H233533   1.999   0.537   1.409 -2.3470  1.8248 -1.5823
 3992TIP3   OH233534   5.730   1.693   0.377  0.3693 -0.6246 -0.1024
 3992TIP3    H133535   5.664   1.626   0.360 -0.1815 -0.2450  0.4958
 3992TIP3    H233536   5.702   1.734   0.459  0.2464  0.8563 -0.8443
 3993TIP3   OH233537   2.677   2.382   0.328 -0.3599 -0.1854 -0.2235
 3993TIP3    H133538   2.586   2.352   0.322 -0.6156  0.6349 -0.5724
 3993TIP3    H233539   2.678   2.438   0.406 -0.2144  0.0187 -0.3727
 3994TIP3   OH233540   1.037   5.839   6.814  0.4948  0.1320 -0.1552
 3994TIP3    H133541   0.999   5.751   6.819 -0.8451  0.7164  0.8343
 3994TIP3    H233542   1.081   5.850   6.898  0.3922  0.5155 -0.1521
 3995TIP3   OH233543   3.797   3.954   7.015 -0.0985  0.0553 -0.2533
 3995TIP3    H133544   3.858   3.977   7.085  0.3740 -0.4480 -0.4882
 3995TIP3    H233545   3.788   4.034   6.964  1.3720 -0.2005 -0.9535
 3996TIP3   OH233546   3.967   5.163   0.614 -0.5270  0.0053 -0.0995
 3996TIP3    H133547   3.980   5.151   0.520  1.6468 -1.5288  0.3165
 3996TIP3    H233548   3.986   5.077   0.652  1.7365  1.2949  1.9790
 3997TIP3   OH233549   2.032   1.465   6.488 -0.5079 -0.3886 -0.4095
 3997TIP3    H133550   2.039   1.377   6.452 -1.0829  0.6135 -3.2195
 3997TIP3    H233551   2.117   1.483   6.527  0.1984 -1.5395 -1.3816
 3998TIP3   OH233552   0.754   0.086   1.186  0.3904  0.0430 -0.3371
 3998TIP3    H133553   0.677   0.070   1.132 -1.3771  0.2422  1.9331
 3998TIP3    H233554   0.812   0.012   1.169 -0.4897 -0.3341 -1.8021
 3999TIP3   OH233555   5.255   5.627   7.374  0.2531 -0.6579 -0.0288
 3999TIP3    H133556   5.298   5.546   7.401 -2.4639 -2.8492 -1.8082
 3999TIP3    H233557   5.293   5.694   7.432  1.1283 -3.4582  2.9574
 4000TIP3   OH233558   3.139   2.048   0.151 -0.4558 -0.0734 -0.6908
 4000TIP3    H133559   3.073   1.979   0.156 -3.4862  2.6301 -0.2705
 4000TIP3    H233560   3.150   2.078   0.241  2.5313 -1.3094 -0.5153
 4001TIP3   OH233561   4.660   6.832   1.186  0.1974 -0.0401  0.1004
 4001TIP3    H133562   4.676   6.812   1.278 -0.4230  0.9363  0.4442
 4001TIP3    H233563   4.744   6.863   1.153  0.4122 -0.3483  0.3477
 4002TIP3   OH233564   7.128   2.910   7.240 -0.0566 -0.5754 -0.1447
 4002TIP3    H133565   7.154   3.001   7.256 -0.1072 -0.6258  0.2265
 4002TIP3    H233566   7.138   2.899   7.145 -0.5234 -0.0360 -0.2618
 4003TIP3   OH233567   3.544   2.431   0.293  0.4452  0.3088  0.0002
 4003TIP3    H133568   3.461   2.407   0.253  1.0658 -0.1053 -1.0798
 4003TIP3    H233569   3.527   2.515   0.336 -0.4671  0.3250 -0.3743
 4004TIP3   OH233570   6.239   3.705   0.867 -0.5414 -0.4036  0.6730
 4004TIP3    H133571   6.313   3.748   0.910 -1.4108  0.0591  1.7737
 4004TIP3    H233572   6.278   3.639   0.810  0.7711  0.9405 -0.0164
 4005TIP3   OH233573   2.444   3.852   2.146  0.0635  0.1006  0.1428
 4005TIP3    H133574   2.418   3.883   2.233 -1.3186 -0.5034 -0.0373
 4005TIP3    H233575   2.450   3.757   2.155  1.3708  0.1438 -0.0637
 4006TIP3   OH233576   4.572   1.484   6.504 -0.0835 -0.4347 -0.2571
 4006TIP3    H133577   4.503   1.475   6.437  0.0930 -1.4952 -0.3126
 4006TIP3    H233578   4.647   1.517   6.455 -0.2817 -0.1261 -0.3627
 4007TIP3   OH233579   2.255   6.439   1.541  0.0096 -0.1618 -0.1010
 4007TIP3    H133580   2.240   6.346   1.525 -0.8435 -0.3183  1.3981
 4007TIP3    H233581   2.184   6.465   1.600  1.4138  0.9324  1.1926
 4008TIP3   OH233582   0.160   2.282   6.403  0.3644 -0.2237 -0.4802
 4008TIP3    H133583   0.128   2.286   6.313  0.8565  0.7753 -0.6304
 4008TIP3    H233584   0.232   2.345   6.405 -0.7948  1.1106  1.0868
 4009TIP3   OH233585   2.766   4.187   0.151 -0.2572  0.1227 -0.2471
 4009TIP3    H133586   2.838   4.149   0.101 -0.2194  2.1212 -1.7884
 4009TIP3    H233587   2.793   4.177   0.242  2.1943  1.1923 -0.7936
 4010TIP3   OH233588   4.100   1.413   6.657  0.0842 -0.3438  0.7102
 4010TIP3    H133589   4.130   1.503   6.641 -0.9074  0.2742  2.1375
 4010TIP3    H233590   4.048   1.392   6.579 -0.6194  0.7676  0.8454
 4011TIP3   OH233591   1.655   4.249   7.958 -0.3028  0.0541  0.0101
 4011TIP3    H133592   1.633   4.198   7.880  0.7770 -1.2969  0.5391
 4011TIP3    H233593   1.743   4.283   7.940 -0.5429  0.7645  0.1460
 4012TIP3   OH233594   5.949   4.514   1.238  0.1919  0.1082 -0.0085
 4012TIP3    H133595   5.900   4.458   1.299  0.9922 -0.0895  0.4830
 4012TIP3    H233596   6.017   4.554   1.293 -1.8497  3.6358  0.2893
 4013TIP3   OH233597   0.944   2.806   6.453 -0.3485 -0.6236 -0.0216
 4013TIP3    H133598   0.986   2.839   6.374 -0.0535  1.9170  1.1003
 4013TIP3    H233599   0.874   2.869   6.470 -0.0690 -0.8025  2.0118
 4014TIP3   OH233600   2.003   1.014   6.975 -0.3704 -0.9849 -0.4055
 4014TIP3    H133601   1.931   1.072   6.952 -0.7855 -1.7130 -0.9730
 4014TIP3    H233602   2.062   1.068   7.028 -1.7228 -0.5917  0.7632
 4015TIP3   OH233603   6.228   3.220   7.499 -0.0792 -0.0987 -0.4517
 4015TIP3    H133604   6.254   3.139   7.542 -1.2657 -0.0858  0.3197
 4015TIP3    H233605   6.298   3.282   7.520  0.6618 -0.8048 -0.7638
 4016TIP3   OH233606   3.784   2.481   6.531  0.1843 -0.1643 -0.0346
 4016TIP3    H133607   3.855   2.458   6.471  2.8110  2.3816  1.8002
 4016TIP3    H233608   3.729   2.541   6.481  1.1853  0.3460 -0.5613
 4017TIP3   OH233609   7.032   2.544   6.396 -0.4787  0.0850  0.0831
 4017TIP3    H133610   7.046   2.499   6.313 -0.6048  1.0160 -0.4593
 4017TIP3    H233611   6.939   2.529   6.415 -0.2840 -0.7334  0.4362
 4018TIP3   OH233612   6.189   4.314   7.273 -0.7425 -0.0773  0.2265
 4018TIP3    H133613   6.094   4.320   7.265 -0.6538  0.2563 -0.6809
 4018TIP3    H233614   6.223   4.385   7.218  0.0123  0.5676  1.4745
 4019TIP3   OH233615   5.355   3.685   7.402 -0.1069 -0.2263  0.1903
 4019TIP3    H133616   5.420   3.632   7.356 -0.0824 -1.0393  1.1312
 4019TIP3    H233617   5.363   3.772   7.363  1.7251 -0.2389  0.4364
 4020TIP3   OH233618   6.172   0.027   0.678 -0.1685 -0.2322  1.0865
 4020TIP3    H133619   6.182   0.119   0.656  2.3036 -0.3747  1.3372
 4020TIP3    H233620   6.099  -0.003   0.624  0.0184  1.4880 -0.1918
 4021TIP3   OH233621   5.399   4.554   0.453  0.2827 -0.6949  0.0174
 4021TIP3    H133622   5.478   4.512   0.421 -0.5951 -1.6197 -1.0116
 4021TIP3    H233623   5.410   4.647   0.430  1.7606 -0.5045  1.3501
 4022TIP3   OH233624   5.066   3.866   6.622 -0.0453  0.1006  0.5049
 4022TIP3    H133625   5.018   3.795   6.579 -2.6087  1.6570  0.5822
 4022TIP3    H233626   5.002   3.905   6.682  2.2118  0.5704  2.7825
 4023TIP3   OH233627   1.248   4.507   8.012  0.2081 -0.4092  0.2103
 4023TIP3    H133628   1.294   4.566   8.072 -0.1502  2.6319 -2.2377
 4023TIP3    H233629   1.164   4.550   7.997 -0.5006 -2.1259 -0.9477
 4024TIP3   OH233630   0.178   6.720   0.987  0.0970  0.5166  0.1279
 4024TIP3    H133631   0.132   6.738   0.905  1.8412  0.0643 -1.0191
 4024TIP3    H233632   0.112   6.682   1.045 -0.8512 -0.6919 -1.6552
 4025TIP3   OH233633   4.895   5.859   5.590  0.2664 -0.6328 -0.0740
 4025TIP3    H133634   4.927   5.770   5.574  0.4353 -1.0687  2.3181
 4025TIP3    H233635   4.833   5.849   5.663  0.6856  1.2691  0.5890
 4026TIP3   OH233636   4.365   1.691   0.843 -0.2066  0.2196 -0.1345
 4026TIP3    H133637   4.421   1.657   0.773 -0.6627  0.1449 -0.4711
 4026TIP3    H233638   4.289   1.633   0.842  0.6508 -1.0185  1.7499
 4027TIP3   OH233639   4.124   6.436   6.574  0.3903 -0.4974  0.0659
 4027TIP3    H133640   4.102   6.356   6.621 -1.1857  0.3209  0.8194
 4027TIP3    H233641   4.178   6.486   6.635  0.4671 -0.5162  0.0140
 4028TIP3   OH233642   3.501   3.436   0.434  0.2463 -0.1708  0.2482
 4028TIP3    H133643   3.448   3.481   0.500 -0.3190  0.7027 -0.7649
 4028TIP3    H233644   3.442   3.424   0.360  0.8313 -1.2504 -0.0642
 4029TIP3   OH233645   3.603   3.532   5.898 -0.0950  0.2086  0.3776
 4029TIP3    H133646   3.657   3.546   5.820  0.8767  1.7344  1.2695
 4029TIP3    H233647   3.538   3.467   5.871  1.3317 -0.6627 -1.1543
 4030TIP3   OH233648   5.881   2.873   0.471  0.1756  0.4048  0.7119
 4030TIP3    H133649   5.929   2.797   0.503 -1.8905 -1.0352  0.6133
 4030TIP3    H233650   5.875   2.930   0.548 -0.7191 -0.8858  1.6517
 4031TIP3   OH233651   2.188   2.342   1.387  0.3078 -0.6089 -0.0000
 4031TIP3    H133652   2.136   2.326   1.308  1.7114  0.7832 -1.2751
 4031TIP3    H233653   2.149   2.420   1.425  0.8939 -0.0638 -0.4895
 4032TIP3   OH233654   3.426   6.884   5.798 -0.0715  0.1518 -0.2851
 4032TIP3    H133655   3.338   6.920   5.807  0.0263  0.2819  0.1914
 4032TIP3    H233656   3.483   6.951   5.836  0.3088  0.4063 -1.2753
 4033TIP3   OH233657   2.949   4.238   6.307 -0.1200 -0.1657  0.4735
 4033TIP3    H133658   2.984   4.318   6.346 -0.9771 -0.4834  1.9838
 4033TIP3    H233659   2.945   4.176   6.380  0.5707 -1.6171 -0.6830
 4034TIP3   OH233660   5.465   4.715   1.130 -0.3940 -0.7035 -0.4680
 4034TIP3    H133661   5.383   4.666   1.122 -0.4065 -0.5862 -1.1191
 4034TIP3    H233662   5.467   4.773   1.053 -0.9143  1.1507  0.8526
 4035TIP3   OH233663   1.587   0.261   6.058 -0.5129 -0.2297  0.2946
 4035TIP3    H133664   1.512   0.208   6.084  0.4647 -1.0902  1.4599
 4035TIP3    H233665   1.627   0.213   5.986 -1.3868  0.5346 -0.7374
 4036TIP3   OH233666   5.757   0.309   0.105 -0.3810  0.4124  0.5111
 4036TIP3    H133667   5.767   0.342   0.195 -1.3149 -0.0701  0.8008
 4036TIP3    H233668   5.666   0.280   0.100 -0.3643  0.5414 -0.6354
 4037TIP3   OH233669   0.377   5.586   0.454  0.3062  0.3127 -0.0315
 4037TIP3    H133670   0.447   5.532   0.490 -0.0538 -1.2625 -1.5543
 4037TIP3    H233671   0.421   5.656   0.407  0.7864  1.0336  1.4158
 4038TIP3   OH233672   2.375   1.824   7.672  0.1246 -0.1674  0.5557
 4038TIP3    H133673   2.445   1.848   7.733 -1.1362  0.3954  1.8081
 4038TIP3    H233674   2.362   1.731   7.686  1.6739 -0.6389 -0.8253
 4039TIP3   OH233675   0.006   6.033   0.141  0.0388  0.2797  0.6318
 4039TIP3    H133676   0.041   5.953   0.179 -0.3473 -0.2949 -0.2049
 4039TIP3    H233677   0.042   6.035   0.052  0.3631  1.2427  0.7673
 4040TIP3   OH233678   6.957   2.335   0.569 -0.1485 -0.0044  0.1189
 4040TIP3    H133679   7.036   2.316   0.620 -0.1371 -1.6219 -0.4570
 4040TIP3    H233680   6.948   2.430   0.574  1.5661  0.1635  0.5819
 4041TIP3   OH233681   0.750   6.494   0.349 -0.0675  0.2399  0.3609
 4041TIP3    H133682   0.752   6.562   0.417  1.7220 -0.2756  0.8785
 4041TIP3    H233683   0.799   6.532   0.277  2.6933 -1.1564  1.3846
 4042TIP3   OH233684   4.997   5.215   1.201  0.5298 -0.3171  0.3690
 4042TIP3    H133685   4.968   5.304   1.179  2.0429  0.6363  1.9201
 4042TIP3    H233686   4.929   5.158   1.167 -1.0263  1.5083  0.2674
 4043TIP3   OH233687   6.998   4.744   6.749 -0.9828  0.3017  0.1717
 4043TIP3    H133688   6.950   4.826   6.733 -0.5887  0.5833  0.4260
 4043TIP3    H233689   6.944   4.677   6.707 -1.1952  0.7199 -0.2423
 4044TIP3   OH233690   4.125   0.282   7.908  0.0686 -0.4082  0.2708
 4044TIP3    H133691   4.124   0.300   8.002  0.8771 -0.8855  0.3769
 4044TIP3    H233692   4.182   0.206   7.898  2.3203  1.3165 -0.9024
 4045TIP3   OH233693   4.095   3.402   0.164 -0.4293 -0.8336  0.0950
 4045TIP3    H133694   4.059   3.471   0.109  0.9019 -1.4427 -1.6413
 4045TIP3    H233695   4.021   3.344   0.181 -1.3757  0.5405  0.8901
 4046TIP3   OH233696   5.550   3.380   0.688  0.0976 -0.4244  0.1665
 4046TIP3    H133697   5.517   3.397   0.776  0.7915  0.8578  0.2102
 4046TIP3    H233698   5.564   3.286   0.685  1.4330 -0.3346  1.9542
 4047TIP3   OH233699   3.948   2.263   7.424  0.1826 -0.8472  0.0831
 4047TIP3    H133700   3.926   2.236   7.514 -1.2656  0.1555  0.0667
 4047TIP3    H233701   3.872   2.236   7.372 -1.3789  3.0058  0.0547
 4048TIP3   OH233702   6.424   5.315   7.702  0.1998 -0.0759  0.4898
 4048TIP3    H133703   6.500   5.364   7.669 -0.0786  0.0358 -0.0001
 4048TIP3    H233704   6.430   5.230   7.658 -0.9235  0.5456 -0.9341
 4049TIP3   OH233705   2.927   4.016   6.483 -0.9333  0.3046 -0.0784
 4049TIP3    H133706   2.888   3.931   6.505 -0.3241  0.6873  2.8475
 4049TIP3    H233707   2.949   4.056   6.568  2.3480  1.7418 -1.4184
 4050TIP3   OH233708   3.581   5.288   5.810 -0.0331 -0.0508  0.1251
 4050TIP3    H133709   3.644   5.325   5.870  0.6475 -0.7290 -0.1595
 4050TIP3    H233710   3.585   5.344   5.733 -0.0239  0.1053  0.2404
 4051TIP3   OH233711   3.524   6.618   1.484  0.0646 -0.6075 -0.3124
 4051TIP3    H133712   3.572   6.690   1.444 -0.5010 -0.5781 -0.9491
 4051TIP3    H233713   3.580   6.589   1.556  1.2619 -0.8791 -1.3153
 4052TIP3   OH233714   1.534   6.528   5.979  0.1687 -0.1432  0.5048
 4052TIP3    H133715   1.483   6.541   5.900  1.2103 -0.4904 -0.2523
 4052TIP3    H233716   1.471   6.533   6.050 -0.9252 -0.7269 -0.4013
 4053TIP3   OH233717   1.611   3.429   1.767 -0.1348  0.2308 -0.0757
 4053TIP3    H133718   1.660   3.500   1.725  0.2981  0.1143  0.2154
 4053TIP3    H233719   1.663   3.351   1.749 -0.8038 -0.0684 -0.7021
 4054TIP3   OH233720   3.612   4.240   7.141  0.2321  0.1258  0.5508
 4054TIP3    H133721   3.704   4.219   7.152  0.0567 -1.5464 -0.7226
 4054TIP3    H233722   3.566   4.175   7.195 -0.2418  2.4567  3.2196
 4055TIP3   OH233723   2.740   6.114   1.079  0.7702 -0.3535 -0.3000
 4055TIP3    H133724   2.797   6.039   1.063  0.5939 -0.6137  0.2964
 4055TIP3    H233725   2.792   6.190   1.050  1.0181 -0.6811 -0.7291
 4056TIP3   OH233726   0.993   0.609   7.519 -0.2278 -0.8363 -0.3918
 4056TIP3    H133727   1.036   0.532   7.482 -0.2989 -0.8426 -0.4624
 4056TIP3    H233728   0.949   0.650   7.444 -0.4451 -0.8969 -0.2964
 4057TIP3   OH233729   0.249   1.126   7.881 -0.0441 -0.0260  0.5615
 4057TIP3    H133730   0.344   1.120   7.882  0.1636  1.1400 -2.3933
 4057TIP3    H233731   0.219   1.045   7.923  2.3005 -2.2792 -1.7784
 4058TIP3   OH233732   0.180   3.487   1.226 -0.3040 -0.3769 -0.2779
 4058TIP3    H133733   0.137   3.527   1.302 -0.2703  0.3526 -0.6340
 4058TIP3    H233734   0.266   3.528   1.224 -0.3901 -0.2196 -0.8444
 4059TIP3   OH233735   4.447   6.993   1.101 -0.4261  0.1545  0.7824
 4059TIP3    H133736   4.498   6.916   1.129  2.4723  1.2501 -1.0042
 4059TIP3    H233737   4.405   7.024   1.181  2.5007 -0.3643  2.6703
 4060TIP3   OH233738   3.050   6.144   6.194  0.5386 -0.0428 -0.2323
 4060TIP3    H133739   2.967   6.171   6.155  1.5146  3.9578 -0.0162
 4060TIP3    H233740   3.108   6.129   6.119 -0.1276 -2.2121 -0.3669
 4061TIP3   OH233741   1.659   1.426   7.628  0.9245 -0.2477 -0.3182
 4061TIP3    H133742   1.731   1.423   7.691 -0.4697  1.0688  1.4456
 4061TIP3    H233743   1.629   1.335   7.622  2.5104 -0.7707 -0.8849
 4062TIP3   OH233744   4.130   0.688   7.608  0.3846  0.6835  0.1598
 4062TIP3    H133745   4.171   0.686   7.695 -2.0654 -0.7009  1.3882
 4062TIP3    H233746   4.186   0.632   7.554  0.9878  0.0993  1.3437
 4063TIP3   OH233747   3.683   6.860   1.482  0.0522 -0.4356  0.7114
 4063TIP3    H133748   3.729   6.844   1.565 -0.2986 -2.1311  0.6189
 4063TIP3    H233749   3.714   6.946   1.454  1.2352 -0.4312  1.9136
 4064TIP3   OH233750   4.126   3.835   0.747  0.2202  0.5337 -0.2129
 4064TIP3    H133751   4.206   3.887   0.739  0.6359 -0.1422 -0.5901
 4064TIP3    H233752   4.085   3.867   0.827  1.4234  0.1611  0.5963
 4065TIP3   OH233753   4.045   6.557   7.959 -0.1229 -0.0194  0.1321
 4065TIP3    H133754   3.978   6.574   8.026 -1.4400 -0.9412 -0.9191
 4065TIP3    H233755   4.030   6.626   7.894  0.7829  0.5224  0.4800
 4066TIP3   OH233756   6.263   4.033   7.637  1.1760  0.1586  0.2358
 4066TIP3    H133757   6.298   4.011   7.723  0.4397 -2.2538 -0.0112
 4066TIP3    H233758   6.339   4.059   7.585  1.9315 -0.5357  0.9842
 4067TIP3   OH233759   1.476   2.308   0.024  1.0872 -0.1557  0.7276
 4067TIP3    H133760   1.504   2.239   0.085  2.7322  1.8921  2.4841
 4067TIP3    H233761   1.459   2.383   0.081 -2.5106  0.4537 -0.9139
 4068TIP3   OH233762   2.899   3.284   1.077  0.1964  0.2073  0.5288
 4068TIP3    H133763   2.804   3.285   1.091 -0.1896  2.6981 -1.5083
 4068TIP3    H233764   2.936   3.257   1.161 -2.2339  0.8220  1.8787
 4069TIP3   OH233765   3.122   4.874   6.933 -0.7838 -0.2230  0.1533
 4069TIP3    H133766   3.122   4.802   6.997 -0.3937  0.6885  1.2175
 4069TIP3    H233767   3.038   4.917   6.947 -0.4333  0.3570  0.5062
 4070TIP3   OH233768   5.959   3.690   5.985 -0.3011  0.1291  0.8186
 4070TIP3    H133769   5.872   3.656   6.005 -1.6852  2.7018 -0.3439
 4070TIP3    H233770   5.955   3.713   5.892  0.5907  2.9442  1.3958
 4071TIP3   OH233771   1.382   1.569   0.820 -0.0712 -0.0035 -0.0481
 4071TIP3    H133772   1.374   1.638   0.886 -2.6290  0.6433 -0.9074
 4071TIP3    H233773   1.419   1.613   0.743  2.7606 -0.7227  0.8046
 4072TIP3   OH233774   4.373   1.001   6.035  0.5663 -0.0176 -0.5939
 4072TIP3    H133775   4.437   1.058   6.078  0.5518 -1.5328  1.5801
 4072TIP3    H233776   4.425   0.936   5.988  0.6391 -0.3897 -0.0110
 4073TIP3   OH233777   7.030   3.537   7.404  0.0631  0.4989 -0.3754
 4073TIP3    H133778   7.018   3.594   7.480  1.0183  0.8344 -0.4622
 4073TIP3    H233779   6.997   3.452   7.432 -0.2855  0.8032  0.1599
 4074TIP3   OH233780   1.122   1.920   7.886  0.3146  0.9584  0.4119
 4074TIP3    H133781   1.040   1.896   7.843 -0.7266  0.0128  2.7530
 4074TIP3    H233782   1.189   1.908   7.819 -1.3373  0.8817 -1.3041
 4075TIP3   OH233783   3.022   0.367   0.040 -0.1980 -0.3195 -0.2439
 4075TIP3    H133784   2.974   0.393  -0.039 -0.7089 -1.8459 -0.4801
 4075TIP3    H233785   2.956   0.365   0.109  0.1114  0.3294  0.0813
 4076TIP3   OH233786   0.637   4.637   7.282 -0.4495  0.1532 -1.0176
 4076TIP3    H133787   0.704   4.584   7.238  0.2596  0.3778 -0.2362
 4076TIP3    H233788   0.652   4.621   7.375 -1.6083  0.0699 -0.8314
 4077TIP3   OH233789   4.307   5.148   0.476  0.3570 -0.6930  0.4133
 4077TIP3    H133790   4.303   5.121   0.567 -1.3284 -1.2627  0.1952
 4077TIP3    H233791   4.221   5.128   0.440  0.6455  0.4524 -1.0499
 4078TIP3   OH233792   5.689   6.046   7.592 -0.2692 -0.5133 -0.2303
 4078TIP3    H133793   5.662   5.965   7.548  1.3259 -1.9261  1.2531
 4078TIP3    H233794   5.687   6.025   7.685  4.6016 -0.5318  0.1616
 4079TIP3   OH233795   7.041   3.052   7.539  0.2560  0.3153 -0.2799
 4079TIP3    H133796   6.975   3.000   7.492  0.0628 -0.0566  0.3865
 4079TIP3    H233797   7.124   3.013   7.513  0.1609  0.2211 -0.4482
 4080TIP3   OH233798   2.737   3.841   6.930  0.1513 -0.0696 -0.5642
 4080TIP3    H133799   2.713   3.847   7.023 -1.3484 -0.5307 -0.8957
 4080TIP3    H233800   2.833   3.843   6.930  0.1875 -0.3834  1.0192
 4081TIP3   OH233801   6.255   5.394   6.672 -0.1488  0.1327  0.3460
 4081TIP3    H133802   6.309   5.440   6.608 -0.2969 -0.1406  0.0245
 4081TIP3    H233803   6.210   5.326   6.622  0.0636 -0.3628  0.8211
 4082TIP3   OH233804   6.124   0.763   7.061  0.4479 -0.3511 -0.0981
 4082TIP3    H133805   6.089   0.776   7.149 -4.2820  2.0061 -1.9383
 4082TIP3    H233806   6.084   0.682   7.031  0.5283 -0.1889 -0.6639
 4083TIP3   OH233807   3.414   0.732   7.504  0.5254 -0.3836  0.3098
 4083TIP3    H133808   3.367   0.668   7.450  1.0284  0.1750 -0.8285
 4083TIP3    H233809   3.506   0.708   7.495  0.8118  0.9955 -0.8607
 4084TIP3   OH233810   3.605   2.262   6.576  0.0864 -0.3510 -0.2869
 4084TIP3    H133811   3.543   2.268   6.503 -0.0919  0.0845 -0.1052
 4084TIP3    H233812   3.674   2.324   6.554  0.9822 -1.5681 -0.9764
 4085TIP3   OH233813   1.989   6.638   1.595 -0.3385  0.5400 -0.2882
 4085TIP3    H133814   2.048   6.592   1.655  0.0872 -0.4786 -1.4498
 4085TIP3    H233815   1.961   6.716   1.644 -1.3828 -1.1106  1.9218
 4086TIP3   OH233816   3.841   4.316   6.864 -0.2361 -0.3944 -0.2086
 4086TIP3    H133817   3.849   4.404   6.827 -0.5847 -0.6693 -0.9533
 4086TIP3    H233818   3.892   4.320   6.945 -2.1943  1.1947  1.0592
 4087TIP3   OH233819   0.487   5.743   1.967 -0.3402  0.7727  0.5597
 4087TIP3    H133820   0.503   5.765   2.059 -0.4061  2.1966  0.2450
 4087TIP3    H233821   0.516   5.820   1.918 -1.2892  0.4645 -0.5407
 4088TIP3   OH233822   4.903   5.691   1.631 -0.3959  0.3111  0.1962
 4088TIP3    H133823   4.842   5.627   1.594 -0.3602  0.7144 -0.5915
 4088TIP3    H233824   4.989   5.655   1.611 -0.3735 -0.0628  0.9576
 4089TIP3   OH233825   6.676   3.349   6.663 -0.6205 -0.4904 -0.1197
 4089TIP3    H133826   6.716   3.285   6.603  0.1067  0.2060 -0.3907
 4089TIP3    H233827   6.748   3.379   6.718 -0.8146  0.5731 -0.4277
 4090TIP3   OH233828   5.510   4.606   6.402  0.1346 -0.1996 -0.0552
 4090TIP3    H133829   5.539   4.620   6.312  1.2533  0.6692  0.4093
 4090TIP3    H233830   5.446   4.675   6.418 -0.7428 -0.9031 -0.4514
 4091TIP3   OH233831   2.786   5.228   0.286 -0.3890  0.2344  0.0125
 4091TIP3    H133832   2.871   5.186   0.297 -0.4883 -0.3513 -1.2366
 4091TIP3    H233833   2.804   5.308   0.238 -0.6989 -0.7561 -1.8350
 4092TIP3   OH233834   1.952   0.335   0.086 -0.5903  0.3686  0.4102
 4092TIP3    H133835   2.024   0.397   0.096 -0.3292  0.0382  0.6185
 4092TIP3    H233836   1.962   0.300  -0.003  0.3469 -0.6980  0.9074
 4093TIP3   OH233837   0.071   1.046   7.332 -0.6338  0.2730 -0.8706
 4093TIP3    H133838  -0.012   0.999   7.335 -0.2929 -0.6554 -3.6110
 4093TIP3    H233839   0.078   1.077   7.242  1.2867  1.7008 -0.2958
 4094TIP3   OH233840   3.491   3.522   0.052  0.3311 -0.1786 -0.0132
 4094TIP3    H133841   3.474   3.448   0.111  0.4223 -0.7555 -0.7012
 4094TIP3    H233842   3.565   3.568   0.092  1.1373 -1.2191 -0.2588
 4095TIP3   OH233843   0.052   4.238   6.307 -0.2953  0.2380 -0.2065
 4095TIP3    H133844   0.124   4.299   6.325 -1.4494  1.3195  1.0063
 4095TIP3    H233845  -0.025   4.281   6.345 -1.4134 -1.3265 -0.6239
 4096TIP3   OH233846   6.972   5.664   1.473  0.7869  0.1011  0.4516
 4096TIP3    H133847   7.044   5.604   1.488  2.1074  1.1291 -1.3817
 4096TIP3    H233848   6.934   5.637   1.389 -0.6903 -0.1267  1.1474
 4097TIP3   OH233849   1.943   1.067   6.182 -0.0471 -0.1314 -0.4625
 4097TIP3    H133850   1.935   0.972   6.180 -0.4021 -0.1053 -0.3079
 4097TIP3    H233851   1.995   1.089   6.104 -1.4111 -0.3076 -1.4587
 4098TIP3   OH233852   0.736   5.397   1.150  1.0313  0.0506  0.3931
 4098TIP3    H133853   0.784   5.360   1.076  1.1907 -1.9074  1.4140
 4098TIP3    H233854   0.793   5.383   1.226  0.5980  1.4417  1.0152
 4099TIP3   OH233855   6.645   3.444   0.094 -0.3172 -0.0080 -0.0919
 4099TIP3    H133856   6.633   3.353   0.123 -0.4148 -0.5906 -1.8330
 4099TIP3    H233857   6.565   3.488   0.123  0.8594  0.2588  3.1517
 4100TIP3   OH233858   6.152   0.069   1.150  0.1555 -0.6940  0.1612
 4100TIP3    H133859   6.059   0.086   1.140  0.4961  0.5889 -1.2940
 4100TIP3    H233860   6.180   0.127   1.222  0.2391  0.7835 -1.0064
 4101TIP3   OH233861   7.108   3.356   0.703  0.3806 -0.6262  0.2442
 4101TIP3    H133862   7.148   3.359   0.616 -3.1178 -1.0697 -1.5678
 4101TIP3    H233863   7.159   3.291   0.751  2.8315  0.1040 -1.1801
 4102TIP3   OH233864   4.130   4.923   0.387  0.2975 -0.0123 -0.5703
 4102TIP3    H133865   4.068   4.985   0.348 -0.0725  1.0047  1.5327
 4102TIP3    H233866   4.079   4.875   0.452  1.2727 -0.5173 -0.1528
 4103TIP3   OH233867   3.138   3.565   1.521  0.1990  0.1768  0.4099
 4103TIP3    H133868   3.069   3.500   1.510 -0.7027  1.1437  0.2810
 4103TIP3    H233869   3.209   3.517   1.565 -0.8804 -0.6143  1.3467
 4104TIP3   OH233870   3.447   5.412   1.558 -0.2386  0.0776  0.4021
 4104TIP3    H133871   3.418   5.416   1.467 -1.0029  1.1030  0.6693
 4104TIP3    H233872   3.408   5.331   1.592  0.1476 -0.3710 -0.1966
 4105TIP3   OH233873   6.653   4.876   1.307 -0.2782  0.2235  0.3707
 4105TIP3    H133874   6.701   4.918   1.236  1.0622 -0.9381  0.5502
 4105TIP3    H233875   6.564   4.868   1.274 -0.2816  1.9457 -0.1854
 4106TIP3   OH233876   3.487   0.041   1.197  0.0593 -0.1635 -0.1699
 4106TIP3    H133877   3.576   0.071   1.181  0.0282  0.7421  1.1922
 4106TIP3    H233878   3.455   0.012   1.112  1.9097 -1.2433 -0.5480
 4107TIP3   OH233879   0.906   0.231   0.489  0.3391  0.3639  0.3781
 4107TIP3    H133880   0.986   0.218   0.541 -0.5107  1.7503  2.1442
 4107TIP3    H233881   0.847   0.279   0.547 -2.2021 -1.4744 -0.5176
 4108TIP3   OH233882   0.483   3.397   0.539  1.1017  0.6063 -0.3628
 4108TIP3    H133883   0.496   3.305   0.517 -1.4418  0.1188 -0.1157
 4108TIP3    H233884   0.421   3.429   0.473 -1.2751  0.9657  1.9165
 4109TIP3   OH233885   2.689   5.877   6.231  0.1862 -0.0284  0.3802
 4109TIP3    H133886   2.607   5.903   6.189 -0.6182  2.0838  2.9001
 4109TIP3    H233887   2.757   5.922   6.181 -0.5032  0.6498  0.0298
 4110TIP3   OH233888   4.169   5.141   6.868  0.1705 -0.1301 -0.5794
 4110TIP3    H133889   4.152   5.120   6.776  0.8317 -0.5313 -0.6182
 4110TIP3    H233890   4.097   5.199   6.893 -0.8303 -1.1591 -0.9384
 4111TIP3   OH233891   4.899   2.195   1.369 -0.0303  0.0887 -0.2347
 4111TIP3    H133892   4.971   2.179   1.429  0.5489 -1.1338 -1.2074
 4111TIP3    H233893   4.916   2.283   1.334 -1.0783  1.3880  2.2409
 4112TIP3   OH233894   5.595   6.820   7.366  0.0917 -0.3612 -0.3432
 4112TIP3    H133895   5.678   6.829   7.412 -0.3118  3.7686 -0.0284
 4112TIP3    H233896   5.553   6.744   7.406  2.6333 -1.0968  1.1654
 4113TIP3   OH233897   6.054   6.942   7.180 -0.6295 -0.0649 -0.4091
 4113TIP3    H133898   6.073   6.854   7.212 -0.5645  0.2080  0.3192
 4113TIP3    H233899   6.113   6.999   7.229 -1.4101  0.4967 -0.0957
 4114TIP3   OH233900   1.044   4.284   0.435  0.1527 -0.0923 -0.1062
 4114TIP3    H133901   1.121   4.317   0.390 -0.3635  0.4197 -0.6239
 4114TIP3    H233902   1.075   4.208   0.484  1.1664  0.6170  0.3855
 4115TIP3   OH233903   3.673   2.357   0.694  0.8326 -0.2631  0.0198
 4115TIP3    H133904   3.585   2.394   0.686  0.0556 -0.8220  3.9902
 4115TIP3    H233905   3.725   2.405   0.629 -1.7228  2.2643 -0.3588
 4116TIP3   OH233906   5.390   1.095   1.339 -0.2279 -0.5556  0.2070
 4116TIP3    H133907   5.367   1.014   1.384 -1.2471 -0.3705  0.0386
 4116TIP3    H233908   5.318   1.155   1.358  1.1920  0.8344  1.5813
 4117TIP3   OH233909   4.845   4.797   0.187  0.1380  0.3295  0.4788
 4117TIP3    H133910   4.922   4.806   0.131  0.3605  0.4500  0.8037
 4117TIP3    H233911   4.879   4.803   0.276 -0.0958 -0.7204  0.6534
 4118TIP3   OH233912   6.762   4.267   0.847 -0.0825  0.1775  0.1944
 4118TIP3    H133913   6.762   4.358   0.816 -1.7317 -0.2054 -1.1230
 4118TIP3    H233914   6.750   4.215   0.767 -0.9708 -1.0988  1.1221
 4119TIP3   OH233915   2.300   4.966   7.344 -0.2199  0.1038 -0.6753
 4119TIP3    H133916   2.394   4.982   7.343 -0.1953  0.1160  0.4129
 4119TIP3    H233917   2.289   4.881   7.301  0.0199  1.1970 -3.0938
 4120TIP3   OH233918   1.235   1.563   2.194  0.4071 -0.1917 -0.4068
 4120TIP3    H133919   1.212   1.525   2.109 -0.9088 -0.8049  0.1944
 4120TIP3    H233920   1.167   1.628   2.210  0.2154 -0.5972  0.4976
 4121TIP3   OH233921   3.641   6.693   0.720  0.4085 -0.3389  0.0102
 4121TIP3    H133922   3.675   6.620   0.772  1.0490  0.8489  1.3260
 4121TIP3    H233923   3.636   6.766   0.782  1.0973  1.1190 -1.5719
 4122TIP3   OH233924   6.836   0.711   1.679  0.3540  0.2623 -0.5161
 4122TIP3    H133925   6.761   0.676   1.726  0.0527  1.4634 -0.0637
 4122TIP3    H233926   6.819   0.805   1.673  2.0877  0.6461  0.0814
 4123TIP3   OH233927   0.920   2.449   0.947 -0.1381 -0.3305  0.7401
 4123TIP3    H133928   0.931   2.359   0.915  0.6106 -0.0414  0.1424
 4123TIP3    H233929   0.862   2.490   0.883  1.1990  0.1915 -0.1809
 4124TIP3   OH233930   6.427   2.723   6.737 -0.2675 -0.0306  0.1294
 4124TIP3    H133931   6.332   2.729   6.723 -0.3379 -0.6717  0.3066
 4124TIP3    H233932   6.456   2.656   6.676  0.2622  0.9605 -0.7431
 4125TIP3   OH233933   4.526   4.455   6.332 -0.0304  0.1154 -0.1000
 4125TIP3    H133934   4.540   4.545   6.360 -1.1252  0.6229 -1.1580
 4125TIP3    H233935   4.590   4.441   6.263  1.4934 -0.5935  1.3644
 4126TIP3   OH233936   0.632   6.611   5.869 -0.4258 -0.0180 -0.2037
 4126TIP3    H133937   0.582   6.663   5.806  0.4442  0.0476 -0.8634
 4126TIP3    H233938   0.676   6.545   5.816  0.5622  0.2287  0.2880
 4127TIP3   OH233939   5.716   1.999   8.024 -0.1958 -0.0053  0.8991
 4127TIP3    H133940   5.808   2.022   8.019 -0.1044 -0.4047  0.6796
 4127TIP3    H233941   5.705   1.965   8.113 -0.6392  2.1377  1.7063
 4128TIP3   OH233942   6.509   3.799   6.712  0.3986  0.0947 -0.0220
 4128TIP3    H133943   6.488   3.735   6.780 -0.3484  1.0480  0.6814
 4128TIP3    H233944   6.501   3.750   6.630 -0.1593 -0.7145  0.4921
 4129TIP3   OH233945   2.949   6.586   0.651  0.0662  0.2244 -0.5165
 4129TIP3    H133946   2.989   6.605   0.566 -1.5029  0.4482 -1.2396
 4129TIP3    H233947   2.876   6.648   0.657  0.0202  0.0572  0.9047
 4130TIP3   OH233948   0.194   6.561   6.572  0.3658  0.0744 -0.7929
 4130TIP3    H133949   0.149   6.478   6.559  0.6122 -0.0419 -0.9212
 4130TIP3    H233950   0.238   6.551   6.656  1.1453 -0.2831 -1.2204
 4131TIP3   OH233951   5.634   0.685   6.156  0.2294  0.2583 -0.5860
 4131TIP3    H133952   5.589   0.628   6.093  0.6239 -0.4036 -0.2716
 4131TIP3    H233953   5.683   0.626   6.212 -1.1051  0.7472  1.1612
 4132TIP3   OH233954   5.329   3.160   7.876 -0.4760  0.2134 -0.1132
 4132TIP3    H133955   5.369   3.162   7.962  0.6535  0.6461 -0.6257
 4132TIP3    H233956   5.304   3.252   7.859 -0.0727  0.2507 -0.5202
 4133TIP3   OH233957   5.798   1.093   6.377 -0.0708  0.3435  0.0310
 4133TIP3    H133958   5.846   1.045   6.309 -0.5665  0.6370 -0.5338
 4133TIP3    H233959   5.861   1.104   6.448  0.5998  0.4301 -0.5695
 4134TIP3   OH233960   4.939   4.996   1.465 -0.1992  0.3586 -0.1181
 4134TIP3    H133961   4.973   5.085   1.467 -0.4453  0.5104  3.3976
 4134TIP3    H233962   4.861   4.999   1.520 -0.0261 -2.0925  0.3530
 4135TIP3   OH233963   1.188   6.801   2.054  0.6807  1.1916  0.1303
 4135TIP3    H133964   1.262   6.814   1.996 -1.5040  0.9701 -2.9538
 4135TIP3    H233965   1.179   6.706   2.060  0.4673  1.2182  0.2469
 4136TIP3   OH233966   5.719   6.369   1.023 -0.3762  0.0078  0.2824
 4136TIP3    H133967   5.678   6.417   1.095  0.1054  2.8865 -1.2597
 4136TIP3    H233968   5.646   6.343   0.967 -0.4810  0.9477 -0.0268
 4137TIP3   OH233969   3.570   2.007   7.493 -0.1804  0.1522  0.5940
 4137TIP3    H133970   3.611   2.093   7.490 -1.1637  0.6595  1.0043
 4137TIP3    H233971   3.582   1.971   7.405 -0.1968  0.9221  0.2716
 4138TIP3   OH233972   4.921   6.489   1.662  0.1306  0.0685  0.5563
 4138TIP3    H133973   4.953   6.472   1.750  1.1387 -0.8335  0.0457
 4138TIP3    H233974   4.882   6.576   1.667  0.8811  0.3643  1.7066
 4139TIP3   OH233975   4.434   6.341   6.922 -0.2260  0.4364 -0.0558
 4139TIP3    H133976   4.457   6.434   6.919 -0.8074  0.5660 -1.6035
 4139TIP3    H233977   4.509   6.298   6.964 -0.8785  1.8402  2.7542
 4140TIP3   OH233978   5.352   3.805   7.683 -0.3352  0.2123  0.1763
 4140TIP3    H133979   5.435   3.792   7.730 -1.5258  0.5384  2.5498
 4140TIP3    H233980   5.375   3.795   7.591  1.9640 -1.6816  0.8420
 4141TIP3   OH233981   0.092   0.658   7.989  0.6079 -0.3723  0.3936
 4141TIP3    H133982   0.098   0.617   8.076  0.3979  2.1803  1.7230
 4141TIP3    H233983   0.179   0.695   7.974 -0.2581  2.2197  1.2211
 4142TIP3   OH233984   3.458   2.360   6.791 -0.4635  0.0876 -0.4233
 4142TIP3    H133985   3.511   2.332   6.717 -0.4447  1.5548 -0.9957
 4142TIP3    H233986   3.508   2.430   6.832  0.0400 -1.3824  1.6750
 4143TIP3   OH233987   1.359   1.786   0.553 -0.3918 -0.7314  0.2637
 4143TIP3    H133988   1.329   1.840   0.480 -1.8630 -0.3212  1.1279
 4143TIP3    H233989   1.344   1.696   0.525 -0.9987 -0.5734  0.0697
 4144TIP3   OH233990   4.182   6.550   0.899 -0.1146 -0.5353  0.4518
 4144TIP3    H133991   4.188   6.459   0.870  1.4237 -0.5531  0.7212
 4144TIP3    H233992   4.089   6.572   0.890 -0.4266 -1.9513 -0.1304
 4145TIP3   OH233993   4.047   2.306   6.564 -0.1568  0.1940  0.0428
 4145TIP3    H133994   4.077   2.216   6.573 -4.2109 -1.3681 -0.0761
 4145TIP3    H233995   4.043   2.339   6.654 -0.6740 -0.5067  0.2822
 4146TIP3   OH233996   4.430   1.539   6.939  0.4628  0.1183  0.3227
 4146TIP3    H133997   4.469   1.468   6.889  0.7069  1.0522 -0.8490
 4146TIP3    H233998   4.502   1.601   6.953  0.3546 -0.0204  1.6891
 4147TIP3   OH233999   4.578   7.054   0.292 -0.2848 -0.2725  0.0179
 4147TIP3    H134000   4.581   7.148   0.277  1.3765 -0.3621 -0.4725
 4147TIP3    H234001   4.563   7.044   0.386 -3.0760  0.4039 -0.2634
 4148TIP3   OH234002   4.996   5.536   7.147  0.0945 -0.5137  0.3168
 4148TIP3    H134003   4.948   5.500   7.072  1.6535  0.1678 -1.0617
 4148TIP3    H234004   4.998   5.464   7.210  1.1071 -2.0944 -1.4065
 4149TIP3   OH234005   6.850   2.945   0.478 -0.5344 -0.0335 -0.4665
 4149TIP3    H134006   6.909   2.924   0.406 -2.2015 -0.2073 -1.8471
 4149TIP3    H234007   6.870   3.036   0.500  0.0796 -0.0186 -1.0747
 4150TIP3   OH234008   6.333   1.259   1.268  0.1430 -0.0057  0.3770
 4150TIP3    H134009   6.289   1.331   1.223  1.5828  1.8833  1.7994
 4150TIP3    H234010   6.388   1.218   1.200 -0.9206  0.0200 -0.5247
 4151TIP3   OH234011   5.439   0.277   8.024  0.6442  0.0526  0.9667
 4151TIP3    H134012   5.478   0.202   8.069  1.4981  0.5273  1.0414
 4151TIP3    H234013   5.374   0.311   8.085  0.6110 -0.3205  1.1388
 4152TIP3   OH234014   1.095   2.130   7.316 -0.0383 -0.4338 -0.0100
 4152TIP3    H134015   1.044   2.067   7.265 -1.4952  2.0285 -1.7679
 4152TIP3    H234016   1.184   2.121   7.283 -0.7253  0.2220 -2.1509
 4153TIP3   OH234017   3.314   2.033   1.716  0.0511  0.1151 -0.1919
 4153TIP3    H134018   3.339   2.126   1.723  0.5493 -0.0434  0.1779
 4153TIP3    H234019   3.234   2.034   1.663  0.9684  0.6137 -1.6301
 4154TIP3   OH234020   0.830   0.510   6.224 -0.2135 -0.3215  0.1813
 4154TIP3    H134021   0.889   0.510   6.148 -1.4692 -0.1442 -0.8169
 4154TIP3    H234022   0.744   0.493   6.188 -0.6980 -1.3223  1.7092
 4155TIP3   OH234023   2.801   7.095   6.101 -0.6522  0.0339 -0.8797
 4155TIP3    H134024   2.866   7.157   6.067 -2.3028  2.6282  0.3736
 4155TIP3    H234025   2.836   7.009   6.077  3.9544  1.0958  0.8784
 4156TIP3   OH234026   0.205   2.444   1.692  0.1439 -0.0632  0.0525
 4156TIP3    H134027   0.148   2.510   1.731 -0.2687  0.2872 -1.0973
 4156TIP3    H234028   0.146   2.371   1.672 -0.0994  0.6129 -1.8768
 4157TIP3   OH234029   3.781   1.305   6.560 -0.4139  0.7860  0.2474
 4157TIP3    H134030   3.754   1.383   6.609 -1.5265  0.5254  0.0933
 4157TIP3    H234031   3.846   1.336   6.497  0.3154  1.2939  1.2366
 4158TIP3   OH234032   6.309   5.510   7.867  0.0636 -0.1556 -0.0638
 4158TIP3    H134033   6.362   5.589   7.855  0.8861 -0.3377  1.9984
 4158TIP3    H234034   6.357   5.442   7.820 -0.4901  0.4729 -1.5945
 4159TIP3   OH234035   1.531   5.804   0.760  0.3655 -0.3509 -0.1148
 4159TIP3    H134036   1.597   5.874   0.757  1.3055 -1.2476 -2.2425
 4159TIP3    H234037   1.519   5.786   0.853  1.5882  1.2492  0.3950
 4160TIP3   OH234038   1.834   1.780   0.784 -0.3175  0.1949  0.1267
 4160TIP3    H134039   1.795   1.767   0.697 -1.2382  2.1911  0.1925
 4160TIP3    H234040   1.796   1.711   0.838 -2.3247  0.8914 -0.2981
 4161TIP3   OH234041   3.458   2.394   7.577 -0.1281 -0.0907  0.0304
 4161TIP3    H134042   3.473   2.489   7.575  0.9573 -0.2557 -2.0370
 4161TIP3    H234043   3.363   2.385   7.574 -0.2214  0.9676 -1.7489
 4162TIP3   OH234044   3.652   6.528   7.573  0.0165  0.4459 -0.1121
 4162TIP3    H134045   3.656   6.434   7.589  2.0743  0.7212  1.3873
 4162TIP3    H234046   3.739   6.551   7.541 -0.7836  1.7169 -1.5380
 4163TIP3   OH234047   5.990   2.002   8.001 -0.0467 -0.4042  0.0820
 4163TIP3    H134048   6.023   1.949   8.074  2.2735  2.0461  0.9879
 4163TIP3    H234049   6.068   2.047   7.967 -1.6903  1.6364 -1.2348
 4164TIP3   OH234050   1.650   2.291   6.375  0.2265  0.0498 -0.0597
 4164TIP3    H134051   1.616   2.313   6.461 -1.3491  0.7475 -0.8136
 4164TIP3    H234052   1.573   2.293   6.317  1.4606  1.2525 -1.7664
 4165TIP3   OH234053   4.483   2.232   2.140  0.8057 -0.2760 -0.5404
 4165TIP3    H134054   4.396   2.229   2.100  1.9428 -0.0091 -3.1944
 4165TIP3    H234055   4.489   2.149   2.188 -0.7682 -0.4351 -0.5472
 4166TIP3   OH234056   0.419   2.457   1.222  0.0334 -0.4974 -0.2208
 4166TIP3    H134057   0.328   2.429   1.232 -0.0172 -0.1649  0.2727
 4166TIP3    H234058   0.469   2.393   1.272  0.1747 -1.2515 -1.2833
 4167TIP3   OH234059   6.205   0.344   1.085 -0.0708 -1.1553 -0.9375
 4167TIP3    H134060   6.130   0.381   1.131  0.1666 -1.7366 -0.0571
 4167TIP3    H234061   6.168   0.274   1.031 -0.2364 -1.0945 -0.9021
 4168TIP3   OH234062   1.013   4.719   1.384 -0.8439  0.1378 -0.4198
 4168TIP3    H134063   1.041   4.636   1.345 -1.2664 -0.8816  1.3465
 4168TIP3    H234064   1.022   4.783   1.313  2.2206 -0.8301 -1.0516
 4169TIP3   OH234065   4.849   1.836   0.349  0.4466  0.2987  0.5248
 4169TIP3    H134066   4.759   1.858   0.373  0.9114  1.6149  1.1952
 4169TIP3    H234067   4.893   1.819   0.433  1.0166  0.4823  0.2692
 4170TIP3   OH234068   3.638   5.691   6.240  0.2226  0.2031  0.2428
 4170TIP3    H134069   3.585   5.761   6.278 -1.3770 -0.4783 -0.6135
 4170TIP3    H234070   3.723   5.732   6.222  0.3524  1.0836  2.5167
 4171TIP3   OH234071   3.682   5.019   0.974 -0.1491 -0.5126 -0.9674
 4171TIP3    H134072   3.761   4.975   1.007  0.3660  0.2066 -1.2131
 4171TIP3    H234073   3.652   5.072   1.048 -0.1708 -0.4809 -0.9992
 4172TIP3   OH234074   4.417   5.404   1.212 -0.5133  0.3076 -0.7765
 4172TIP3    H134075   4.370   5.483   1.239  1.8569  0.9381  1.8453
 4172TIP3    H234076   4.391   5.337   1.275 -0.4018 -0.2816 -1.3348
 4173TIP3   OH234077   5.540   5.893   1.436  0.1678 -0.1081 -0.3216
 4173TIP3    H134078   5.463   5.896   1.493  0.3236  2.5988 -0.1264
 4173TIP3    H234079   5.535   5.974   1.385  3.3343  0.6070  0.3066
 4174TIP3   OH234080   3.790   1.443   0.526 -0.0962  0.2487 -0.1995
 4174TIP3    H134081   3.778   1.370   0.586  0.0452  1.6318  1.6199
 4174TIP3    H234082   3.813   1.517   0.583  0.8377  1.4635 -2.0439
 4175TIP3   OH234083   6.764   2.837   1.607 -0.9327  0.2518  0.1892
 4175TIP3    H134084   6.696   2.787   1.652  0.3664 -0.1065  1.8312
 4175TIP3    H234085   6.766   2.800   1.519 -1.5940 -1.0059  0.6784
 4176TIP3   OH234086   6.649   0.578   0.777 -0.6136  0.2779  0.3553
 4176TIP3    H134087   6.661   0.526   0.697 -0.5308  0.2041  0.4144
 4176TIP3    H234088   6.622   0.664   0.746  2.6660  1.3411  0.0053
 4177TIP3   OH234089   6.233   3.292   6.876 -0.2756  0.0001  0.3406
 4177TIP3    H134090   6.241   3.347   6.798  1.1853  1.7080  1.6031
 4177TIP3    H234091   6.153   3.321   6.919  0.0841  0.6453  0.5959
 4178TIP3   OH234092   4.259   0.057   7.920 -0.1364 -0.1825  0.2891
 4178TIP3    H134093   4.263  -0.008   7.990  1.5016 -0.1677  0.2548
 4178TIP3    H234094   4.327   0.030   7.858 -0.5324  0.6568 -0.5422
 4179TIP3   OH234095   5.902   5.515   7.463 -0.8511 -0.1045  0.0801
 4179TIP3    H134096   5.993   5.492   7.480 -1.3884 -2.2176  0.3727
 4179TIP3    H234097   5.892   5.602   7.501  1.0564  0.2157 -0.0431
 4180TIP3   OH234098   1.726   1.202   7.217 -0.0676 -1.0092 -0.2308
 4180TIP3    H134099   1.754   1.269   7.280  1.4078 -0.1901 -1.6880
 4180TIP3    H234100   1.735   1.120   7.264  2.5456 -0.5628  0.1857
 4181TIP3   OH234101   4.192   3.081   5.906  0.2360 -0.4717  0.5782
 4181TIP3    H134102   4.181   3.067   6.000  0.4873 -1.1491  0.5092
 4181TIP3    H234103   4.232   3.001   5.874  0.3314 -0.1691 -0.0801
 4182TIP3   OH234104   5.183   1.618   0.778 -0.0283 -0.2144 -0.1190
 4182TIP3    H134105   5.237   1.583   0.848  0.6706 -0.7013 -0.8786
 4182TIP3    H234106   5.246   1.652   0.714 -0.6371 -0.1119 -0.6757
 4183TIP3   OH234107   1.748   3.173   7.828 -0.4647 -0.1924 -0.4556
 4183TIP3    H134108   1.772   3.195   7.738  0.0271  1.1525 -0.0207
 4183TIP3    H234109   1.829   3.187   7.878 -0.6398 -1.2637  0.1531
 4184TIP3   OH234110   6.654   2.049   7.291  0.1118 -0.0578 -0.0590
 4184TIP3    H134111   6.595   2.122   7.272 -1.5939 -1.5077 -0.5991
 4184TIP3    H234112   6.690   2.068   7.378  0.2551  1.7346 -0.4707
 4185TIP3   OH234113   2.793   0.742   5.913 -0.0817  0.4742  0.1919
 4185TIP3    H134114   2.715   0.724   5.860 -1.1294  2.6719  0.8604
 4185TIP3    H234115   2.825   0.827   5.881  0.9404  0.4951  1.1921
 4186TIP3   OH234116   3.100   1.343   7.841 -0.3276  0.8071  0.4667
 4186TIP3    H134117   3.050   1.348   7.760 -0.4018  0.8686  0.5170
 4186TIP3    H234118   3.055   1.276   7.893  0.5957 -0.3485 -0.1615
 4187TIP3   OH234119   1.296   2.238   0.397  0.2974 -0.4741  0.1626
 4187TIP3    H134120   1.217   2.244   0.344  0.2804  1.4665  0.3175
 4187TIP3    H234121   1.350   2.312   0.369  1.9089 -1.5258  0.3318
 4188TIP3   OH234122   6.828   0.505   5.945  0.0608  0.3484  0.0153
 4188TIP3    H134123   6.915   0.546   5.943  0.6948 -0.9797 -0.2856
 4188TIP3    H234124   6.788   0.529   5.861  0.7702 -0.3407 -0.5342
 4189TIP3   OH234125   5.244   0.438   7.436 -0.1167 -0.4621  0.0307
 4189TIP3    H134126   5.231   0.532   7.424 -1.6043 -0.7348 -0.7613
 4189TIP3    H234127   5.283   0.429   7.523 -0.6395  0.8365  0.4069
 4190TIP3   OH234128   3.243   4.946   5.618  0.2859 -0.3057 -0.6942
 4190TIP3    H134129   3.244   4.919   5.709 -2.1291 -0.1777 -0.5424
 4190TIP3    H234130   3.185   4.883   5.575 -1.1259  1.3794 -1.4337
 4191TIP3   OH234131   3.759   1.456   6.783  0.1752 -0.3803  0.5429
 4191TIP3    H134132   3.692   1.427   6.844 -0.3634 -2.5303 -0.9534
 4191TIP3    H234133   3.839   1.462   6.836 -0.7303  0.1349  1.9076
 4192TIP3   OH234134   4.590   7.039   7.274 -0.1294 -0.1867 -0.0398
 4192TIP3    H134135   4.531   7.113   7.289 -1.1268 -1.3203  2.1468
 4192TIP3    H234136   4.677   7.073   7.290 -0.3518  1.0084 -1.2265
 4193TIP3   OH234137   5.430   1.309   1.523 -0.1763  0.7443 -0.0207
 4193TIP3    H134138   5.479   1.299   1.604 -1.8510 -2.9632  0.7809
 4193TIP3    H234139   5.479   1.257   1.459 -0.0137  1.8525 -0.8236
 4194TIP3   OH234140   6.694   6.763   7.948 -0.2165  0.2706 -0.0061
 4194TIP3    H134141   6.668   6.833   8.007 -0.2128  0.4834 -0.2543
 4194TIP3    H234142   6.744   6.703   8.002 -1.0753 -0.0561  0.4368
 4195TIP3   OH234143   3.835   4.883   7.447  0.1726 -0.1626 -0.6615
 4195TIP3    H134144   3.911   4.847   7.493 -1.7698 -1.6342  1.6184
 4195TIP3    H234145   3.825   4.971   7.483 -0.1348 -0.5608  0.2399
 4196TIP3   OH234146   4.981   1.795   2.238  0.0119  0.1138  0.1126
 4196TIP3    H134147   4.946   1.884   2.244 -0.1952 -0.0118  0.7864
 4196TIP3    H234148   4.910   1.738   2.267  0.5845 -0.1793  0.9567
 4197TIP3   OH234149   4.973   0.708   6.924  0.7240 -0.5256  0.1039
 4197TIP3    H134150   4.981   0.797   6.890  0.8644 -1.1317 -1.5308
 4197TIP3    H234151   5.036   0.704   6.996  2.1388  0.1484 -1.0480
 4198TIP3   OH234152   5.180   4.758   7.785 -0.4222 -0.0304  0.2353
 4198TIP3    H134153   5.097   4.751   7.739 -0.2517 -1.3062  0.0710
 4198TIP3    H234154   5.246   4.761   7.715 -0.2606 -0.3403  0.3711
 4199TIP3   OH234155   6.413   4.410   6.568 -0.4547 -0.0907  0.3866
 4199TIP3    H134156   6.466   4.419   6.489  1.0529  3.6318  1.5750
 4199TIP3    H234157   6.330   4.372   6.537  1.6734 -3.3073 -2.0324
 4200TIP3   OH234158   1.318   0.650   0.686  0.0958  0.3655  0.2340
 4200TIP3    H134159   1.406   0.676   0.659 -0.9707  1.7747 -2.1851
 4200TIP3    H234160   1.287   0.593   0.616 -1.3412  0.8865  0.4122
 4201TIP3   OH234161   2.402   2.256   5.894 -0.3890  0.5252  0.2857
 4201TIP3    H134162   2.386   2.348   5.913 -1.3392 -0.0264  2.6047
 4201TIP3    H234163   2.338   2.233   5.826 -0.9260  1.3146  0.5165
 4202TIP3   OH234164   2.324   0.734   1.317  0.0979  0.5650  0.1658
 4202TIP3    H134165   2.418   0.726   1.334  0.2361 -0.1657 -0.8503
 4202TIP3    H234166   2.316   0.729   1.222 -0.9903  0.3543  0.2529
 4203TIP3   OH234167   2.604   5.508   1.923  0.1246 -0.0171  0.2038
 4203TIP3    H134168   2.652   5.448   1.981  1.5506 -0.9734 -1.8577
 4203TIP3    H234169   2.523   5.461   1.902  0.7685 -0.7947 -0.5834
 4204TIP3   OH234170   1.306   2.817   7.660  0.1651  0.2152  0.1102
 4204TIP3    H134171   1.346   2.736   7.629 -1.4876 -0.8254  0.5725
 4204TIP3    H234172   1.235   2.789   7.717 -0.0682  2.0133  0.7740
 4205TIP3   OH234173   4.117   0.965   6.896  0.5399  0.2617  0.7849
 4205TIP3    H134174   4.124   1.060   6.902  0.9249  0.5373 -2.3683
 4205TIP3    H234175   4.204   0.933   6.919  0.7288  0.7529  0.7631
 4206TIP3   OH234176   4.823   6.907   6.903  0.0863  0.4861 -0.0738
 4206TIP3    H134177   4.810   6.818   6.869 -0.1274  0.7037 -0.5732
 4206TIP3    H234178   4.809   6.899   6.997  1.4080 -0.2724  0.0726
 4207TIP3   OH234179   1.819   5.864   6.645 -0.0724 -0.0898  0.5772
 4207TIP3    H134180   1.741   5.827   6.604  1.2637 -0.5522 -1.6771
 4207TIP3    H234181   1.828   5.816   6.728 -2.1443 -0.0054  0.8994
 4208TIP3   OH234182   4.861   6.705   0.596 -0.1146 -0.2775  0.0000
 4208TIP3    H134183   4.935   6.645   0.602  0.9563  1.0643  1.0194
 4208TIP3    H234184   4.882   6.762   0.522  0.1354  0.3968  0.5746
 4209TIP3   OH234185   5.735   1.362   6.430  0.0329  0.2922 -0.2739
 4209TIP3    H134186   5.759   1.274   6.403 -0.8291  0.0823 -0.3966
 4209TIP3    H234187   5.751   1.416   6.353 -0.5271  0.0362 -0.5801
 4210TIP3   OH234188   3.371   1.826   5.759 -0.2202  0.0443 -0.6363
 4210TIP3    H134189   3.418   1.873   5.691  1.1292 -1.9570 -1.1731
 4210TIP3    H234190   3.282   1.815   5.724  0.0493  0.3259 -1.4295
 4211TIP3   OH234191   2.458   5.760   7.998  0.0583  0.6115  0.1777
 4211TIP3    H134192   2.387   5.722   8.049  0.6360  0.1087  0.6205
 4211TIP3    H234193   2.513   5.804   8.062 -2.2994  5.2541 -0.5722
 4212TIP3   OH234194   5.043   1.800   0.993  0.4177  0.2499  0.0192
 4212TIP3    H134195   5.094   1.755   0.926  1.3000  0.6159  0.4299
 4212TIP3    H234196   4.953   1.772   0.977  0.4602  1.0504 -1.9100
 4213TIP3   OH234197   2.566   0.743   5.759 -0.0459 -0.3997  0.4476
 4213TIP3    H134198   2.632   0.755   5.690 -0.8460  1.0170 -0.1390
 4213TIP3    H234199   2.512   0.671   5.728 -0.5320  0.3660 -0.5604
 4214TIP3   OH234200   5.000   2.639   7.493 -0.0187 -0.5165  0.3349
 4214TIP3    H134201   4.929   2.599   7.444  1.0436 -2.0397 -0.0235
 4214TIP3    H234202   4.965   2.723   7.523 -1.6592 -0.8658 -0.5392
 4215TIP3   OH234203   1.772   0.028   1.585 -0.7389  0.1888  0.1733
 4215TIP3    H134204   1.747   0.010   1.676 -2.4417 -0.0820 -0.3092
 4215TIP3    H234205   1.784   0.123   1.582  1.8924 -0.0345  1.2360
 4216TIP3   OH234206   5.635   0.167   7.758  1.1225 -0.1700  0.3915
 4216TIP3    H134207   5.651   0.078   7.727 -1.1304 -0.3348 -0.4750
 4216TIP3    H234208   5.623   0.157   7.853  0.2066 -0.9363  0.2169
 4217TIP3   OH234209   5.053   5.134   1.942 -0.0661  0.3079  0.7476
 4217TIP3    H134210   5.139   5.096   1.957 -0.0647  0.2897  0.6949
 4217TIP3    H234211   5.024   5.163   2.029 -0.2115 -0.1186  0.8454
 4218TIP3   OH234212   2.459   2.146   0.712 -0.1377  0.0235 -0.0008
 4218TIP3    H134213   2.377   2.156   0.664  0.7618  0.7139 -1.4577
 4218TIP3    H234214   2.434   2.098   0.791 -1.8915 -0.0250 -0.5298
 4219TIP3   OH234215   1.322   4.840   1.563 -0.0938  0.0186  0.2435
 4219TIP3    H134216   1.299   4.768   1.622  1.2330 -1.3115 -0.7873
 4219TIP3    H234217   1.329   4.800   1.477  0.5737  1.4053 -0.3804
 4220TIP3   OH234218   0.355   3.992   7.680 -0.3921 -0.2277  0.0163
 4220TIP3    H134219   0.267   4.023   7.655 -0.2629 -1.0029 -1.5178
 4220TIP3    H234220   0.412   4.023   7.610  0.3566 -0.7698  0.3701
 4221TIP3   OH234221   3.163   1.950   1.184 -0.2214  0.2733 -0.2300
 4221TIP3    H134222   3.205   1.875   1.227 -0.0788  1.1126  1.1520
 4221TIP3    H234223   3.205   2.027   1.224 -1.1770  1.0952 -0.7780
 4222TIP3   OH234224   3.519   2.320   1.050 -0.4057  0.1091  0.3843
 4222TIP3    H134225   3.602   2.306   1.003 -0.1369  0.2813  0.8052
 4222TIP3    H234226   3.544   2.323   1.142 -0.8970  0.0697  0.5203
 4223TIP3   OH234227   1.796   6.416   2.194 -0.1212  0.4478 -0.5775
 4223TIP3    H134228   1.825   6.325   2.200  0.6767  0.5237 -2.3371
 4223TIP3    H234229   1.815   6.453   2.280 -0.9036 -1.1388  0.3301
 4224TIP3   OH234230   1.079   5.467   1.204  0.2513 -0.6460 -0.1593
 4224TIP3    H134231   1.033   5.433   1.281 -1.7274  1.9563 -0.0333
 4224TIP3    H234232   1.032   5.430   1.130 -0.6690  0.2549 -0.0433
 4225TIP3   OH234233   1.131   0.891   1.902  0.1258 -0.3766  0.1470
 4225TIP3    H134234   1.180   0.824   1.854  0.3200  0.3966 -0.7804
 4225TIP3    H234235   1.043   0.854   1.912 -0.1097 -0.3108 -1.4215
 4226TIP3   OH234236   0.973   5.209   0.321  0.0699  0.0555 -0.0508
 4226TIP3    H134237   1.005   5.297   0.304 -3.1956  1.4475  0.3342
 4226TIP3    H234238   1.038   5.171   0.381  1.2167  2.4052  0.2997
 4227TIP3   OH234239   4.142   3.321   6.496  0.8085  0.4094  0.0324
 4227TIP3    H134240   4.219   3.295   6.447  0.1808 -0.6451 -0.4182
 4227TIP3    H234241   4.124   3.248   6.555  0.4833  0.8895  0.5499
 4228TIP3   OH234242   1.416   1.972   0.751  0.2699  0.6232  0.2197
 4228TIP3    H134243   1.354   2.044   0.749 -0.5982 -0.1179 -0.2679
 4228TIP3    H234244   1.374   1.902   0.700  0.9378 -0.3394  0.9467
 4229TIP3   OH234245   3.379   6.080   0.030 -0.5124 -0.5903  0.1677
 4229TIP3    H134246   3.453   6.031   0.066 -0.7951  0.4758  2.3404
 4229TIP3    H234247   3.325   6.102   0.106 -1.7545  0.8512 -1.0621
 4230TIP3   OH234248   6.729   2.732   1.358 -0.2369  0.4716 -0.7398
 4230TIP3    H134249   6.664   2.704   1.294  0.5328 -1.6439 -0.6912
 4230TIP3    H234250   6.790   2.658   1.365 -1.2294 -0.2429  3.7200
 4231TIP3   OH234251   7.109   5.522   1.644 -0.1840 -0.2171  0.2416
 4231TIP3    H134252   7.093   5.481   1.729  0.4627  1.5280  1.2595
 4231TIP3    H234253   7.201   5.505   1.625  0.1830  0.9903  0.8386
 4232TIP3   OH234254   3.803   5.065   5.362 -0.3512  0.2989 -0.4639
 4232TIP3    H134255   3.761   5.050   5.447 -1.9948  0.9544 -1.1116
 4232TIP3    H234256   3.791   4.982   5.316  0.9432 -0.2102  0.0819
 4233TIP3   OH234257   2.942   1.774   1.975 -0.3344  0.5352 -0.2747
 4233TIP3    H134258   2.957   1.814   2.060 -0.9818  4.7200 -1.8799
 4233TIP3    H234259   3.029   1.772   1.934 -0.0158 -1.5149  0.3928
 4234TIP3   OH234260   1.533   1.281   6.461 -0.1668 -0.3757  0.0279
 4234TIP3    H134261   1.606   1.323   6.414  0.1438 -0.9149  0.0235
 4234TIP3    H234262   1.475   1.353   6.483  0.9291  0.2330  1.0572
 4235TIP3   OH234263   0.608   0.634   6.456  0.3849 -0.1898 -0.0340
 4235TIP3    H134264   0.573   0.707   6.405  0.5439 -1.0814 -1.4923
 4235TIP3    H234265   0.573   0.556   6.412  0.8798 -1.0040  0.9836
 4236TIP3   OH234266   1.583   1.213   0.386 -0.0197 -0.3651  0.1747
 4236TIP3    H134267   1.617   1.140   0.335  1.6577  0.4136  0.1188
 4236TIP3    H234268   1.661   1.261   0.415 -1.0810  2.0564 -0.7567
 4237TIP3   OH234269   3.737   0.180   1.184  0.2771  0.2686  0.4298
 4237TIP3    H134270   3.818   0.183   1.133 -0.3105 -0.1488 -0.5720
 4237TIP3    H234271   3.695   0.264   1.166 -0.2955 -0.1831 -0.4291
 4238TIP3   OH234272   2.712   5.970   1.405  0.3123  0.4608  0.0543
 4238TIP3    H134273   2.646   6.010   1.463 -1.1264 -0.1006 -1.1230
 4238TIP3    H234274   2.730   5.885   1.445 -0.5508  0.1463 -0.1915
 4239TIP3   OH234275   0.804   2.750   7.782  0.0156  0.1055  0.2459
 4239TIP3    H134276   0.892   2.771   7.751  0.1282 -0.0625  0.4461
 4239TIP3    H234277   0.755   2.831   7.772  0.3225  0.3331  0.5757
 4240TIP3   OH234278   0.784   3.350   6.529 -0.0665 -0.2626  0.2068
 4240TIP3    H134279   0.769   3.445   6.524 -1.2501 -0.4641 -0.3367
 4240TIP3    H234280   0.699   3.314   6.555 -0.4941 -1.4254 -2.5507
 4241TIP3   OH234281   3.393   3.379   7.656 -0.7974 -0.8173 -0.7222
 4241TIP3    H134282   3.324   3.342   7.601  0.3462 -1.1966 -1.9853
 4241TIP3    H234283   3.421   3.458   7.609 -0.1619 -0.8442 -0.4046
 4242TIP3   OH234284   2.009   2.892   7.910 -0.3241  0.1771  0.0721
 4242TIP3    H134285   2.004   2.981   7.945 -0.1635  0.0008  0.5556
 4242TIP3    H234286   2.097   2.887   7.872 -0.6013  0.4597 -0.6141
 4243TIP3   OH234287   5.262   5.569   2.216 -0.2801  0.5321  0.3279
 4243TIP3    H134288   5.296   5.498   2.162 -0.0998 -0.5973  1.8628
 4243TIP3    H234289   5.174   5.542   2.241 -0.7430  1.5008 -0.1862
 4244TIP3   OH234290   1.873   5.944   0.234 -0.3973 -0.1652  0.0309
 4244TIP3    H134291   1.924   6.024   0.252  1.1435 -1.0295 -0.2695
 4244TIP3    H234292   1.928   5.873   0.268 -0.3964 -1.3300 -2.1811
 4245TIP3   OH234293   2.482   0.751   1.582 -0.3279 -0.1117  0.9153
 4245TIP3    H134294   2.395   0.788   1.595 -0.9596 -0.6056 -1.3907
 4245TIP3    H234295   2.535   0.826   1.554 -0.5642 -0.1828  0.2619
 4246TIP3   OH234296   3.546   2.830   7.197 -0.4389 -0.6160 -0.1230
 4246TIP3    H134297   3.641   2.830   7.187 -0.0173 -1.5527  2.9243
 4246TIP3    H234298   3.522   2.738   7.200 -1.1069 -0.4153  1.3854
 4247TIP3   OH234299   2.446   0.080   1.065 -0.0806  0.0917  0.0369
 4247TIP3    H134300   2.488   0.114   0.986 -0.6296  0.6837 -0.0073
 4247TIP3    H234301   2.381   0.017   1.031 -0.9888  1.0478 -0.0648
 4248TIP3   OH234302   2.085   6.373   5.742 -0.0871  0.4741  0.3119
 4248TIP3    H134303   2.019   6.442   5.732  0.2843  0.5732 -2.0065
 4248TIP3    H234304   2.167   6.413   5.714  0.5618 -0.2698  1.0918
 4249TIP3   OH234305   6.610   4.073   0.982  0.6194 -0.1534 -0.1683
 4249TIP3    H134306   6.557   4.150   0.963  0.6021  0.5821  2.4053
 4249TIP3    H234307   6.643   4.044   0.897  1.0494  3.0074 -1.2104
 4250TIP3   OH234308   6.651   6.693   1.108  0.3445  1.4456 -0.4511
 4250TIP3    H134309   6.606   6.609   1.100  2.0261  0.2974  1.0980
 4250TIP3    H234310   6.644   6.732   1.021 -0.6565 -0.2036 -1.1773
 4251TIP3   OH234311   3.652   2.343   0.031 -0.0037  0.0953 -0.7052
 4251TIP3    H134312   3.741   2.376   0.022  0.3552 -0.5334  0.3596
 4251TIP3    H234313   3.634   2.347   0.125 -1.0483  0.0759 -0.8849
 4252TIP3   OH234314   5.612   0.018   0.460  0.7921  0.3086 -0.3495
 4252TIP3    H134315   5.559  -0.020   0.530  1.5394  0.6838  0.4371
 4252TIP3    H234316   5.692  -0.034   0.460  0.8456  0.3850 -0.8670
 4253TIP3   OH234317   3.573   4.341   0.898  0.1093 -0.3760 -0.7649
 4253TIP3    H134318   3.569   4.392   0.817 -0.4872 -0.5663 -0.8573
 4253TIP3    H234319   3.487   4.353   0.938  0.3292 -0.4559 -0.2640
 4254TIP3   OH234320   2.836   6.562   7.540 -0.2982 -0.1017 -0.1588
 4254TIP3    H134321   2.899   6.495   7.512 -0.1375 -0.8928  1.9486
 4254TIP3    H234322   2.889   6.640   7.554  0.1443 -0.5624  0.8788
 4255TIP3   OH234323   1.357   0.141   6.328  0.2983 -0.1987 -0.4097
 4255TIP3    H134324   1.353   0.103   6.240  0.6406  1.1851 -1.0482
 4255TIP3    H234325   1.309   0.223   6.320  1.1485  0.3950  0.4506
 4256TIP3   OH234326   1.725   4.812   7.431  0.5092  0.0496 -0.0985
 4256TIP3    H134327   1.673   4.740   7.396 -2.4141  2.0350 -0.1560
 4256TIP3    H234328   1.806   4.810   7.381 -0.5279 -1.6658 -1.8195
 4257TIP3   OH234329   3.057   3.485   7.132  0.7294  0.2058 -0.2732
 4257TIP3    H134330   3.001   3.416   7.166 -0.1466  0.9205 -0.2294
 4257TIP3    H234331   3.140   3.441   7.113  1.5272 -0.1720  3.3617
 4258TIP3   OH234332   6.935   1.663   0.820 -0.2526  0.1311 -0.5826
 4258TIP3    H134333   7.007   1.626   0.871 -0.3710  2.1014  1.1479
 4258TIP3    H234334   6.856   1.626   0.859 -0.4296  2.6615  1.7968
 4259TIP3   OH234335   4.843   7.147   7.338  0.5670  0.2946 -0.5215
 4259TIP3    H134336   4.847   7.114   7.428 -0.1159  0.2538 -0.5005
 4259TIP3    H234337   4.932   7.138   7.305  0.4051 -1.6929 -0.5570
 4260TIP3   OH234338   0.805   3.913   0.556 -0.0038 -0.8144  0.3471
 4260TIP3    H134339   0.839   3.926   0.467 -1.2803  2.8179  0.2383
 4260TIP3    H234340   0.727   3.859   0.543  0.5727 -1.4655 -0.5524
 4261TIP3   OH234341   1.621   6.267   1.944  0.1295  0.0545  0.8170
 4261TIP3    H134342   1.641   6.239   2.033  1.1585  0.6369  0.7836
 4261TIP3    H234343   1.544   6.322   1.953 -0.1477 -0.4004  1.2657
 4262TIP3   OH234344   4.846   2.263   7.685  0.2944  0.3402  0.3576
 4262TIP3    H134345   4.923   2.312   7.655 -0.0069 -0.5298 -2.0045
 4262TIP3    H234346   4.874   2.171   7.685 -0.5958  0.0633 -0.0285
 4263TIP3   OH234347   0.088   0.154   0.596  0.3072  0.3197  0.0902
 4263TIP3    H134348   0.149   0.202   0.540 -1.3703  2.6975  0.1523
 4263TIP3    H234349   0.070   0.213   0.669  0.8747 -1.8905  2.1722
 4264TIP3   OH234350   5.546   6.084   1.167 -0.2794 -0.2206 -0.0020
 4264TIP3    H134351   5.516   6.139   1.239 -0.8846 -1.4752  0.7546
 4264TIP3    H234352   5.490   6.108   1.093  0.2319  0.9606 -0.0255
 4265TIP3   OH234353   4.247   0.688   7.900  0.5365 -0.0524  0.1011
 4265TIP3    H134354   4.285   0.768   7.863 -3.1425  0.9454 -2.1153
 4265TIP3    H234355   4.190   0.719   7.970 -0.2408 -0.8024 -0.1830
 4266TIP3   OH234356   6.458   2.737   7.004 -0.4300  0.7032  0.1462
 4266TIP3    H134357   6.430   2.723   6.913 -0.6042 -2.8180  0.6032
 4266TIP3    H234358   6.383   2.709   7.057  0.5422  0.3288  1.3789
 4267TIP3   OH234359   2.615   1.530   0.671  0.5210  0.4838  0.7228
 4267TIP3    H134360   2.566   1.587   0.731  0.9702  0.6230  0.9637
 4267TIP3    H234361   2.661   1.590   0.613 -1.4792  0.3649 -1.1015
 4268TIP3   OH234362   6.071   0.939   7.868  0.0023 -0.2106  0.1146
 4268TIP3    H134363   6.012   0.968   7.800  0.7150  1.8253  0.2930
 4268TIP3    H234364   6.131   0.879   7.824 -0.5825 -0.2462 -0.6493
 4269TIP3   OH234365   5.690   0.231   7.301 -0.6669 -0.2070 -0.0824
 4269TIP3    H134366   5.686   0.268   7.389 -1.8289  1.2779 -0.7086
 4269TIP3    H234367   5.708   0.138   7.314 -1.4228 -0.1269  1.7317
 4270TIP3   OH234368   3.658   2.917   1.614  0.4810 -0.0236  0.0018
 4270TIP3    H134369   3.654   3.003   1.656 -0.9957 -0.3818  0.6812
 4270TIP3    H234370   3.662   2.854   1.686  0.8770 -0.5481 -0.4662
 4271TIP3   OH234371   5.911   1.796   1.181  0.0506  0.5393  0.1981
 4271TIP3    H134372   5.850   1.724   1.164 -1.4488  2.1224 -1.6015
 4271TIP3    H234373   5.983   1.755   1.230 -2.6556 -1.3221  3.0179
 4272TIP3   OH234374   0.382   4.925   0.705 -0.2655  0.6474  0.2023
 4272TIP3    H134375   0.458   4.961   0.751 -1.4789  3.3087  0.3154
 4272TIP3    H234376   0.359   4.846   0.754  3.4633 -1.4010 -0.9518
 4273TIP3   OH234377   5.516   4.262   7.421 -0.3648 -0.1741 -0.0665
 4273TIP3    H134378   5.447   4.301   7.475 -1.7851 -5.8212  2.9380
 4273TIP3    H234379   5.471   4.238   7.340 -0.2855  1.3262 -0.5871
 4274TIP3   OH234380   4.207   0.014   0.970  0.0456 -0.2255 -0.1214
 4274TIP3    H134381   4.208  -0.081   0.956  0.6711 -0.1735 -0.4875
 4274TIP3    H234382   4.241   0.025   1.059  2.8731 -0.2231 -1.1064
 4275TIP3   OH234383   3.461   6.194   7.343  0.1471  0.1117  0.3908
 4275TIP3    H134384   3.448   6.110   7.299  0.3304  0.5198 -0.4644
 4275TIP3    H234385   3.481   6.171   7.434  1.2266 -0.8219 -0.0649
 4276TIP3   OH234386   2.397   5.491   0.605  0.5451 -0.4197 -0.0507
 4276TIP3    H134387   2.355   5.409   0.631 -1.0042 -0.2617 -1.8235
 4276TIP3    H234388   2.456   5.465   0.534 -1.7914  0.1912 -2.3971
 4277TIP3   OH234389   5.711   5.930   6.725 -0.6682 -0.1323  0.1117
 4277TIP3    H134390   5.707   5.841   6.760  1.8252  0.0317  1.0182
 4277TIP3    H234391   5.734   5.919   6.633 -0.9668 -0.4107  0.0654
 4278TIP3   OH234392   0.589   2.272   1.315 -0.0873  0.1753  0.1109
 4278TIP3    H134393   0.663   2.250   1.371 -0.3649  1.0086  0.8263
 4278TIP3    H234394   0.568   2.190   1.270  0.7462 -0.2676  0.5053
 4279TIP3   OH234395   2.238   2.139   0.557 -0.2364 -0.0884 -0.4195
 4279TIP3    H134396   2.201   2.104   0.476 -2.7118  0.1939  0.5028
 4279TIP3    H234397   2.223   2.233   0.552  0.7257  0.0942 -0.1375
 4280TIP3   OH234398   3.969   6.944   0.903  0.3606 -0.4662  0.0254
 4280TIP3    H134399   4.054   6.921   0.940  1.0193  0.0222 -1.1460
 4280TIP3    H234400   3.978   6.929   0.809 -0.5997  0.3259 -0.2183
 4281TIP3   OH234401   0.289   4.801   6.276 -0.0279 -0.3023  0.2705
 4281TIP3    H134402   0.224   4.732   6.264  2.2624 -2.8819  1.4733
 4281TIP3    H234403   0.334   4.807   6.191  0.1719 -0.7599  0.3423
 4282TIP3   OH234404   6.449   5.302   2.502 -0.0936  0.4438  0.0169
 4282TIP3    H134405   6.526   5.354   2.479  0.2391 -0.5248 -1.1767
 4282TIP3    H234406   6.479   5.211   2.497 -1.3842  0.0339 -0.8403
 4283TIP3   OH234407   4.610   6.651   6.218  0.2949  0.2250  0.1366
 4283TIP3    H134408   4.568   6.642   6.304  0.5212 -1.8433  0.0634
 4283TIP3    H234409   4.556   6.598   6.159  0.0551  1.7387 -1.0704
 4284TIP3   OH234410   5.790   0.195   7.001  0.2071 -0.2290 -0.3318
 4284TIP3    H134411   5.854   0.129   7.029  0.6092  0.4514  0.4114
 4284TIP3    H234412   5.727   0.198   7.073  1.1573  1.4203  0.4818
 4285TIP3   OH234413   7.131   2.217   6.609  0.5524  0.0263  0.2291
 4285TIP3    H134414   7.189   2.274   6.559 -1.1755  1.1889 -0.5371
 4285TIP3    H234415   7.077   2.277   6.660 -3.4637 -0.5325 -2.9007
 4286TIP3   OH234416   0.498   4.276   7.324 -0.0871 -0.1482 -0.2039
 4286TIP3    H134417   0.527   4.196   7.280 -2.7508 -1.2752 -0.1207
 4286TIP3    H234418   0.579   4.322   7.347  1.5022 -2.1808 -1.3841
 4287TIP3   OH234419   6.037   5.481   7.924  0.5761 -0.9176  0.2264
 4287TIP3    H134420   6.130   5.502   7.922  0.2459  0.6554  0.3864
 4287TIP3    H234421   5.995   5.552   7.876 -0.8267  0.0302  2.6929
 4288TIP3   OH234422   0.400   0.882   7.748  0.1901 -0.0309 -0.0964
 4288TIP3    H134423   0.332   0.940   7.712  0.1813  0.4716  0.7120
 4288TIP3    H234424   0.351   0.806   7.779  0.3725 -1.4467 -2.9220
 4289TIP3   OH234425   4.563   5.164   2.034  0.1756  0.1839  0.4027
 4289TIP3    H134426   4.494   5.230   2.022 -1.6750 -1.7362 -0.2254
 4289TIP3    H234427   4.635   5.196   1.980 -1.6371  0.4555 -2.0817
 4290TIP3   OH234428   6.373   6.903   0.589  0.8172  0.0544 -0.1994
 4290TIP3    H134429   6.429   6.966   0.635  1.1388 -0.6777  0.4237
 4290TIP3    H234430   6.435   6.850   0.538  0.4485  1.0352 -1.7291
 4291TIP3   OH234431   4.764   5.431   1.264 -0.1510  0.4831  0.2355
 4291TIP3    H134432   4.772   5.448   1.358  1.6812 -2.2659  0.6940
 4291TIP3    H234433   4.719   5.346   1.259  0.7089  0.0909 -1.3199
 4292TIP3   OH234434   1.820   7.118   1.286  0.4007  0.0276 -0.2947
 4292TIP3    H134435   1.796   7.119   1.379 -0.6709 -1.0229 -0.5295
 4292TIP3    H234436   1.796   7.205   1.254 -0.5808 -0.0751  0.1073
 4293TIP3   OH234437   0.755   0.896   0.196  0.4127 -0.8185  0.2281
 4293TIP3    H134438   0.735   0.987   0.176 -0.8751 -1.0353  0.4101
 4293TIP3    H234439   0.725   0.847   0.120  1.4192 -1.0666 -0.0192
 4294TIP3   OH234440   2.202   5.684   0.150  0.3882 -0.4489 -0.0040
 4294TIP3    H134441   2.142   5.609   0.153 -0.8593  0.4651 -0.9409
 4294TIP3    H234442   2.209   5.713   0.241 -2.5996  0.8941 -0.0972
 4295TIP3   OH234443   0.209   7.129   1.270 -0.0817 -0.2963  0.5495
 4295TIP3    H134444   0.173   7.202   1.320  1.2846  0.7678  0.0576
 4295TIP3    H234445   0.187   7.150   1.179  1.2769  0.1232  0.2926
 4296TIP3   OH234446   1.491   3.044   0.351 -0.1511  0.3773  0.4171
 4296TIP3    H134447   1.473   3.048   0.445 -1.6937 -0.2118  0.1716
 4296TIP3    H234448   1.451   3.123   0.315 -1.5648 -0.4900 -0.0122
 4297TIP3   OH234449   1.435   6.048   0.184 -0.4658  0.0930 -0.2233
 4297TIP3    H134450   1.405   6.125   0.232  0.4125  1.1339 -1.2712
 4297TIP3    H234451   1.455   5.984   0.251 -2.0423  0.4619  0.6320
 4298TIP3   OH234452   4.637   0.210   6.381  0.0453 -0.5133 -0.0084
 4298TIP3    H134453   4.676   0.238   6.299  1.6358  0.5186  1.0515
 4298TIP3    H234454   4.687   0.255   6.449 -1.5724 -0.8956  1.5294
 4299TIP3   OH234455   3.871   5.164   5.820 -0.6928  0.3271 -0.1782
 4299TIP3    H134456   3.893   5.257   5.832  1.3608 -0.0581 -0.4681
 4299TIP3    H234457   3.930   5.118   5.880  1.6210 -0.9884 -3.1636
 4300TIP3   OH234458   4.128   0.780   0.434 -0.0888  0.1016 -0.1449
 4300TIP3    H134459   4.034   0.764   0.422 -0.3656  1.5188 -0.0179
 4300TIP3    H234460   4.146   0.747   0.522 -0.7248  0.8228  0.2668
 4301TIP3   OH234461   5.849   2.864   6.551 -0.1040 -0.3743 -0.1240
 4301TIP3    H134462   5.905   2.795   6.516  0.8159  0.3131 -0.0448
 4301TIP3    H234463   5.820   2.831   6.636  2.6635  0.4517  1.2644
 4302TIP3   OH234464   6.588   6.012   0.792 -0.0968 -0.0851  0.2626
 4302TIP3    H134465   6.618   5.962   0.868  1.4987 -0.0825 -0.3069
 4302TIP3    H234466   6.521   6.070   0.826  0.0050 -0.6628  1.5061
 4303TIP3   OH234467   2.433   2.525   7.971 -0.0663 -0.0398  0.6507
 4303TIP3    H134468   2.441   2.485   7.885 -0.2628  0.2653  0.4900
 4303TIP3    H234469   2.524   2.542   7.998 -0.0594  1.4000 -0.2175
 4304TIP3   OH234470   4.801   1.159   7.470 -0.1827  0.7090  0.4802
 4304TIP3    H134471   4.824   1.107   7.547 -0.7578  0.8937  0.7859
 4304TIP3    H234472   4.711   1.188   7.487 -0.9195 -0.5693 -0.9828
 4305TIP3   OH234473   4.215   3.157   0.271  0.1232 -0.6912 -0.1779
 4305TIP3    H134474   4.167   3.232   0.236  0.7444 -0.6481 -0.9692
 4305TIP3    H234475   4.154   3.084   0.265 -0.5565 -0.2085  0.7954
 4306TIP3   OH234476   5.145   4.676   0.499 -0.3786  0.0365  0.3555
 4306TIP3    H134477   5.185   4.763   0.503 -1.8422  0.7634 -0.1334
 4306TIP3    H234478   5.217   4.617   0.476  0.2473  1.4189 -1.4690
 4307TIP3   OH234479   0.775   6.441   5.660 -0.3783  0.4827  0.5098
 4307TIP3    H134480   0.786   6.385   5.583  0.2795  1.0460  0.1812
 4307TIP3    H234481   0.848   6.418   5.717 -1.5924 -0.8670  1.5812
 4308TIP3   OH234482   1.258   3.008   7.267 -0.1008  0.7610  0.0840
 4308TIP3    H134483   1.197   2.995   7.340  1.3418  1.2110  1.4388
 4308TIP3    H234484   1.334   3.051   7.307  1.9148 -1.4239 -1.1017
 4309TIP3   OH234485   4.654   5.959   6.864 -0.4815  0.6385 -0.3457
 4309TIP3    H134486   4.694   5.873   6.867  1.4363  1.3889 -2.0886
 4309TIP3    H234487   4.727   6.020   6.853 -1.9607  2.1999 -2.3185
 4310TIP3   OH234488   1.473   1.515   1.247 -0.0516  0.0870  0.3410
 4310TIP3    H134489   1.510   1.448   1.304  0.2854 -1.1429 -1.2369
 4310TIP3    H234490   1.526   1.593   1.262 -0.3525 -0.0176  2.1095
 4311TIP3   OH234491   5.295   0.695   7.363  0.0794 -0.1177 -0.5047
 4311TIP3    H134492   5.389   0.696   7.381  0.2251  0.5951 -1.2462
 4311TIP3    H234493   5.264   0.779   7.396 -0.2358 -0.1957 -0.6010
 4312TIP3   OH234494   0.974   7.013   5.946  0.0381  0.0002  0.3441
 4312TIP3    H134495   0.944   6.937   5.996  0.9710 -0.5856  0.0443
 4312TIP3    H234496   0.914   7.017   5.871 -0.3893 -0.0621  0.6760
 4313TIP3   OH234497   6.073   3.899   6.304 -0.5727  0.3566 -0.2130
 4313TIP3    H134498   6.029   3.908   6.389 -0.8789 -0.1296 -0.3176
 4313TIP3    H234499   6.117   3.983   6.291 -0.8081  0.5581  0.2684
 4314TIP3   OH234500   5.428   3.498   1.267  0.8843  0.1032 -0.3433
 4314TIP3    H134501   5.407   3.543   1.185 -0.1988  1.2379  0.5310
 4314TIP3    H234502   5.376   3.543   1.334  2.0620 -0.5228  1.0473
 4315TIP3   OH234503   6.911   5.164   6.417 -0.2686  0.0965  0.4970
 4315TIP3    H134504   6.934   5.081   6.376 -1.1411 -0.4575  1.0738
 4315TIP3    H234505   6.953   5.161   6.503  1.0689  0.9938 -0.1010
 4316TIP3   OH234506   0.013   5.638   7.936 -0.1372 -0.1756  0.9272
 4316TIP3    H134507   0.060   5.644   8.020  0.7229 -0.5148  0.4837
 4316TIP3    H234508  -0.022   5.549   7.936  1.3970 -0.8213  0.1628
 4317TIP3   OH234509   4.842   3.721   6.908  0.3006 -0.2521  0.0500
 4317TIP3    H134510   4.839   3.799   6.964 -1.3035  0.4508 -0.9405
 4317TIP3    H234511   4.782   3.659   6.950  3.5043 -2.1367  2.3248
 4318TIP3   OH234512   3.352   4.155   5.982  0.0417  0.3543  0.5583
 4318TIP3    H134513   3.319   4.069   6.009 -2.6785  0.7859 -0.9957
 4318TIP3    H234514   3.419   4.135   5.917  0.1005 -0.5729  0.8754
 4319TIP3   OH234515   2.503   5.301   7.994  0.3657  0.2289  0.2464
 4319TIP3    H134516   2.452   5.276   7.917  0.4654  1.1914 -0.1522
 4319TIP3    H234517   2.594   5.294   7.966  0.4686 -1.1086  0.8365
 4320TIP3   OH234518   1.695   6.721   1.384 -0.8590 -0.4768  0.0500
 4320TIP3    H134519   1.641   6.796   1.411  0.0916  0.3151 -0.1781
 4320TIP3    H234520   1.691   6.661   1.459  0.2505  0.8702  1.2620
 4321TIP3   OH234521   5.380   3.436   7.586  0.6822  0.0594  0.3651
 4321TIP3    H134522   5.351   3.517   7.542 -0.2471  0.0542  0.9369
 4321TIP3    H234523   5.353   3.366   7.527  0.5898  0.1183  0.3364
 4322TIP3   OH234524   0.882   5.038   8.008 -0.1742 -0.0624 -0.4242
 4322TIP3    H134525   0.964   4.994   7.987  1.3620  1.2678  2.2665
 4322TIP3    H234526   0.907   5.129   8.027 -1.8647 -0.0770  2.4797
 4323TIP3   OH234527   4.621   4.720   0.372 -0.1379  0.6623 -0.0822
 4323TIP3    H134528   4.658   4.746   0.456 -0.0067 -0.9653  0.3996
 4323TIP3    H234529   4.690   4.739   0.309 -0.3879  2.2713  0.0901
 4324TIP3   OH234530   1.983   0.013   0.980  0.7070  0.3771  0.1991
 4324TIP3    H134531   1.901   0.057   0.957  0.8674  1.4192  1.4967
 4324TIP3    H234532   2.047   0.048   0.918  0.4169  0.4199 -0.0826
 4325TIP3   OH234533   3.513   5.792   6.714 -0.0176  0.0568 -0.3586
 4325TIP3    H134534   3.580   5.828   6.772  1.1701  0.4338 -1.9030
 4325TIP3    H234535   3.489   5.865   6.657 -1.0773 -0.3297 -0.4315
 4326TIP3   OH234536   4.837   3.407   1.985  0.2577  0.2672 -0.8181
 4326TIP3    H134537   4.903   3.357   1.936 -1.0608 -1.3338 -1.0358
 4326TIP3    H234538   4.764   3.347   1.995 -0.3649  1.2786  1.2915
 4327TIP3   OH234539   1.231   0.769   7.561 -0.1536 -0.3785  0.0096
 4327TIP3    H134540   1.164   0.703   7.578 -1.9264  1.3553  0.0425
 4327TIP3    H234541   1.219   0.834   7.630  1.7656 -0.1453  0.1655
 4328TIP3   OH234542   0.724   5.665   7.743 -0.0075  0.2849  0.0518
 4328TIP3    H134543   0.785   5.718   7.795  0.5331 -1.2737  1.0416
 4328TIP3    H234544   0.750   5.682   7.652  2.8490 -1.3418  0.4556
 4329TIP3   OH234545   2.548   0.788   6.796 -0.2098 -0.2472 -0.3109
 4329TIP3    H134546   2.586   0.703   6.775  0.3509 -0.1539  0.2847
 4329TIP3    H234547   2.618   0.851   6.779 -1.2492  0.3510 -2.7139
 4330TIP3   OH234548   4.403   3.727   7.703 -0.0147 -0.5714  0.1049
 4330TIP3    H134549   4.329   3.741   7.644 -0.2333 -1.0498  0.2605
 4330TIP3    H234550   4.387   3.641   7.741  1.7104 -1.6695 -1.4504
 4331TIP3   OH234551   4.212   5.683   7.311 -0.6839 -0.4282  0.4698
 4331TIP3    H134552   4.194   5.604   7.261  0.7248 -0.2931 -0.3031
 4331TIP3    H234553   4.308   5.685   7.319 -0.7169  1.0152  0.7634
 4332TIP3   OH234554   1.324   1.510   6.698 -0.4988 -0.1219 -0.3675
 4332TIP3    H134555   1.274   1.586   6.668 -1.2668 -0.6681 -0.5055
 4332TIP3    H234556   1.415   1.532   6.679 -0.6867  0.8676 -0.1657
 4333TIP3   OH234557   6.143   3.083   1.146  0.2048  0.0831 -0.2643
 4333TIP3    H134558   6.209   3.148   1.170  1.5996 -1.1335 -0.6855
 4333TIP3    H234559   6.064   3.111   1.193  2.0553 -0.7246  3.7402
 4334TIP3   OH234560   1.944   2.300   1.601 -0.4465 -0.5120  0.4804
 4334TIP3    H134561   1.872   2.303   1.537 -0.5678 -1.6936  0.5313
 4334TIP3    H234562   1.994   2.380   1.585 -1.7654  0.3294  0.4311
 4335TIP3   OH234563   1.941   2.201   1.136 -0.2713  0.5038 -0.4952
 4335TIP3    H134564   1.914   2.242   1.054 -0.1488  0.2689 -0.6551
 4335TIP3    H234565   2.037   2.198   1.131  0.0349  3.4648  1.0741
 4336TIP3   OH234566   4.634   4.832   0.649 -0.0809 -0.2572  0.1345
 4336TIP3    H134567   4.600   4.763   0.706 -1.8920  0.9604  0.6041
 4336TIP3    H234568   4.608   4.914   0.693 -1.1477  0.7286 -2.1972
 4337TIP3   OH234569   4.131   2.725   2.269  0.4947  0.0530 -0.1669
 4337TIP3    H134570   4.040   2.728   2.297  0.7739  2.6466  0.7025
 4337TIP3    H234571   4.145   2.807   2.221  2.4299 -0.1742 -0.0967
 4338TIP3   OH234572   3.917   1.585   7.376 -0.2451  0.5237  0.1292
 4338TIP3    H134573   3.886   1.496   7.358 -0.3917  0.6414 -0.2184
 4338TIP3    H234574   3.967   1.577   7.457 -0.5488  0.1888  0.2878
 4339TIP3   OH234575   4.517   2.790   0.240  0.2725  0.7937  0.0917
 4339TIP3    H134576   4.514   2.859   0.174  0.2516 -0.6743 -1.5374
 4339TIP3    H234577   4.596   2.809   0.291 -1.2135  3.5675  1.5879
 4340TIP3   OH234578   4.308   4.595   5.842 -0.3496 -0.4213  0.9493
 4340TIP3    H134579   4.278   4.510   5.875 -0.0438 -0.3821  1.3447
 4340TIP3    H234580   4.239   4.623   5.782 -0.2712 -1.1254  0.5112
 4341TIP3   OH234581   7.029   5.842   0.896 -0.1510 -0.3474 -0.0389
 4341TIP3    H134582   7.085   5.772   0.931 -0.6729 -0.7780 -0.0499
 4341TIP3    H234583   6.978   5.872   0.971 -1.4046 -1.3974 -0.4356
 4342TIP3   OH234584   1.373   0.548   6.886 -0.3435  0.0076 -0.3358
 4342TIP3    H134585   1.450   0.605   6.879  0.5084 -0.9142  1.1385
 4342TIP3    H234586   1.402   0.464   6.849  0.0938 -0.9811  2.0729
 4343TIP3   OH234587   4.820   0.923   1.125 -0.8107 -0.0408 -0.3154
 4343TIP3    H134588   4.808   0.835   1.091 -2.0913 -0.1225  0.2804
 4343TIP3    H234589   4.746   0.973   1.089 -1.0973  0.3337  0.7519
 4344TIP3   OH234590   3.188   5.926   1.222  0.1131  0.8001 -0.1163
 4344TIP3    H134591   3.280   5.950   1.209  0.1866  0.6425  0.1090
 4344TIP3    H234592   3.191   5.835   1.253 -0.1978  0.1702 -1.8023
 4345TIP3   OH234593   5.255   6.240   6.097 -0.1140  0.8295  0.1135
 4345TIP3    H134594   5.199   6.191   6.037  0.4939 -0.4283  0.5360
 4345TIP3    H234595   5.203   6.317   6.121 -0.1989  1.6325 -2.3545
 4346TIP3   OH234596   1.397   6.790   0.793  0.4616 -0.1535 -0.0014
 4346TIP3    H134597   1.474   6.839   0.822  0.2597 -0.0207  0.3280
 4346TIP3    H234598   1.422   6.751   0.710  0.6650  0.4210 -0.2124
 4347TIP3   OH234599   5.175   4.732   7.182 -0.5668  0.2492 -0.0275
 4347TIP3    H134600   5.197   4.811   7.232 -0.2400  1.3235 -1.7804
 4347TIP3    H234601   5.084   4.744   7.157 -0.1756  0.6935 -1.3207
 4348TIP3   OH234602   3.907   6.660   7.443  0.4934 -0.1228 -0.2006
 4348TIP3    H134603   3.897   6.738   7.497  0.6572 -1.0832  1.2632
 4348TIP3    H234604   3.999   6.660   7.417  0.5623  0.0224  0.0427
 4349TIP3   OH234605   2.756   4.683   7.235  0.0385  0.0629  0.0988
 4349TIP3    H134606   2.789   4.768   7.266  0.1860  0.3478 -0.8192
 4349TIP3    H234607   2.673   4.703   7.192  0.0747 -0.2575 -0.1249
 4350TIP3   OH234608   1.315   0.360   7.148 -0.1372 -0.2765  0.0760
 4350TIP3    H134609   1.231   0.392   7.117  0.5527  1.7423  0.1189
 4350TIP3    H234610   1.379   0.398   7.087  0.9050  0.2867  1.4724
 4351TIP3   OH234611   6.241   0.656   1.179 -0.2150 -0.7210 -0.4661
 4351TIP3    H134612   6.327   0.695   1.194  0.8889 -3.0307 -0.3430
 4351TIP3    H234613   6.237   0.582   1.239 -3.5287  0.9075  1.6224
 4352TIP3   OH234614   4.001   0.563   1.651  0.3877 -0.0317 -0.3063
 4352TIP3    H134615   4.043   0.491   1.604  0.7192 -0.3680  0.4809
 4352TIP3    H234616   3.992   0.531   1.741 -0.5072  0.4785 -0.1980
 4353TIP3   OH234617   7.041   4.013   0.935  0.1244  0.4198  0.5387
 4353TIP3    H134618   7.118   4.049   0.891 -0.8018  0.6759 -0.9790
 4353TIP3    H234619   7.026   4.070   1.010 -1.1711  3.2381 -1.6486
 4354TIP3   OH234620   1.637   0.650   7.637 -0.3470  0.7357  0.2132
 4354TIP3    H134621   1.705   0.714   7.614 -0.7962  1.7604  1.6082
 4354TIP3    H234622   1.636   0.649   7.733 -0.6423 -1.0830  0.2374
 4355TIP3   OH234623   4.444   6.695   6.453  0.0281  0.5823  0.0740
 4355TIP3    H134624   4.380   6.765   6.437 -1.8225 -0.5932  1.8794
 4355TIP3    H234625   4.390   6.618   6.472  2.0044 -1.2345 -1.2656
 4356TIP3   OH234626   6.470   4.054   6.960 -0.2626 -0.7216  0.4666
 4356TIP3    H134627   6.407   4.083   7.025 -0.7034 -0.0636 -0.2444
 4356TIP3    H234628   6.418   4.034   6.883  0.3466 -0.6129  0.0196
 4357TIP3   OH234629   0.243   3.731   1.065  0.3121  0.0073 -0.4264
 4357TIP3    H134630   0.263   3.642   1.036  0.5080  0.3388 -1.3429
 4357TIP3    H234631   0.280   3.788   0.997  0.5351  0.8054  0.3459
 4358TIP3   OH234632   4.401   5.171   1.405 -0.0523 -0.1133  0.5506
 4358TIP3    H134633   4.418   5.153   1.497 -1.0979  0.1246  0.8110
 4358TIP3    H234634   4.310   5.144   1.392  0.4827 -1.3960 -0.7611
 4359TIP3   OH234635   7.014   7.105   6.902  0.0105 -0.6205 -0.6191
 4359TIP3    H134636   7.025   7.122   6.809 -0.4696 -1.7846 -0.8986
 4359TIP3    H234637   6.924   7.074   6.910 -0.2855  0.4256  0.3843
 4360TIP3   OH234638   5.158   6.692   7.329 -0.1531 -0.9135 -0.2271
 4360TIP3    H134639   5.186   6.673   7.239 -0.0281 -0.2101 -0.3404
 4360TIP3    H234640   5.072   6.733   7.319  0.2038 -0.1164 -0.0754
 4361TIP3   OH234641   2.541   0.584   6.197 -0.2028 -0.3471  0.8527
 4361TIP3    H134642   2.540   0.677   6.175  0.4495 -0.2597  1.1879
 4361TIP3    H234643   2.521   0.540   6.115 -1.0330  0.1031  0.7981
 4362TIP3   OH234644   6.575   6.959   5.549 -0.1659  0.2651 -0.3652
 4362TIP3    H134645   6.566   7.022   5.478 -1.7725  0.2730 -0.1856
 4362TIP3    H234646   6.568   7.012   5.629  2.2523  0.3528 -0.1313
 4363TIP3   OH234647   1.731   5.497   0.970  0.1299  0.6842 -0.4822
 4363TIP3    H134648   1.639   5.474   0.961  0.1523  0.0952  0.5624
 4363TIP3    H234649   1.734   5.550   1.051  0.8166 -0.0203 -0.0366
 4364TIP3   OH234650   3.313   0.246   7.937 -0.4169 -0.2398  0.2010
 4364TIP3    H134651   3.355   0.179   7.992 -2.1066 -1.2833  0.2986
 4364TIP3    H234652   3.226   0.210   7.918 -0.8325  1.2929 -0.9831
 4365TIP3   OH234653   4.185   3.927   0.134  0.4903  0.0347 -0.1112
 4365TIP3    H134654   4.155   3.929   0.043  0.5899 -1.7673 -0.2234
 4365TIP3    H234655   4.234   4.009   0.145 -2.1275  1.7832 -0.6987
 4366TIP3   OH234656   6.779   1.698   0.179 -0.2577  0.5845  0.1175
 4366TIP3    H134657   6.741   1.733   0.098 -1.1026  0.9276  0.6412
 4366TIP3    H234658   6.808   1.775   0.227 -0.7518  0.4648  0.6152
 4367TIP3   OH234659   7.053   6.831   7.315 -0.0296  0.6872 -0.0391
 4367TIP3    H134660   7.107   6.875   7.250  1.1104 -0.2315  0.2470
 4367TIP3    H234661   7.002   6.768   7.264  1.4194 -0.5687  0.0011
 4368TIP3   OH234662   6.911   4.561   7.482  0.9999 -0.1636 -0.4299
 4368TIP3    H134663   6.932   4.477   7.442  3.7321  0.7815 -1.2480
 4368TIP3    H234664   6.980   4.574   7.548 -0.3640  0.6957  0.8896
 4369TIP3   OH234665   4.532   5.931   1.327 -0.2612 -0.5521 -0.4941
 4369TIP3    H134666   4.553   5.997   1.261  2.7637 -1.1474 -0.2647
 4369TIP3    H234667   4.580   5.853   1.300 -0.3510 -1.3439  1.4519
 4370TIP3   OH234668   3.854   0.713   1.130  0.5938 -0.7991  0.6768
 4370TIP3    H134669   3.926   0.725   1.192  0.5422  1.3113  0.3768
 4370TIP3    H234670   3.779   0.755   1.171  1.2637  3.6482 -1.9887
 4371TIP3   OH234671   2.709   6.399   6.288 -0.7785  0.2132 -0.0457
 4371TIP3    H134672   2.696   6.426   6.379  0.9847 -0.0522  0.3333
 4371TIP3    H234673   2.634   6.343   6.268  0.2330 -2.1961  2.2675
 4372TIP3   OH234674   7.015   0.712   6.440 -0.5879 -0.7488 -0.3151
 4372TIP3    H134675   7.013   0.701   6.535 -0.6291 -4.8105 -0.6339
 4372TIP3    H234676   6.926   0.739   6.417 -0.6115  0.1506  0.7503
 4373TIP3   OH234677   5.823   0.533   0.773  0.2790 -0.7211  0.8083
 4373TIP3    H134678   5.830   0.611   0.719 -0.9211 -1.2070 -0.0764
 4373TIP3    H234679   5.774   0.561   0.851 -0.4256 -0.6616  0.3467
 4374TIP3   OH234680   3.563   3.423   7.173 -0.0273  0.1752  0.1154
 4374TIP3    H134681   3.618   3.347   7.190 -1.8919 -1.8742 -2.3413
 4374TIP3    H234682   3.474   3.394   7.194 -0.7451  1.8822 -0.3652
 4375TIP3   OH234683   4.216   4.492   7.290  0.4372  0.4598  0.1174
 4375TIP3    H134684   4.185   4.512   7.378  2.0003  1.2427  0.5373
 4375TIP3    H234685   4.210   4.575   7.243 -0.0866  0.1193 -0.4270
 4376TIP3   OH234686   5.969   7.089   0.222  0.3821  0.0148  0.0401
 4376TIP3    H134687   5.970   7.040   0.304 -0.4054  0.3370  0.2465
 4376TIP3    H234688   5.958   7.021   0.155 -0.1191 -0.1495  0.2839
 4377TIP3   OH234689   0.821   3.892   6.789  0.3149  0.4983 -0.5814
 4377TIP3    H134690   0.815   3.904   6.694  2.0464  1.0601 -0.6397
 4377TIP3    H234691   0.754   3.950   6.825 -1.0818 -0.4981 -1.4628
 4378TIP3   OH234692   2.042   2.051   7.382 -0.2903 -0.1272 -0.3257
 4378TIP3    H134693   2.115   2.100   7.345 -1.0688  0.7039 -0.8279
 4378TIP3    H234694   1.972   2.061   7.317 -0.3502 -2.3062 -0.6773
 4379TIP3   OH234695   6.246   3.553   7.680 -0.0741  0.0549 -0.4380
 4379TIP3    H134696   6.330   3.522   7.715  0.8844  1.6976 -1.1348
 4379TIP3    H234697   6.240   3.513   7.594  0.4231  0.5745 -0.7228
 4380TIP3   OH234698   4.777   6.876   0.825 -0.5384 -0.2538  0.4320
 4380TIP3    H134699   4.816   6.854   0.910  2.1767  0.1122 -0.6186
 4380TIP3    H234700   4.831   6.830   0.761 -0.3627  2.1228 -1.2843
 4381TIP3   OH234701   0.260   3.031   7.057  0.3126 -0.2172  0.3366
 4381TIP3    H134702   0.289   2.987   7.138 -1.3260 -0.9554  0.5747
 4381TIP3    H234703   0.228   2.959   7.002 -0.0710  0.4459 -0.3135
 4382TIP3   OH234704   3.430   3.207   1.097  0.6485 -0.0595 -0.5762
 4382TIP3    H134705   3.458   3.191   1.187  0.9860  1.8538 -0.2911
 4382TIP3    H234706   3.339   3.236   1.105  0.4743 -0.5053 -0.9124
 4383TIP3   OH234707   5.079   1.131   7.343  0.1026 -0.6953 -0.0130
 4383TIP3    H134708   5.104   1.215   7.305  1.7617 -1.4887 -0.7749
 4383TIP3    H234709   5.004   1.151   7.399  0.7770  1.3576  0.2206
 4384TIP3   OH234710   1.252   2.181   0.663 -0.4786 -0.2334 -0.1080
 4384TIP3    H134711   1.271   2.212   0.574 -1.4679 -0.1605 -0.3048
 4384TIP3    H234712   1.157   2.177   0.667 -0.4266 -0.9652  0.7076
 4385TIP3   OH234713   2.468   1.260   1.209 -0.7331  0.7940 -0.1729
 4385TIP3    H134714   2.490   1.174   1.172  1.2817  1.9317 -1.7522
 4385TIP3    H234715   2.401   1.295   1.150 -3.2691 -0.5107  1.7277
 4386TIP3   OH234716   4.581   5.529   7.648  0.0617 -0.4701 -0.4587
 4386TIP3    H134717   4.598   5.605   7.593  3.8438 -0.3482  0.6237
 4386TIP3    H234718   4.556   5.565   7.733 -0.1061 -0.5106 -0.4897
 4387TIP3   OH234719   4.507   2.340   1.394 -0.2767 -0.6450  0.6618
 4387TIP3    H134720   4.543   2.429   1.392  0.2553 -0.8616 -0.6657
 4387TIP3    H234721   4.444   2.340   1.466 -2.4251  1.6384 -1.0525
 4388TIP3   OH234722   3.429   2.256   0.502 -0.1772  0.3945  0.0785
 4388TIP3    H134723   3.501   2.232   0.443  2.0622  2.6629  1.7160
 4388TIP3    H234724   3.423   2.351   0.495 -2.4894  0.3394  0.6697
 4389TIP3   OH234725   3.848   6.530   0.253 -0.4007 -0.5783 -0.4921
 4389TIP3    H134726   3.769   6.576   0.226 -1.8393 -2.3164  0.4558
 4389TIP3    H234727   3.815   6.454   0.302  1.8650 -1.4428 -0.1867
 4390TIP3   OH234728   4.912   5.546   0.086 -0.0130  0.3922  0.2416
 4390TIP3    H134729   4.899   5.532   0.180  1.2799 -0.7334  0.2719
 4390TIP3    H234730   4.918   5.458   0.049 -0.3289  0.8251 -0.8871
 4391TIP3   OH234731   4.677   5.181   1.274  0.0598 -0.2420  0.3384
 4391TIP3    H134732   4.584   5.184   1.296  0.3014 -0.6846  1.5114
 4391TIP3    H234733   4.708   5.101   1.316  0.6650 -0.9491 -1.3498
 4392TIP3   OH234734   0.242   0.645   5.933  0.1485 -0.1049  0.2160
 4392TIP3    H134735   0.235   0.649   5.837 -0.8498  0.8067  0.2986
 4392TIP3    H234736   0.304   0.715   5.955 -1.3532  1.2462  0.3475
 4393TIP3   OH234737   4.686   2.413   7.202  0.5274 -0.1440 -0.1624
 4393TIP3    H134738   4.700   2.338   7.144  1.3566  0.7650 -1.1946
 4393TIP3    H234739   4.594   2.435   7.190  1.0574  1.1134 -2.5775
 4394TIP3   OH234740   2.797   1.644   8.002  0.5318 -0.0878  0.3613
 4394TIP3    H134741   2.830   1.590   7.930 -1.9895  1.4061 -2.1110
 4394TIP3    H234742   2.825   1.733   7.981 -1.5805  0.6181  0.2764
 4395TIP3   OH234743   4.233   5.542   6.863  0.7097  0.3769  0.1065
 4395TIP3    H134744   4.167   5.585   6.919  1.3373  0.6706  0.6385
 4395TIP3    H234745   4.182   5.494   6.798 -0.0211  1.4093 -0.1038
 4396TIP3   OH234746   1.701   0.532   7.879 -0.5027  0.3033 -0.4052
 4396TIP3    H134747   1.766   0.470   7.848 -1.9818 -0.2878 -2.5693
 4396TIP3    H234748   1.676   0.500   7.966  0.5097 -0.6915 -0.4634
 4397TIP3   OH234749   6.018   2.121   0.801  0.4096  0.0482  0.8330
 4397TIP3    H134750   6.104   2.152   0.830  1.1831 -1.3985  0.1612
 4397TIP3    H234751   6.003   2.168   0.719  1.2526 -0.7781  0.1838
 4398TIP3   OH234752   2.830   5.854   6.685  0.2760  0.3065 -0.3513
 4398TIP3    H134753   2.798   5.803   6.611 -0.0234  0.4173 -0.2967
 4398TIP3    H234754   2.886   5.793   6.733 -1.4586 -0.5473  0.6885
 4399TIP3   OH234755   1.416   1.531   7.599 -0.1365 -0.5172 -0.0298
 4399TIP3    H134756   1.405   1.601   7.663 -0.2740  0.2351 -0.8543
 4399TIP3    H234757   1.502   1.495   7.618 -0.0496 -0.1002  0.3877
 4400TIP3   OH234758   0.311   3.715   0.078 -0.3154 -0.0519 -0.0314
 4400TIP3    H134759   0.282   3.625   0.093 -2.9917  1.0009  2.0206
 4400TIP3    H234760   0.257   3.746   0.005 -0.5364  0.3264  0.2865
 4401TIP3   OH234761   0.474   5.354   0.116  0.4068 -0.5240 -0.1507
 4401TIP3    H134762   0.461   5.448   0.122 -0.6571 -0.6353 -0.3942
 4401TIP3    H234763   0.387   5.319   0.095  0.9007 -1.4950 -0.6930
 4402TIP3   OH234764   1.473   1.412   1.015  0.4729  0.1568  0.2040
 4402TIP3    H134765   1.437   1.473   0.950  1.9203  1.4858  0.5687
 4402TIP3    H234766   1.454   1.453   1.099 -0.9514 -1.3083  0.6519
 4403TIP3   OH234767   6.151   2.387   0.647  0.3983 -0.3541  0.0776
 4403TIP3    H134768   6.227   2.348   0.690  1.1294 -1.8787 -2.4218
 4403TIP3    H234769   6.188   2.446   0.581 -0.6852  3.0042  2.2083
 4404TIP3   OH234770   0.689   2.004   0.254  0.2918  0.2964  0.2241
 4404TIP3    H134771   0.594   2.012   0.262  0.1434  0.9151 -1.6453
 4404TIP3    H234772   0.705   1.910   0.247 -0.2704  0.2203 -0.1475
 4405TIP3   OH234773   6.948   3.623   2.061  0.2580 -0.3529 -0.3755
 4405TIP3    H134774   6.939   3.717   2.075  0.4414 -0.2027 -1.2182
 4405TIP3    H234775   6.889   3.583   2.125  0.1219  0.3358 -0.0682
 4406TIP3   OH234776   4.590   0.435   0.837 -0.2017  0.0948 -0.0737
 4406TIP3    H134777   4.499   0.451   0.810  0.3111  0.6562 -1.6361
 4406TIP3    H234778   4.639   0.505   0.793  1.1868 -1.2244 -0.6925
 4407TIP3   OH234779   0.844   1.500   1.918  0.2442  0.1585  0.2449
 4407TIP3    H134780   0.856   1.422   1.973 -0.9092 -1.0678 -1.1404
 4407TIP3    H234781   0.859   1.468   1.829  0.2046  1.6496 -0.3188
 4408TIP3   OH234782   5.588   6.123   7.024 -0.5780 -0.1055 -0.3576
 4408TIP3    H134783   5.541   6.040   7.033  1.6209 -1.3147  0.6882
 4408TIP3    H234784   5.571   6.169   7.107 -2.9397  1.2126 -1.4714
 4409TIP3   OH234785   1.478   2.675   0.761  0.1907 -0.1616 -0.1409
 4409TIP3    H134786   1.437   2.696   0.846  2.1455  0.3412  0.7255
 4409TIP3    H234787   1.560   2.725   0.761 -0.6847  1.5461 -3.2591
 4410TIP3   OH234788   3.240   1.102   0.522 -0.1247  0.1711 -0.0628
 4410TIP3    H134789   3.271   1.116   0.433  1.2768 -2.1341 -0.0160
 4410TIP3    H234790   3.160   1.154   0.528  0.9411  2.2102 -1.8889
 4411TIP3   OH234791   2.692   2.426   1.987  0.0885  0.0927 -0.6891
 4411TIP3    H134792   2.698   2.409   2.081  0.1593 -1.9276 -1.0228
 4411TIP3    H234793   2.598   2.439   1.972  0.1241  0.8591 -0.2808
 4412TIP3   OH234794   4.689   4.857   6.079 -0.2791 -0.3097  0.4651
 4412TIP3    H134795   4.609   4.807   6.062 -0.6365  1.0029 -2.0911
 4412TIP3    H234796   4.658   4.945   6.100  0.4884 -0.0888  0.7130
 4413TIP3   OH234797   3.702   1.764   7.863 -0.1672 -0.2924  0.5260
 4413TIP3    H134798   3.648   1.751   7.786  0.2499 -1.2448  0.3825
 4413TIP3    H234799   3.714   1.676   7.899 -1.0571  0.2105  2.1597
 4414TIP3   OH234800   5.165   0.928   7.977  0.0164 -0.3823 -0.1349
 4414TIP3    H134801   5.237   0.896   7.922  1.3425 -0.5438  1.6087
 4414TIP3    H234802   5.109   0.852   7.990 -1.5402  0.1304 -2.9175
 4415TIP3   OH234803   1.511   3.759   0.644  0.3608  0.1821 -0.6528
 4415TIP3    H134804   1.475   3.847   0.647  1.3766  0.6222 -1.1376
 4415TIP3    H234805   1.556   3.748   0.728 -0.9461 -0.4208  0.0149
 4416TIP3   OH234806   6.344   1.692   6.896 -0.2281  0.0215  0.4094
 4416TIP3    H134807   6.335   1.784   6.870 -1.2860  0.6253  2.6759
 4416TIP3    H234808   6.437   1.681   6.915 -0.3837  1.2102  1.9959
 4417TIP3   OH234809   0.174   0.866   6.966 -0.5963 -0.3144 -0.2061
 4417TIP3    H134810   0.093   0.832   6.928 -2.0561  1.0979  1.4932
 4417TIP3    H234811   0.163   0.961   6.962  1.0618 -0.0967 -0.0515
 4418TIP3   OH234812   3.805   4.792   6.063  0.2269  0.2078  0.1961
 4418TIP3    H134813   3.847   4.847   6.129 -0.7443 -0.1306  1.1123
 4418TIP3    H234814   3.741   4.850   6.021 -1.0819 -0.2662  1.4329
 4419TIP3   OH234815   0.119   7.131   1.006  0.7789  0.1411  0.1322
 4419TIP3    H134816   0.026   7.128   0.985  0.4917 -0.2299  1.3718
 4419TIP3    H234817   0.163   7.116   0.922 -0.2018  2.5348 -0.9023
 4420TIP3   OH234818   3.602   3.108   0.902  0.0885 -0.2752  0.1448
 4420TIP3    H134819   3.553   3.081   0.824 -0.9246  2.0979 -0.1422
 4420TIP3    H234820   3.535   3.126   0.967  0.8966 -1.5750  1.3813
 4421TIP3   OH234821   2.092   1.202   6.407  0.4258  0.3051  0.3207
 4421TIP3    H134822   2.092   1.154   6.489  0.5339  0.0715  0.1863
 4421TIP3    H234823   2.043   1.146   6.346  1.1320  0.0285 -0.0203
 4422TIP3   OH234824   1.814   1.406   7.402  0.2949  0.1558 -0.0712
 4422TIP3    H134825   1.752   1.413   7.474  0.5163 -1.3041  0.2965
 4422TIP3    H234826   1.831   1.496   7.376 -2.2762  0.5902 -0.4612
 4423TIP3   OH234827   2.283   4.496   7.452  0.1371  0.1964 -0.2930
 4423TIP3    H134828   2.202   4.471   7.408 -1.1105  0.7854  1.5562
 4423TIP3    H234829   2.259   4.570   7.507  1.6850 -0.2304  1.0525
 4424TIP3   OH234830   1.988   3.918   1.063 -0.0296 -0.0889  0.0192
 4424TIP3    H134831   2.027   3.996   1.103  0.4034 -0.9844  1.4482
 4424TIP3    H234832   1.898   3.918   1.096  0.6317 -1.4263  2.0716
 4425TIP3   OH234833   3.813   4.423   1.238  0.2520 -0.5549  0.1472
 4425TIP3    H134834   3.871   4.422   1.314  0.1386 -0.3993  0.2378
 4425TIP3    H234835   3.742   4.482   1.263  0.1506 -0.5987 -0.0335
 4426TIP3   OH234836   2.285   2.707   1.552 -0.1185  0.6982 -0.1221
 4426TIP3    H134837   2.315   2.687   1.641  0.0249 -0.1815 -0.3610
 4426TIP3    H234838   2.297   2.801   1.543 -2.6333  1.3056  1.7290
 4427TIP3   OH234839   6.231   0.516   0.505  0.5776 -0.7706 -0.0169
 4427TIP3    H134840   6.166   0.566   0.455  0.4671 -2.8935 -2.1820
 4427TIP3    H234841   6.263   0.578   0.571 -2.1544  0.9742 -0.1548
 4428TIP3   OH234842   1.719   6.376   0.555  0.4822 -0.2679  0.1519
 4428TIP3    H134843   1.722   6.282   0.537 -0.0483 -0.4090  0.7342
 4428TIP3    H234844   1.630   6.390   0.589  0.5210  0.4639 -0.0459
 4429TIP3   OH234845   6.574   1.907   1.084  0.2091 -0.0718  0.2916
 4429TIP3    H134846   6.630   1.983   1.073  0.1659 -0.1944 -0.9120
 4429TIP3    H234847   6.523   1.902   1.003 -1.3188 -0.1549  1.1999
 4430TIP3   OH234848   3.904   2.738   6.928 -0.4313  0.3478  0.0714
 4430TIP3    H134849   3.935   2.655   6.964  1.4999  1.7049  1.8164
 4430TIP3    H234850   3.909   2.728   6.833  0.4020 -1.2999  0.2652
 4431TIP3   OH234851   1.562   0.851   7.867  0.2767 -0.5627 -0.3359
 4431TIP3    H134852   1.493   0.903   7.909 -0.4649 -1.0776 -0.9002
 4431TIP3    H234853   1.573   0.890   7.781 -0.2690 -1.3040 -0.7562
 4432TIP3   OH234854   3.064   7.063   7.485  0.3194 -0.1810  0.0807
 4432TIP3    H134855   3.058   7.145   7.534 -1.2652 -0.7581  0.9332
 4432TIP3    H234856   3.134   7.014   7.527  0.6476  0.3576  0.1609
 4433TIP3   OH234857   3.615   0.810   7.186  0.0667 -0.9916 -0.1842
 4433TIP3    H134858   3.631   0.729   7.235 -1.5070 -1.8749 -1.0563
 4433TIP3    H234859   3.664   0.798   7.105 -0.6006 -1.3423 -0.5487
 4434TIP3   OH234860   0.337   0.934   7.401 -0.0988 -0.3889  0.1550
 4434TIP3    H134861   0.311   0.842   7.411 -1.7534  0.0144 -0.0738
 4434TIP3    H234862   0.256   0.978   7.377  0.2925  1.4514  2.0238
 4435TIP3   OH234863   0.132   1.154   7.081 -0.6391  0.0232 -0.1908
 4435TIP3    H134864   0.129   1.194   6.994 -2.0638  2.0000  0.6912
 4435TIP3    H234865   0.198   1.204   7.129 -0.1507 -0.7934  0.0067
 4436TIP3   OH234866   4.649   1.902   7.942 -0.3721  0.0908  0.0816
 4436TIP3    H134867   4.679   1.923   8.030 -1.7150 -0.4829  0.6990
 4436TIP3    H234868   4.647   1.806   7.940  0.5811  0.0666 -0.9230
 4437TIP3   OH234869   2.770   1.689   1.437  0.4485  0.0497  0.1359
 4437TIP3    H134870   2.824   1.641   1.375  1.4280  1.6797 -0.3272
 4437TIP3    H234871   2.824   1.763   1.464 -1.2099  1.2532  0.3369
 4438TIP3   OH234872   5.201   5.800   6.944 -0.4206 -0.5485  0.9881
 4438TIP3    H134873   5.180   5.892   6.930 -1.4190 -0.8048  0.7145
 4438TIP3    H234874   5.290   5.790   6.912 -0.4327  0.2478  0.6942
 4439TIP3   OH234875   2.052   4.080   7.013 -0.6195  0.5067 -0.1038
 4439TIP3    H134876   2.110   4.100   7.086  0.1622  1.3097 -0.9083
 4439TIP3    H234877   2.022   3.991   7.030 -0.2825  0.5974  1.0708
 4440TIP3   OH234878   6.968   1.072   7.987 -0.1502 -0.1442  0.0298
 4440TIP3    H134879   6.980   1.062   7.892  2.6669 -1.1478  0.3790
 4440TIP3    H234880   6.971   0.983   8.021  0.8707  0.2939  1.1921
 4441TIP3   OH234881   5.513   0.707   0.060 -0.5480 -0.3944 -0.3313
 4441TIP3    H134882   5.527   0.678   0.150  0.7551 -2.2494 -1.0533
 4441TIP3    H234883   5.575   0.654   0.009 -0.3090  1.5631 -2.1730
 4442TIP3   OH234884   3.025   3.705   1.324  0.2261 -0.2560  0.2284
 4442TIP3    H134885   3.058   3.641   1.262  2.6203 -0.2738  1.4201
 4442TIP3    H234886   3.044   3.668   1.410 -0.3398  1.0831  0.9635
 4443TIP3   OH234887   4.571   3.128   1.024  0.1054 -0.2621  0.7298
 4443TIP3    H134888   4.479   3.102   1.023 -0.6659  2.1737  0.5964
 4443TIP3    H234889   4.571   3.218   0.990  2.5027 -0.0657  1.0431
 4444TIP3   OH234890   0.443   5.536   7.785 -0.2153 -0.3014  0.1804
 4444TIP3    H134891   0.532   5.553   7.754 -0.9831 -0.0899 -2.1010
 4444TIP3    H234892   0.422   5.613   7.838  0.0655  0.9895 -1.4666
 4445TIP3   OH234893   4.438   2.887   8.008  0.4970 -0.0167  0.5359
 4445TIP3    H134894   4.416   2.794   8.011  1.6347 -0.4492 -1.6494
 4445TIP3    H234895   4.402   2.917   7.924 -1.5256  2.0358  2.0418
 4446TIP3   OH234896   0.821   0.235   7.314 -0.1766 -0.5886  0.3472
 4446TIP3    H134897   0.726   0.223   7.321 -0.3879  0.1737 -1.0376
 4446TIP3    H234898   0.851   0.230   7.405 -1.5893 -0.4094  0.8585
 4447TIP3   OH234899   3.203   0.563   1.571  0.0781  0.2400 -0.0612
 4447TIP3    H134900   3.246   0.565   1.485  0.0712  2.0998 -0.0491
 4447TIP3    H234901   3.250   0.495   1.619  1.7737  0.9005 -0.7088
 4448TIP3   OH234902   3.806   5.429   5.939 -0.9165  0.6984 -0.1289
 4448TIP3    H134903   3.882   5.441   5.883 -1.0170  2.1842  0.0116
 4448TIP3    H234904   3.836   5.457   6.026 -1.6505  1.3775 -0.0931
 4449TIP3   OH234905   0.776   3.312   0.249 -0.0683  0.4026 -0.0140
 4449TIP3    H134906   0.680   3.313   0.245 -0.0858 -1.5723 -1.4692
 4449TIP3    H234907   0.802   3.398   0.214 -1.2884  1.0108  0.5088
 4450TIP3   OH234908   0.586   1.347   0.707 -0.4605  0.2062  0.4816
 4450TIP3    H134909   0.578   1.299   0.625 -4.9461 -0.1780  0.9262
 4450TIP3    H234910   0.528   1.422   0.697  2.5712  2.9821  1.6620
 4451TIP3   OH234911   2.738   4.499   7.670  0.0517  0.0905  0.3355
 4451TIP3    H134912   2.699   4.479   7.585 -0.0578 -1.2151  0.6655
 4451TIP3    H234913   2.733   4.416   7.718  3.9054 -0.4606  0.1159
 4452TIP3   OH234914   3.464   5.116   7.335  0.2308 -0.2995 -0.8764
 4452TIP3    H134915   3.378   5.086   7.364 -0.2815  1.2335 -0.7226
 4452TIP3    H234916   3.517   5.036   7.332 -0.3677 -0.8957  1.8155
 4453TIP3   OH234917   4.820   4.514   7.797 -0.2419 -0.2302  0.4298
 4453TIP3    H134918   4.831   4.593   7.849  0.6607 -1.4712  2.2437
 4453TIP3    H234919   4.904   4.469   7.803 -1.1952 -2.1086  0.8908
 4454TIP3   OH234920   2.141   4.637   6.114 -0.5908 -0.6725 -0.5176
 4454TIP3    H134921   2.214   4.698   6.102  0.5495 -1.7948  0.4363
 4454TIP3    H234922   2.130   4.595   6.029 -0.8135  0.2326 -0.9457
 4455TIP3   OH234923   0.010   6.275   7.745 -0.2428  0.3186 -0.2946
 4455TIP3    H134924   0.082   6.295   7.804 -1.4907  0.9072  1.1026
 4455TIP3    H234925   0.033   6.191   7.706  0.6402 -0.0656  1.0008
 4456TIP3   OH234926   1.073   6.601   7.449 -0.1686  0.8256  0.0590
 4456TIP3    H134927   1.054   6.507   7.444  0.5879  0.6999 -0.6380
 4456TIP3    H234928   0.995   6.643   7.414 -0.1910  0.4219 -0.3836
 4457TIP3   OH234929   4.613   6.631   0.707  0.0797 -0.0700 -0.2265
 4457TIP3    H134930   4.625   6.544   0.667 -1.9171 -0.6746  0.4113
 4457TIP3    H234931   4.695   6.677   0.686  0.3542 -1.3665 -2.3973
 4458TIP3   OH234932   0.302   2.183   1.975 -0.0517  0.0014 -0.2247
 4458TIP3    H134933   0.218   2.170   1.931  0.5861 -0.9675 -1.2013
 4458TIP3    H234934   0.303   2.276   1.998 -2.2563 -0.3175  1.6429
 4459TIP3   OH234935   0.965   1.108   6.988  0.0941 -0.3477  1.0614
 4459TIP3    H134936   0.949   1.202   6.991  1.8178 -0.0269  1.2289
 4459TIP3    H234937   0.931   1.080   6.903 -2.1380  0.0325  1.7463
 4460TIP3   OH234938   5.475   6.311   0.887  0.0497  0.1735  0.7774
 4460TIP3    H134939   5.428   6.349   0.961  0.4455  0.1302  1.0594
 4460TIP3    H234940   5.434   6.225   0.874  0.5593 -0.1984  1.5330
 4461TIP3   OH234941   0.797   4.341   5.861 -0.8106  0.3360  0.0842
 4461TIP3    H134942   0.863   4.280   5.895 -0.9561  0.4036  0.4841
 4461TIP3    H234943   0.844   4.390   5.793  0.4558  2.4161  2.2790
 4462TIP3   OH234944   1.805   6.046   8.011  0.0946 -0.5339 -0.0194
 4462TIP3    H134945   1.856   6.126   8.003  0.3308 -0.4567  1.7447
 4462TIP3    H234946   1.849   5.996   8.080  0.0536 -2.2840 -1.1926
 4463TIP3   OH234947   5.159   2.034   2.029 -0.0794  0.2736 -0.5565
 4463TIP3    H134948   5.108   2.068   2.103  1.0461  0.7809  0.0169
 4463TIP3    H234949   5.136   1.941   2.024 -0.2857  0.2680  0.3412
 4464TIP3   OH234950   1.105   2.245   1.930  0.0018 -0.2845  0.1607
 4464TIP3    H134951   1.169   2.236   2.001 -0.7516  1.5924  1.1540
 4464TIP3    H234952   1.028   2.196   1.962  0.2384 -0.8730 -0.1506
 4465TIP3   OH234953   4.720   5.825   1.806  0.2573  0.7492 -0.5211
 4465TIP3    H134954   4.791   5.814   1.869 -0.4254  0.3799  0.1996
 4465TIP3    H234955   4.760   5.807   1.721  0.9633  0.3000 -0.1001
 4466TIP3   OH234956   5.644   2.923   7.290 -0.3416 -0.0283 -0.3026
 4466TIP3    H134957   5.667   2.846   7.343 -2.1617  0.0726  0.7217
 4466TIP3    H234958   5.670   2.899   7.202 -0.0708 -1.4955  0.1395
 4467TIP3   OH234959   1.470   3.670   1.594 -0.0819 -0.6625 -0.0344
 4467TIP3    H134960   1.457   3.710   1.681 -0.2603 -2.1924  0.6772
 4467TIP3    H234961   1.565   3.657   1.589  0.0889  0.6741 -0.6738
 4468TIP3   OH234962   6.590   5.459   1.705 -0.0462 -1.4648  0.0831
 4468TIP3    H134963   6.684   5.473   1.715 -0.2823  0.5095 -0.1056
 4468TIP3    H234964   6.583   5.378   1.654  1.6279 -0.5054 -1.7777
 4469TIP3   OH234965   6.252   3.222   6.529  0.1150 -0.0370 -0.0266
 4469TIP3    H134966   6.189   3.154   6.509  0.3732 -0.4192  0.4388
 4469TIP3    H234967   6.199   3.298   6.553 -0.1829 -0.5304  0.9511
 4470TIP3   OH234968   4.047   1.459   0.059  0.2752  0.2581  0.1856
 4470TIP3    H134969   4.022   1.435   0.149  0.9062 -3.5807 -0.4976
 4470TIP3    H234970   4.135   1.423   0.049  0.8197  1.9478 -1.5597
 4471TIP3   OH234971   6.899   0.234   1.684  0.0691 -0.0212  0.9919
 4471TIP3    H134972   6.957   0.216   1.610  1.2012 -1.3889  2.1321
 4471TIP3    H234973   6.959   0.250   1.757 -0.9291 -1.9134  2.3049
 4472TIP3   OH234974   5.408   2.532   1.189  0.7109 -0.2778 -0.1167
 4472TIP3    H134975   5.320   2.507   1.160 -0.4229  3.2194 -0.0932
 4472TIP3    H234976   5.466   2.468   1.146 -1.7158 -2.1429 -0.8645
 4473TIP3   OH234977   6.469   4.594   7.933  0.3633  0.8143 -0.1824
 4473TIP3    H134978   6.539   4.540   7.970  1.4763  1.8096 -0.7514
 4473TIP3    H234979   6.483   4.589   7.839 -1.8988 -0.9750 -0.5017
 4474TIP3   OH234980   6.840   5.430   1.579 -0.0427 -0.1810  0.3000
 4474TIP3    H134981   6.912   5.493   1.590 -1.6120  1.4784  1.9165
 4474TIP3    H234982   6.883   5.350   1.550  2.3318  0.9988  0.2369
 4475TIP3   OH234983   0.120   1.396   1.216  0.5851  0.0222 -0.0104
 4475TIP3    H134984   0.188   1.450   1.255  1.0131  0.4677 -1.3154
 4475TIP3    H234985   0.150   1.381   1.126  0.5169 -2.4262  0.2882
 4476TIP3   OH234986   1.374   2.990   6.501  0.1845 -0.1711  0.3997
 4476TIP3    H134987   1.440   2.953   6.559  0.6472 -0.6654 -0.4111
 4476TIP3    H234988   1.312   3.034   6.559  0.2131 -1.2887  1.3105
 4477TIP3   OH234989   5.692   3.103   1.574 -0.0591  0.2416  0.7408
 4477TIP3    H134990   5.667   3.184   1.620 -0.3875  0.2563  0.5402
 4477TIP3    H234991   5.612   3.050   1.577  0.1213 -0.0247  0.7646
 4478TIP3   OH234992   5.812   6.917   0.463 -0.0163 -0.0479 -0.2539
 4478TIP3    H134993   5.769   6.864   0.530 -1.4268  0.2182 -0.9088
 4478TIP3    H234994   5.790   6.873   0.380  0.9119  0.1503 -0.6126
 4479TIP3   OH234995   4.099   2.147   0.557  0.1366  0.0071 -0.5475
 4479TIP3    H134996   4.052   2.108   0.630  3.2090 -1.2187  0.9379
 4479TIP3    H234997   4.093   2.082   0.487  0.6073 -0.6894  0.0481
 4480TIP3   OH234998   1.386   4.730   1.296  0.3799 -0.4673 -0.2114
 4480TIP3    H134999   1.477   4.722   1.266  0.2129 -0.0973 -0.8391
 4480TIP3    H235000   1.342   4.654   1.258  0.1935 -0.0621 -0.8111
 4481TIP3   OH235001   3.021   3.386   6.213 -0.2062  0.0085  0.2293
 4481TIP3    H135002   2.957   3.341   6.269  0.8240 -1.8207  0.0146
 4481TIP3    H235003   3.101   3.387   6.265  0.9049 -2.1248 -1.2613
 4482TIP3   OH235004   1.231   7.100   7.744 -0.4452 -0.1370  0.2642
 4482TIP3    H135005   1.294   7.103   7.673 -1.8147  0.5159 -0.9935
 4482TIP3    H235006   1.156   7.149   7.711 -1.6722 -1.0012  1.6273
 4483TIP3   OH235007   5.406   5.673   7.729  0.0160  0.0549 -0.5484
 4483TIP3    H135008   5.369   5.733   7.794  0.9328 -0.3987  0.4282
 4483TIP3    H235009   5.342   5.603   7.722 -0.0721  0.0832 -0.0750
 4484TIP3   OH235010   6.123   0.391   6.282  0.4534  0.2344  0.3856
 4484TIP3    H135011   6.216   0.410   6.274  0.6340 -0.8079 -0.1694
 4484TIP3    H235012   6.112   0.307   6.237 -1.2285  1.6780 -2.1653
 4485TIP3   OH235013   4.569   6.384   0.846  0.6608  0.1416 -0.4044
 4485TIP3    H135014   4.560   6.473   0.879 -0.2191  0.0056 -0.2546
 4485TIP3    H235015   4.514   6.382   0.768  1.0938 -0.1254 -0.7086
 4486TIP3   OH235016   3.866   5.265   7.042  0.3106  0.2959  0.5690
 4486TIP3    H135017   3.773   5.242   7.034  0.5941 -0.2131 -1.7083
 4486TIP3    H235018   3.865   5.354   7.077 -0.9365 -0.5686  2.9877
 4487TIP3   OH235019   5.094   0.730   6.450  0.1479  0.5881  0.6929
 4487TIP3    H135020   5.009   0.726   6.494  0.1042  1.3267  0.7015
 4487TIP3    H235021   5.106   0.644   6.411 -1.0488  0.7704 -0.1247
 4488TIP3   OH235022   5.827   2.634   7.244 -0.4632 -0.5626  0.4142
 4488TIP3    H135023   5.838   2.662   7.335  1.2974  0.9014 -0.1918
 4488TIP3    H235024   5.735   2.608   7.238 -0.4544 -1.4179  2.7760
 4489TIP3   OH235025   3.186   4.361   7.089  0.7551 -0.3965  0.0852
 4489TIP3    H135026   3.098   4.330   7.069  0.7790 -1.1578  1.0827
 4489TIP3    H235027   3.179   4.456   7.087  0.0760 -0.4527 -0.5168
 4490TIP3   OH235028   3.175   2.770   7.881  0.1177 -0.5189  0.3623
 4490TIP3    H135029   3.192   2.753   7.788 -1.1391 -0.4324  0.0939
 4490TIP3    H235030   3.147   2.685   7.916 -0.0121 -0.4119  0.5182
 4491TIP3   OH235031   3.654   4.409   2.058  0.2949 -0.2884  0.2286
 4491TIP3    H135032   3.583   4.348   2.079 -0.0484 -0.2756 -0.8071
 4491TIP3    H235033   3.623   4.493   2.091 -0.3680 -0.2051 -0.5624
 4492TIP3   OH235034   2.545   4.603   0.587 -0.1073  0.0848  0.3897
 4492TIP3    H135035   2.517   4.693   0.574 -0.9610  0.3506  3.3778
 4492TIP3    H235036   2.528   4.585   0.679  1.3658 -2.6919  0.2451
 4493TIP3   OH235037   5.111   3.565   0.546  0.0345  0.2117  0.3099
 4493TIP3    H135038   5.086   3.487   0.596 -1.5566  0.4821 -0.0328
 4493TIP3    H235039   5.173   3.611   0.603  2.3927 -2.1026 -0.1490
 4494TIP3   OH235040   1.642   4.297   0.482 -0.2491  0.4311  0.5725
 4494TIP3    H135041   1.594   4.256   0.411  1.3612 -0.0724 -0.2692
 4494TIP3    H235042   1.726   4.323   0.444  0.4149  0.7235  2.1239
 4495TIP3   OH235043   4.551   0.910   8.035  0.0534  0.2008 -0.5892
 4495TIP3    H135044   4.598   0.851   8.094 -2.8856 -1.6692  0.0860
 4495TIP3    H235045   4.493   0.959   8.092  0.6469  1.9772 -1.4540
 4496TIP3   OH235046   0.016   0.716   5.672  0.7083 -0.4356  0.4410
 4496TIP3    H135047  -0.006   0.736   5.581  1.8811  0.1679  0.2842
 4496TIP3    H235048  -0.019   0.789   5.722  0.5742 -0.4864  0.4243
 4497TIP3   OH235049   4.840   7.120   1.365 -0.1156  0.0251 -0.1995
 4497TIP3    H135050   4.899   7.126   1.290  0.4569 -0.3841  0.2104
 4497TIP3    H235051   4.769   7.181   1.344  1.2378  1.7520  0.0102
 4498TIP3   OH235052   0.415   2.892   6.266  0.1502  0.0175 -0.6226
 4498TIP3    H135053   0.434   2.879   6.359  3.5858 -0.6314 -1.2910
 4498TIP3    H235054   0.446   2.981   6.247 -3.6152  1.5080 -0.5703
 4499TIP3   OH235055   3.868   5.875   0.800  0.4120 -0.6400 -0.2609
 4499TIP3    H135056   3.807   5.882   0.873 -0.4416  0.6956 -1.0672
 4499TIP3    H235057   3.858   5.785   0.769  0.6484 -1.1595  1.1288
 4500TIP3   OH235058   2.906   3.298   6.920 -0.1341  0.0386  0.1738
 4500TIP3    H135059   2.992   3.303   6.962 -0.6795  1.1404  1.2126
 4500TIP3    H235060   2.924   3.305   6.826  0.8271  1.5357  0.4381
 4501TIP3   OH235061   6.682   3.768   6.153  0.0780 -0.4135 -0.6890
 4501TIP3    H135062   6.627   3.691   6.165  1.0895 -0.9621  0.7176
 4501TIP3    H235063   6.753   3.757   6.216 -1.0873  2.8738  1.5307
 4502TIP3   OH235064   2.149   2.034   1.299 -0.2811  0.1562  0.2904
 4502TIP3    H135065   2.242   2.051   1.313  0.0914 -2.2072  0.9885
 4502TIP3    H235066   2.105   2.092   1.362  0.6156  1.8069 -0.5117
 4503TIP3   OH235067   1.676   1.800   6.454 -0.0521 -0.1189  0.5567
 4503TIP3    H135068   1.635   1.882   6.427  0.5936  0.0019 -0.0864
 4503TIP3    H235069   1.739   1.825   6.521  1.3070  0.1534 -0.7759
 4504TIP3   OH235070   5.566   6.496   7.243 -0.2465  0.1875 -0.5092
 4504TIP3    H135071   5.641   6.525   7.294 -0.3199  0.6729 -0.6616
 4504TIP3    H235072   5.500   6.473   7.308  0.8327 -2.5979 -0.2986
 4505TIP3   OH235073   2.661   1.266   7.638 -0.1757 -0.2748  0.0420
 4505TIP3    H135074   2.584   1.211   7.650 -2.6950  2.7519 -0.8879
 4505TIP3    H235075   2.650   1.336   7.702  1.4791  0.5849 -0.5531
 4506TIP3   OH235076   3.877   6.618   6.638 -0.2697  0.0394 -0.3755
 4506TIP3    H135077   3.826   6.609   6.719 -1.2620  1.7523 -0.7678
 4506TIP3    H235078   3.929   6.537   6.634 -1.9264 -1.1524  0.7427
 4507TIP3   OH235079   5.967   4.813   0.807 -0.5406  0.2245 -0.1799
 4507TIP3    H135080   5.874   4.796   0.821 -0.2137 -0.1442  1.7443
 4507TIP3    H235081   6.003   4.826   0.894  1.3426 -0.2493 -0.8385
 4508TIP3   OH235082   5.663   2.692   6.262 -0.1669 -0.6267  0.2799
 4508TIP3    H135083   5.576   2.663   6.233 -0.7710 -0.2713  1.6516
 4508TIP3    H235084   5.722   2.662   6.193 -1.2463 -1.7771 -0.1968
 4509TIP3   OH235085   2.678   3.330   6.740 -0.2239 -0.1841 -0.1078
 4509TIP3    H135086   2.717   3.345   6.826  2.1281  0.0503 -1.1390
 4509TIP3    H235087   2.629   3.249   6.749  0.8660 -0.7288  1.1904
 4510TIP3   OH235088   4.964   0.092   7.050 -0.2972 -0.4478 -0.6836
 4510TIP3    H135089   5.041   0.114   7.103 -0.3913 -1.8217  0.0667
 4510TIP3    H235090   4.970   0.149   6.974  1.2199 -0.2121 -0.4140
 4511TIP3   OH235091   4.795   5.811   8.037  1.0445  0.0681 -0.4042
 4511TIP3    H135092   4.811   5.718   8.053  1.2109 -0.1807 -1.8244
 4511TIP3    H235093   4.737   5.812   7.961 -2.7596  1.0383  2.2169
 4512TIP3   OH235094   2.809   1.371   6.224 -0.5843 -0.1766  0.1396
 4512TIP3    H135095   2.812   1.297   6.284  0.6724 -0.2549  0.0072
 4512TIP3    H235096   2.897   1.407   6.225 -0.6703  0.1552 -1.2386
 4513TIP3   OH235097   3.606   5.964   7.458 -0.0934  1.2888  0.0979
 4513TIP3    H135098   3.558   5.959   7.540 -0.4070  0.1783 -0.1328
 4513TIP3    H235099   3.677   6.027   7.474  1.5950 -0.9587  2.1376
 4514TIP3   OH235100   2.851   2.021   1.830 -0.6993 -0.0892  0.4638
 4514TIP3    H135101   2.894   2.052   1.750  1.7235 -1.4379  1.1670
 4514TIP3    H235102   2.870   1.928   1.833  1.4141  0.3161  3.8009
 4515TIP3   OH235103   4.596   3.329   7.787  0.2582  0.3605 -0.2681
 4515TIP3    H135104   4.552   3.412   7.806 -2.4692 -1.0462 -0.0111
 4515TIP3    H235105   4.619   3.294   7.874 -2.9439 -1.2816  0.0534
 4516TIP3   OH235106   5.550   0.480   7.859 -0.3441 -0.7566 -0.7857
 4516TIP3    H135107   5.495   0.524   7.794 -2.3241 -1.1189  0.5506
 4516TIP3    H235108   5.493   0.413   7.898  1.8459 -2.8947 -1.0531
 4517TIP3   OH235109   4.494   3.795   1.865 -0.1627  0.5684  0.0482
 4517TIP3    H135110   4.472   3.806   1.957  0.3693  1.3891  0.0912
 4517TIP3    H235111   4.586   3.768   1.865 -0.2280  0.3417 -0.2349
 4518TIP3   OH235112   2.827   1.463   1.292  0.4257 -0.1617  0.0366
 4518TIP3    H135113   2.767   1.398   1.328  0.4346  0.4122  1.1411
 4518TIP3    H235114   2.909   1.415   1.278  0.0466 -0.6865 -0.4076
 4519TIP3   OH235115   7.128   5.417   0.899  0.0486 -0.2834 -0.1566
 4519TIP3    H135116   7.207   5.364   0.889 -0.8129 -1.3353 -2.0489
 4519TIP3    H235117   7.130   5.477   0.823 -0.4790  0.3618  0.3268
 4520TIP3   OH235118   0.089   3.650   7.235 -0.2357  0.0969  0.5078
 4520TIP3    H135119   0.102   3.719   7.299  1.7316  0.8649 -0.6382
 4520TIP3    H235120   0.015   3.599   7.269 -1.5680  2.5550  1.5339
 4521TIP3   OH235121   1.903   4.385   0.470  0.3428  0.0096 -0.1861
 4521TIP3    H135122   1.930   4.455   0.528  0.8856 -0.0273 -0.3913
 4521TIP3    H235123   1.982   4.331   0.458 -0.3096 -1.2241  0.7949
 4522TIP3   OH235124   0.441   2.702   7.026  0.1429 -0.3216  0.0317
 4522TIP3    H135125   0.508   2.771   7.024  1.1960 -1.2864 -2.5766
 4522TIP3    H235126   0.393   2.712   6.944 -1.8544 -0.7146  1.0984
 4523TIP3   OH235127   6.260   1.803   7.802 -0.4113  0.6321 -0.1986
 4523TIP3    H135128   6.191   1.779   7.740 -1.2724  1.9490  0.1837
 4523TIP3    H235129   6.252   1.899   7.809  1.1820  0.7546  0.1935
 4524TIP3   OH235130   1.258   0.624   1.502 -0.5353 -0.2665 -0.2475
 4524TIP3    H135131   1.173   0.591   1.532 -0.5201  0.1136  0.2170
 4524TIP3    H235132   1.301   0.656   1.581  0.5468 -1.5670 -0.2798
 4525TIP3   OH235133   1.962   6.464   1.342  0.7574  0.3387 -0.2752
 4525TIP3    H135134   1.990   6.524   1.273 -0.3355 -0.0795 -1.1038
 4525TIP3    H235135   1.956   6.520   1.420  0.3424  1.1904 -0.8941
 4526TIP3   OH235136   4.011   2.748   6.658  0.2330  0.4543  0.1245
 4526TIP3    H135137   4.025   2.742   6.564 -0.9443  1.2969 -0.1190
 4526TIP3    H235138   4.082   2.695   6.696 -0.1703 -1.1633 -1.2599
 4527TIP3   OH235139   2.729   1.669   6.202  0.0563 -0.5071  0.0837
 4527TIP3    H135140   2.667   1.692   6.271 -0.1244 -1.2307  0.1778
 4527TIP3    H235141   2.706   1.727   6.129  1.6255  1.7733  1.2987
 4528TIP3   OH235142   6.352   3.375   7.945  0.2665  0.0742  0.1416
 4528TIP3    H135143   6.340   3.281   7.954  2.3780 -0.3693 -1.0866
 4528TIP3    H235144   6.336   3.410   8.033  0.4670 -1.5412  0.8501
 4529TIP3   OH235145   1.439   5.458   0.032 -0.9045  0.4944  0.8044
 4529TIP3    H135146   1.491   5.384  -0.001  0.4482  2.2130 -1.1752
 4529TIP3    H235147   1.354   5.448  -0.010 -0.4998  0.4200 -0.0282
 4530TIP3   OH235148   4.954   5.648   7.424 -0.1617 -0.9374  0.0947
 4530TIP3    H135149   5.048   5.651   7.439 -0.2486 -1.0720  0.7001
 4530TIP3    H235150   4.944   5.663   7.330  0.2502  2.9092  0.5112
 4531TIP3   OH235151   3.009   2.964   7.604  0.1452  0.3702 -0.8612
 4531TIP3    H135152   3.051   3.014   7.674 -0.6370 -1.0829  0.7271
 4531TIP3    H235153   2.987   3.029   7.537  0.3120  1.9271  0.5347
 4532TIP3   OH235154   0.003   6.156   6.815 -0.3999 -0.3135  0.0425
 4532TIP3    H135155   0.004   6.064   6.789 -0.9642  0.0472 -1.3603
 4532TIP3    H235156   0.039   6.156   6.903 -0.0655 -1.8357 -0.0589
 4533TIP3   OH235157   6.586   0.906   5.907  0.1985 -0.4901 -0.4833
 4533TIP3    H135158   6.530   0.957   5.848 -0.1624  0.1822  0.4220
 4533TIP3    H235159   6.675   0.920   5.875  0.0149 -0.0289 -0.7936
 4534TIP3   OH235160   2.439   3.443   5.768  0.0034 -0.1504 -0.5257
 4534TIP3    H135161   2.352   3.428   5.733  0.0352 -0.5995 -0.4106
 4534TIP3    H235162   2.431   3.524   5.819 -0.6921 -0.9712  0.6843
 4535TIP3   OH235163   6.177   1.132   0.182 -0.0904  0.4433 -0.1508
 4535TIP3    H135164   6.186   1.222   0.214  0.4312  0.2931  0.1367
 4535TIP3    H235165   6.082   1.118   0.176 -0.1807  0.8328  0.3138
 4536TIP3   OH235166   3.409   4.151   1.296 -0.2983  0.0576 -0.7309
 4536TIP3    H135167   3.468   4.161   1.371 -1.6685  0.1615  0.3693
 4536TIP3    H235168   3.411   4.057   1.277 -1.1298 -0.2229  0.4625
 4537TIP3   OH235169   0.296   5.988   6.425  0.3284  0.2933 -0.6897
 4537TIP3    H135170   0.248   6.036   6.358  0.5172  0.2135 -0.8829
 4537TIP3    H235171   0.353   5.928   6.376  1.3817  1.1011 -0.5110
 4538TIP3   OH235172   4.338   3.294   1.564  0.1573 -0.1345  0.1508
 4538TIP3    H135173   4.331   3.290   1.659 -0.5778  0.6295  0.1370
 4538TIP3    H235174   4.396   3.368   1.546 -1.3176  1.0274 -0.0222
 4539TIP3   OH235175   6.309   1.966   6.893 -0.2403  0.3524 -0.7005
 4539TIP3    H135176   6.394   1.983   6.935 -0.1132  0.6624 -1.0868
 4539TIP3    H235177   6.245   1.991   6.960 -0.0268 -0.1789 -0.2916
 4540TIP3   OH235178   4.554   0.410   7.354 -0.1916  0.4296 -0.4960
 4540TIP3    H135179   4.523   0.345   7.417 -0.8891  0.1489 -1.1235
 4540TIP3    H235180   4.592   0.358   7.283 -0.4466  0.7116 -0.8413
 4541TIP3   OH235181   0.083   2.527   1.229  0.1873  0.9520  0.2803
 4541TIP3    H135182   0.080   2.604   1.172 -0.2212  1.6085  1.1638
 4541TIP3    H235183   0.063   2.454   1.171  0.9642  1.4496 -0.6577
 4542TIP3   OH235184   3.735   3.281   5.996 -0.7361 -0.2921 -0.3951
 4542TIP3    H135185   3.690   3.200   5.972 -0.5406 -0.1245 -1.3932
 4542TIP3    H235186   3.789   3.301   5.920 -0.6705  0.6927 -0.0998
 4543TIP3   OH235187   6.907   6.137   0.091  0.0276  0.0546 -0.4356
 4543TIP3    H135188   6.988   6.107   0.133 -0.3782 -1.0531 -0.4063
 4543TIP3    H235189   6.838   6.110   0.151 -0.4977 -0.7881 -1.3970
 4544TIP3   OH235190   0.522   2.963   2.193 -0.3652  0.2776  0.2849
 4544TIP3    H135191   0.438   2.930   2.226 -1.2678  2.4647  0.3714
 4544TIP3    H235192   0.538   3.043   2.244  0.5750  1.1909 -1.3607
 4545TIP3   OH235193   0.614   4.649   6.202  0.1905 -0.0947 -0.5101
 4545TIP3    H135194   0.565   4.726   6.172 -2.3782 -0.4661  2.3086
 4545TIP3    H235195   0.649   4.675   6.287  0.6595 -1.5271 -0.2445
 4546TIP3   OH235196   2.645   1.762   7.717 -0.0959  0.0751  0.4462
 4546TIP3    H135197   2.709   1.783   7.649 -0.7324  0.5325 -0.0236
 4546TIP3    H235198   2.624   1.846   7.757 -0.3527 -0.0795  0.6380
 4547TIP3   OH235199   2.461   1.112   7.513 -0.2928  0.2424 -0.9537
 4547TIP3    H135200   2.432   1.057   7.586 -0.3309  0.2510 -0.9619
 4547TIP3    H235201   2.392   1.101   7.447  0.1556 -0.4320 -1.3212
 4548TIP3   OH235202   6.861   4.034   5.746 -0.0409 -0.3285  0.0293
 4548TIP3    H135203   6.805   4.021   5.823  0.8310  0.4416  0.8105
 4548TIP3    H235204   6.815   4.101   5.695 -0.0225  0.0484  0.4944
 4549TIP3   OH235205   6.409   2.259   8.031  0.3476  0.0771 -0.7735
 4549TIP3    H135206   6.414   2.316   8.108  0.3063 -1.3839  0.3755
 4549TIP3    H235207   6.361   2.183   8.062 -0.4132 -0.1834 -2.5197
 4550TIP3   OH235208   2.171   4.173   7.254 -0.0478  0.1106  0.0420
 4550TIP3    H135209   2.122   4.255   7.267  0.8115  0.7554 -0.6324
 4550TIP3    H235210   2.168   4.130   7.339 -0.4107  0.9086  0.4507
 4551TIP3   OH235211   5.766   4.258   6.693 -0.6436 -0.5973 -0.4682
 4551TIP3    H135212   5.749   4.316   6.619 -0.1142  0.0332 -0.1044
 4551TIP3    H235213   5.831   4.196   6.660  0.1968  0.1756 -0.3026
 4552TIP3   OH235214   2.794   0.694   7.707  0.4344  0.3110 -0.4669
 4552TIP3    H135215   2.760   0.648   7.630  1.7480  0.0135 -0.8946
 4552TIP3    H235216   2.837   0.772   7.671  0.3192  0.6129  0.0404
 4553TIP3   OH235217   1.167   0.358   0.960 -1.1009  0.2874  0.2861
 4553TIP3    H135218   1.221   0.280   0.972  0.2347  1.1564  0.0902
 4553TIP3    H235219   1.084   0.336   1.003 -0.5916 -1.0595  0.6409
 4554TIP3   OH235220   0.806   2.139   1.475  0.1926 -0.1576  0.0749
 4554TIP3    H135221   0.894   2.145   1.512  0.3943 -1.1086 -0.2070
 4554TIP3    H235222   0.789   2.045   1.472 -1.1398  0.0424  0.8453
 4555TIP3   OH235223   3.286   0.932   7.645 -0.3326  0.6467 -0.4718
 4555TIP3    H135224   3.330   0.880   7.577 -2.8423 -0.4687 -1.3557
 4555TIP3    H235225   3.223   0.985   7.597 -1.4284  0.6105  0.8909
 4556TIP3   OH235226   5.436   4.225   0.792 -0.6917  0.1820  0.0681
 4556TIP3    H135227   5.415   4.235   0.699 -0.3216  0.5589  0.0228
 4556TIP3    H235228   5.378   4.285   0.837  0.8276  1.8684 -0.1234
 4557TIP3   OH235229   1.439   3.011   6.252 -0.4170 -0.7108  0.0455
 4557TIP3    H135230   1.435   3.018   6.347 -0.6612 -1.8460  0.1265
 4557TIP3    H235231   1.366   3.064   6.221  0.3388  0.6101  0.4196
 4558TIP3   OH235232   2.284   2.796   0.413 -0.1078 -0.1843  0.3645
 4558TIP3    H135233   2.349   2.786   0.482  0.0924 -2.1940 -0.0638
 4558TIP3    H235234   2.298   2.720   0.356 -2.1440 -0.1050 -0.2972
 4559TIP3   OH235235   6.872   4.069   0.665 -0.2268  0.3358 -0.5457
 4559TIP3    H135236   6.801   4.006   0.648  0.6024 -0.8535  0.2099
 4559TIP3    H235237   6.886   4.064   0.759 -0.5246  2.1287 -0.3687
 4560TIP3   OH235238   2.388   3.814   1.130 -0.1138  0.3975 -0.1662
 4560TIP3    H135239   2.333   3.783   1.202 -0.5738  1.4667 -0.0398
 4560TIP3    H235240   2.356   3.903   1.112  0.2668  0.3059 -1.4084
 4561TIP3   OH235241   1.562   3.952   1.711 -0.3542 -0.2538 -0.6460
 4561TIP3    H135242   1.604   4.022   1.661 -1.5016  0.3087 -0.8676
 4561TIP3    H235243   1.608   3.872   1.685  2.3642  0.5948  1.1359
 4562TIP3   OH235244   2.793   5.100   1.017 -0.2290  0.0841  0.5578
 4562TIP3    H135245   2.832   5.030   0.965  1.8963  1.1986  0.5036
 4562TIP3    H235246   2.729   5.057   1.072  0.0026 -1.6701 -0.4687
 4563TIP3   OH235247   3.245   6.794   7.319 -0.5864 -0.2347  0.2024
 4563TIP3    H135248   3.305   6.824   7.387 -0.5853  1.3537 -0.4498
 4563TIP3    H235249   3.188   6.730   7.363  0.6689 -0.7272  1.1734
 4564TIP3   OH235250   4.743   4.098   5.568  0.2751 -0.1578 -0.3726
 4564TIP3    H135251   4.808   4.122   5.634  0.5004 -0.3531 -0.5167
 4564TIP3    H235252   4.795   4.078   5.490 -0.0932  1.9893 -1.2369
 4565TIP3   OH235253   4.170   2.246   6.175  0.2937 -0.5606 -0.7201
 4565TIP3    H135254   4.231   2.200   6.117  0.4169 -2.2240  0.6631
 4565TIP3    H235255   4.108   2.179   6.202  0.1769  0.1984  0.9885
 4566TIP3   OH235256   2.327   1.510   0.015  0.0533  0.0088 -0.9283
 4566TIP3    H135257   2.417   1.476   0.016  0.1701  0.2816  0.7631
 4566TIP3    H235258   2.299   1.506   0.107 -0.7205  2.3563 -0.9928
 4567TIP3   OH235259   6.830   5.290   5.824 -0.1418 -0.2903  0.0987
 4567TIP3    H135260   6.815   5.196   5.835  0.0901 -0.4740 -1.0447
 4567TIP3    H235261   6.758   5.320   5.768  1.6717 -0.5165 -2.5282
 4568TIP3   OH235262   1.794   5.107   7.292 -0.0052  0.0825 -0.2445
 4568TIP3    H135263   1.862   5.082   7.229 -1.0989 -2.3249 -0.5841
 4568TIP3    H235264   1.833   5.086   7.378 -0.6950 -2.6278 -0.4947
 4569TIP3   OH235265   2.565   6.605   0.746  0.7630 -0.2258 -0.3439
 4569TIP3    H135266   2.633   6.540   0.767  0.1086 -0.6847  0.4154
 4569TIP3    H235267   2.523   6.624   0.830 -1.1991 -1.2684 -1.0246
 4570TIP3   OH235268   1.529   5.295   0.439 -0.0962  0.1208 -0.6455
 4570TIP3    H135269   1.478   5.293   0.358  0.6082  0.8870 -1.1194
 4570TIP3    H235270   1.576   5.212   0.440 -2.2557 -1.1842  0.4251
 4571TIP3   OH235271   3.612   2.449   6.276 -0.1381 -0.1762 -0.1484
 4571TIP3    H135272   3.690   2.424   6.227  0.1265 -0.0132  0.1842
 4571TIP3    H235273   3.582   2.531   6.235 -0.4031 -0.4769 -0.5680
 4572TIP3   OH235274   3.902   7.106   6.744 -0.7333  0.0045 -0.1324
 4572TIP3    H135275   3.899   7.201   6.729 -0.8742 -0.0748 -0.6268
 4572TIP3    H235276   3.922   7.069   6.658  2.3866 -0.2423  0.5937
 4573TIP3   OH235277   1.087   0.499   0.527  0.2552  0.1044 -0.4510
 4573TIP3    H135278   1.063   0.591   0.538 -0.5242  0.0494 -1.5150
 4573TIP3    H235279   1.075   0.461   0.614  0.6097  1.0029  0.0081
 4574TIP3   OH235280   2.475   3.382   7.286 -0.0659 -0.3676 -0.3144
 4574TIP3    H135281   2.502   3.299   7.249  1.6235 -0.1047  0.2302
 4574TIP3    H235282   2.480   3.369   7.381 -1.7707 -0.2379 -0.1760
 4575TIP3   OH235283   0.251   0.653   7.406  0.5878  0.4590 -0.2892
 4575TIP3    H135284   0.253   0.559   7.393  0.3802  0.0556  2.1203
 4575TIP3    H235285   0.191   0.685   7.338  0.6302 -1.1246 -1.1178
 4576TIP3   OH235286   5.386   1.827   1.382 -0.1814  0.3835 -0.3312
 4576TIP3    H135287   5.389   1.733   1.399 -1.1295  0.6166  1.3298
 4576TIP3    H235288   5.299   1.843   1.347 -0.9515  0.9412  1.7007
 4577TIP3   OH235289   0.995   4.809   1.646 -0.2242 -0.1830 -0.0084
 4577TIP3    H135290   1.079   4.763   1.652  0.0086  0.1994 -0.3583
 4577TIP3    H235291   0.975   4.810   1.553 -1.0390 -1.0257  0.1398
 4578TIP3   OH235292   1.023   4.571   0.830 -0.4639  0.0144 -0.2268
 4578TIP3    H135293   1.013   4.490   0.779  1.8887 -1.1893  1.0743
 4578TIP3    H235294   0.966   4.559   0.905  1.0811 -1.2527  0.8085
 4579TIP3   OH235295   2.423   0.893   7.704 -0.2002 -0.3598  0.1219
 4579TIP3    H135296   2.478   0.853   7.772  0.3200 -0.5688 -0.4208
 4579TIP3    H235297   2.394   0.976   7.743  1.7440  0.4961 -0.1610
 4580TIP3   OH235298   4.099   1.405   1.055  0.6856  0.5351 -0.2038
 4580TIP3    H135299   4.106   1.439   1.144 -0.2862  1.1967 -0.3629
 4580TIP3    H235300   4.074   1.314   1.065 -0.1696  0.8050  0.2067
 4581TIP3   OH235301   0.619   6.279   7.556 -0.2108  0.6680  0.3502
 4581TIP3    H135302   0.668   6.306   7.479 -0.0221  1.5810  0.7712
 4581TIP3    H235303   0.655   6.333   7.627  0.9117 -1.4324  1.4651
 4582TIP3   OH235304   1.266   6.671   7.864 -0.3913  0.3316 -0.1250
 4582TIP3    H135305   1.187   6.627   7.834 -0.2786 -0.8131  1.1532
 4582TIP3    H235306   1.239   6.760   7.883 -1.2175  0.1351 -0.3607
 4583TIP3   OH235307   7.008   2.217   6.349  0.1971 -0.2482 -0.0561
 4583TIP3    H135308   6.966   2.292   6.391  0.5887  0.3151 -0.6625
 4583TIP3    H235309   7.080   2.193   6.409  1.7348  1.5188 -1.0859
 4584TIP3   OH235310   6.529   5.701   2.364 -0.3200 -0.8855 -0.2197
 4584TIP3    H135311   6.536   5.780   2.417 -1.5317 -0.0588 -1.2340
 4584TIP3    H235312   6.620   5.677   2.345  0.0964 -0.4092  1.0338
 4585TIP3   OH235313   2.006   1.605   1.182  0.8991  1.0106 -0.3317
 4585TIP3    H135314   1.931   1.601   1.123  0.2636  1.4386  0.4270
 4585TIP3    H235315   2.027   1.698   1.187 -1.5840  1.5529  3.1619
 4586TIP3   OH235316   0.591   1.187   7.623  0.8040 -0.0460  0.1173
 4586TIP3    H135317   0.566   1.237   7.545  0.9128  0.0908  0.1698
 4586TIP3    H235318   0.617   1.102   7.590  0.7052 -0.0376  0.0178
 4587TIP3   OH235319   4.645   2.647   1.550  0.0605  0.2560  0.0718
 4587TIP3    H135320   4.563   2.636   1.502  0.0539 -0.2549  0.1921
 4587TIP3    H235321   4.704   2.689   1.488 -0.0276 -0.1589 -0.3053
 4588TIP3   OH235322   1.666   6.851   6.697  0.0559  0.1387  0.2237
 4588TIP3    H135323   1.725   6.924   6.713  0.6765 -0.5767  1.2915
 4588TIP3    H235324   1.719   6.773   6.712  0.2013 -0.6644 -3.5335
 4589TIP3   OH235325   1.805   6.421   1.804 -0.6338 -0.1276  1.0669
 4589TIP3    H135326   1.773   6.488   1.864 -3.6078  0.1673 -0.6485
 4589TIP3    H235327   1.762   6.341   1.833 -1.4445 -0.1457 -0.1349
 4590TIP3   OH235328   3.920   6.872   7.743  0.0741 -0.3153 -0.0251
 4590TIP3    H135329   3.993   6.813   7.726 -0.5969 -1.3137  0.4399
 4590TIP3    H235330   3.879   6.836   7.822  0.4916  1.6040  1.1400
 4591TIP3   OH235331   2.001   4.768   0.907  0.3877  0.2004 -0.2273
 4591TIP3    H135332   2.048   4.692   0.940 -0.7678 -1.0494 -1.2998
 4591TIP3    H235333   2.029   4.841   0.962  2.0624 -0.8632  0.3727
 4592TIP3   OH235334   0.104   6.731   6.939  0.4462  0.3385  0.2619
 4592TIP3    H135335   0.080   6.646   6.902  0.0631  0.7446 -0.4485
 4592TIP3    H235336   0.134   6.781   6.863  0.4243  0.9241  0.6393
 4593TIP3   OH235337   5.385   2.896   2.007  0.1212 -0.6786 -0.2696
 4593TIP3    H135338   5.366   2.985   1.978  2.6139  0.0255 -0.0132
 4593TIP3    H235339   5.304   2.866   2.047 -1.3285  0.8055 -1.9039
 4594TIP3   OH235340   3.653   5.146   1.643 -0.5099 -0.3574 -0.0803
 4594TIP3    H135341   3.707   5.179   1.715  0.0586  1.7467 -1.3769
 4594TIP3    H235342   3.567   5.132   1.682  0.0390 -0.2641  1.2241
 4595TIP3   OH235343   1.160   0.726   0.330 -0.4069 -0.0578 -0.1079
 4595TIP3    H135344   1.111   0.749   0.409  2.5788  0.1675  1.8238
 4595TIP3    H235345   1.221   0.799   0.317  2.2227 -2.0697  0.0917
 4596TIP3   OH235346   6.961   6.854   0.956 -0.1971  0.1361  0.2308
 4596TIP3    H135347   6.877   6.812   0.978  0.9007 -2.1622  0.3224
 4596TIP3    H235348   6.951   6.880   0.865 -1.6476  1.6512  0.7681
 4597TIP3   OH235349   4.711   5.088   6.814  0.0175  0.7930 -0.0938
 4597TIP3    H135350   4.657   5.048   6.881  1.2536 -4.0319 -1.6073
 4597TIP3    H235351   4.648   5.128   6.754 -1.5472 -0.3746  0.6903
 4598TIP3   OH235352   3.019   1.369   6.477  0.0878 -1.0396 -0.3265
 4598TIP3    H135353   2.954   1.439   6.486  2.2680  0.9261  1.0524
 4598TIP3    H235354   3.066   1.389   6.397  2.1365  0.4485  1.1530
 4599TIP3   OH235355   3.791   2.566   7.327 -0.3681  0.3232 -0.5896
 4599TIP3    H135356   3.881   2.543   7.303 -0.9173 -0.9246 -1.5210
 4599TIP3    H235357   3.801   2.645   7.381  1.2819  0.1855 -0.6301
 4600TIP3   OH235358   4.342   2.466   0.320  0.1985 -0.1577  0.0081
 4600TIP3    H135359   4.317   2.376   0.300  0.6978 -0.0744 -1.0613
 4600TIP3    H235360   4.261   2.516   0.312 -0.0695 -0.4911  0.5537
 4601TIP3   OH235361   3.834   2.577   0.126  0.4150  0.0831 -0.1147
 4601TIP3    H135362   3.923   2.552   0.153  1.2571  2.1487 -0.8025
 4601TIP3    H235363   3.808   2.644   0.189 -1.9368 -2.4711  1.9075
 4602TIP3   OH235364   2.221   5.732   1.413  0.4811 -0.2066  0.0511
 4602TIP3    H135365   2.196   5.824   1.422 -1.7404 -0.3965 -2.8830
 4602TIP3    H235366   2.217   5.698   1.502  0.2475  2.2439  1.0695
 4603TIP3   OH235367   6.732   6.327   0.406  0.4915  0.2303  0.1720
 4603TIP3    H135368   6.727   6.326   0.310 -0.8295  3.6284  0.0545
 4603TIP3    H235369   6.806   6.384   0.425 -0.2906  0.9689  1.1015
 4604TIP3   OH235370   6.040   6.623   0.783  0.0554 -0.2034  0.7997
 4604TIP3    H135371   6.053   6.715   0.804 -0.9818 -0.1530  1.2773
 4604TIP3    H235372   5.951   6.604   0.813  0.2071 -1.3210  0.5767
 4605TIP3   OH235373   2.624   6.253   7.593  0.2497 -0.1860  0.0672
 4605TIP3    H135374   2.561   6.249   7.521  1.2573  0.3892 -0.8891
 4605TIP3    H235375   2.704   6.286   7.552  0.5620  1.1419  1.6659
 4606TIP3   OH235376   0.202   4.992   7.022  0.0226  0.1593  0.4409
 4606TIP3    H135377   0.151   4.913   7.040  2.4576 -1.2591  1.7020
 4606TIP3    H235378   0.253   4.971   6.944  1.1128  0.2213  1.1106
 4607TIP3   OH235379   7.132   4.601   7.653  0.3386  0.1222  0.0126
 4607TIP3    H135380   7.116   4.661   7.726 -0.3534 -0.7913  0.6356
 4607TIP3    H235381   7.225   4.610   7.634  0.2904  1.2559  0.2001
 4608TIP3   OH235382   5.308   2.949   0.163  0.7512  0.5240 -0.0041
 4608TIP3    H135383   5.332   2.869   0.209  0.4368  1.3854  1.7539
 4608TIP3    H235384   5.385   2.971   0.111  0.9047 -0.7953 -0.3783
 4609TIP3   OH235385   3.038   3.991   0.464 -0.3088 -0.0221  1.0584
 4609TIP3    H135386   3.030   3.921   0.399  0.4940  1.1831 -0.4063
 4609TIP3    H235387   3.096   3.955   0.532 -0.4218 -0.9822  0.6533
 4610TIP3   OH235388   1.242   1.563   7.374  0.0389 -0.4329 -0.1386
 4610TIP3    H135389   1.313   1.568   7.438  0.9016  1.0636 -1.1425
 4610TIP3    H235390   1.286   1.544   7.291 -0.7816 -0.0399 -0.6801
 4611TIP3   OH235391   4.395   5.755   1.025 -0.0794  0.3484  0.4067
 4611TIP3    H135392   4.378   5.703   0.947 -1.9898  0.9974  0.3431
 4611TIP3    H235393   4.490   5.749   1.038  0.0865 -0.9107 -1.1349
 4612TIP3   OH235394   5.318   2.910   7.072  0.0593  0.8386  0.7114
 4612TIP3    H135395   5.272   2.993   7.062 -0.8305  0.2900  0.1084
 4612TIP3    H235396   5.385   2.927   7.138 -0.8169  1.7444  1.3898
 4613TIP3   OH235397   4.728   4.412   6.123 -0.6615 -0.0292  0.3211
 4613TIP3    H135398   4.763   4.339   6.072 -2.1093  0.6364 -1.7607
 4613TIP3    H235399   4.755   4.490   6.076 -2.2054  0.6087  0.4076
 4614TIP3   OH235400   1.495   1.869   6.981  0.4031  0.2119  0.2392
 4614TIP3    H135401   1.513   1.874   7.075  0.4726  0.9276  0.1972
 4614TIP3    H235402   1.418   1.924   6.968 -1.8233 -2.6521  0.3839
 4615TIP3   OH235403   2.564   1.601   7.002 -0.2568 -0.0555  0.0158
 4615TIP3    H135404   2.490   1.655   7.029 -0.3517  0.2600 -0.8153
 4615TIP3    H235405   2.608   1.577   7.083 -0.8223  0.4047  0.4667
 4616TIP3   OH235406   1.805   4.229   0.181  0.6207  0.0572  0.6775
 4616TIP3    H135407   1.798   4.239   0.086  2.2009 -1.5670  0.3390
 4616TIP3    H235408   1.806   4.319   0.215 -0.5491  0.6603 -0.7557
 4617TIP3   OH235409   0.194   2.070   7.416 -0.1806  0.6320  0.0417
 4617TIP3    H135410   0.103   2.093   7.397 -0.3556 -0.0383  0.0145
 4617TIP3    H235411   0.188   1.995   7.476  0.3136 -0.6658 -1.4555
 4618TIP3   OH235412   3.227   5.368   7.530  0.4086  0.2062  0.6666
 4618TIP3    H135413   3.275   5.440   7.489  1.5946 -0.8410  0.1273
 4618TIP3    H235414   3.210   5.398   7.619  2.5577  0.4571  1.0572
 4619TIP3   OH235415   3.404   3.280   1.432  0.2512  0.0949  0.2594
 4619TIP3    H135416   3.478   3.237   1.475  1.2910  1.1085 -0.4423
 4619TIP3    H235417   3.327   3.240   1.472  1.1656 -0.6382  1.3839
 4620TIP3   OH235418   0.395   3.884   0.763 -0.2937 -0.0057  0.2051
 4620TIP3    H135419   0.491   3.885   0.763 -0.2514 -1.7159 -0.3085
 4620TIP3    H235420   0.371   3.801   0.723 -2.0106  0.4072  0.2782
 4621TIP3   OH235421   5.005   0.918   7.197 -0.2057  0.4637 -0.1806
 4621TIP3    H135422   5.023   1.003   7.237  0.7590  1.5641 -2.7080
 4621TIP3    H235423   4.943   0.936   7.127 -0.6430 -1.0721 -0.2353
 4622TIP3   OH235424   0.647   1.251   7.045 -0.0155  0.7624 -0.8156
 4622TIP3    H135425   0.673   1.248   6.953  0.2628  0.1318 -0.7179
 4622TIP3    H235426   0.728   1.269   7.092  0.2747 -1.1243 -0.5171
 4623TIP3   OH235427   0.095   2.446   7.546 -0.1963  0.0529 -0.2803
 4623TIP3    H135428   0.134   2.533   7.532 -1.5249  0.7852  0.4183
 4623TIP3    H235429   0.007   2.453   7.511  0.1135 -1.4588 -1.4553
 4624TIP3   OH235430   6.144   5.626   0.408  0.2242  0.3744  0.1094
 4624TIP3    H135431   6.094   5.591   0.482  0.6192  0.7869  0.5873
 4624TIP3    H235432   6.132   5.721   0.414  0.4016  0.4196 -0.2510
 4625TIP3   OH235433   5.844   4.499   7.912 -0.7597 -0.1395  0.2149
 4625TIP3    H135434   5.771   4.539   7.960 -0.9969 -0.1086 -0.1642
 4625TIP3    H235435   5.819   4.509   7.820  1.9647  4.4131 -0.3294
 4626TIP3   OH235436   6.077   1.248   0.506 -0.5680  0.1036 -0.6224
 4626TIP3    H135437   6.033   1.285   0.429  1.5626  1.1243 -1.4426
 4626TIP3    H235438   6.107   1.324   0.556  3.5744 -0.2236 -2.1486
 4627TIP3   OH235439   1.794   6.863   7.036  0.4388  0.5740  0.0182
 4627TIP3    H135440   1.738   6.812   6.978  0.6021 -0.5884  0.8608
 4627TIP3    H235441   1.814   6.805   7.109  1.5112  1.4771  0.4850
 4628TIP3   OH235442   6.656   2.911   7.791  0.0703 -0.1102  0.3093
 4628TIP3    H135443   6.666   2.821   7.821 -0.6449  0.3422  1.9728
 4628TIP3    H235444   6.573   2.911   7.743  0.8559 -0.6608 -1.1361
 4629TIP3   OH235445   1.734   2.783   1.178  0.1816  0.4408  0.2692
 4629TIP3    H135446   1.807   2.823   1.131  0.0103  0.9862  0.4677
 4629TIP3    H235447   1.693   2.855   1.226 -1.4523  0.4710 -1.0650
 4630TIP3   OH235448   5.033   0.205   6.603  0.1137  0.1602 -0.3245
 4630TIP3    H135449   5.025   0.144   6.676 -0.8645 -1.3894 -1.6704
 4630TIP3    H235450   5.119   0.186   6.565  0.8442  1.3126  0.6602
 4631TIP3   OH235451   2.628   5.525   5.834  0.6638  0.1469  0.0626
 4631TIP3    H135452   2.685   5.522   5.910  1.6517  1.0091 -0.6189
 4631TIP3    H235453   2.647   5.444   5.786 -0.2653 -0.6051  0.9093
 4632TIP3   OH235454   1.974   3.844   7.234 -0.0852  0.0287  0.1242
 4632TIP3    H135455   1.976   3.764   7.286  0.1075 -0.0386  0.0105
 4632TIP3    H235456   1.928   3.907   7.290 -0.1173 -0.1214  0.2677
 4633TIP3   OH235457   1.672   0.162   6.706 -0.4308  0.8553 -0.0366
 4633TIP3    H135458   1.648   0.191   6.617 -1.9810 -1.6598 -0.5522
 4633TIP3    H235459   1.713   0.076   6.693 -2.8324 -0.6954  1.7341
 4634TIP3   OH235460   2.327   3.174   6.656 -0.1637  0.3057 -0.3650
 4634TIP3    H135461   2.411   3.135   6.682  0.0663  0.8341 -0.3096
 4634TIP3    H235462   2.265   3.101   6.660  0.5676 -0.4365 -1.8561
 4635TIP3   OH235463   5.956   6.778   1.566 -0.3916 -0.1622 -0.0341
 4635TIP3    H135464   5.879   6.776   1.509 -0.8675 -1.0552  0.6148
 4635TIP3    H235465   5.921   6.797   1.653  0.2271  0.2893  0.1256
 4636TIP3   OH235466   1.096   7.028   0.252 -0.2624  0.0015  0.3850
 4636TIP3    H135467   1.142   7.000   0.331 -0.3371 -0.4308  0.2752
 4636TIP3    H235468   1.135   7.113   0.231 -0.3365  0.1835  0.9637
 4637TIP3   OH235469   2.113   0.729   7.622  0.0262 -0.0431 -0.4031
 4637TIP3    H135470   2.207   0.734   7.607  0.1253 -1.6642 -0.4188
 4637TIP3    H235471   2.102   0.740   7.716  0.0858  1.5791 -0.5541
 4638TIP3   OH235472   0.154   6.340   0.030  0.1731 -0.0480  0.3618
 4638TIP3    H135473   0.197   6.285  -0.035 -1.0662  0.6458 -1.1224
 4638TIP3    H235474   0.221   6.401   0.059  0.7828 -0.4566 -0.1662
 4639TIP3   OH235475   2.734   6.894   5.919 -0.1674  0.1037  0.7079
 4639TIP3    H135476   2.822   6.869   5.949  1.1500  0.2849 -2.5974
 4639TIP3    H235477   2.694   6.811   5.892 -0.5662  0.1627  1.1160
 4640TIP3   OH235478   0.340   5.644   6.409 -0.1024 -0.3771 -0.2578
 4640TIP3    H135479   0.409   5.581   6.386 -0.1231 -1.1525  1.6222
 4640TIP3    H235480   0.283   5.646   6.332  0.6309 -1.6517 -0.8734
 4641TIP3   OH235481   2.979   4.978   7.552 -0.6446 -0.7276 -0.2386
 4641TIP3    H135482   3.068   4.991   7.521 -0.5400  2.5395  1.0587
 4641TIP3    H235483   2.967   4.883   7.552  3.2925 -1.3748  0.8851
 4642TIP3   OH235484   0.193   1.860   0.736 -0.0018 -0.0475  0.6941
 4642TIP3    H135485   0.274   1.905   0.711  0.2440 -0.4214  0.8136
 4642TIP3    H235486   0.176   1.892   0.825 -1.4554  2.1079 -0.2771
 4643TIP3   OH235487   1.818   4.696   7.782 -0.0121 -0.0355 -0.5023
 4643TIP3    H135488   1.868   4.777   7.773  0.0046 -0.1297 -1.4410
 4643TIP3    H235489   1.758   4.711   7.855  0.5690  0.5109 -0.1363
 4644TIP3   OH235490   0.367   0.149   7.215  0.0958  0.4214 -0.1003
 4644TIP3    H135491   0.447   0.097   7.221 -1.2612 -1.8116 -0.3961
 4644TIP3    H235492   0.327   0.122   7.132 -1.1066  1.2986  0.1691
 4645TIP3   OH235493   3.281   0.501   7.713 -0.1253  0.5184  0.5047
 4645TIP3    H135494   3.262   0.578   7.766 -0.3745  1.0558 -0.3347
 4645TIP3    H235495   3.261   0.529   7.623 -0.5994 -0.6536  0.2313
 4646TIP3   OH235496   5.141   0.395   0.340  0.6025  0.5840  0.2751
 4646TIP3    H135497   5.232   0.371   0.357  0.1791 -1.9998 -0.7059
 4646TIP3    H235498   5.103   0.407   0.427  1.6404  0.7827  0.7208
 4647TIP3   OH235499   5.463   5.953   0.811 -0.3262 -0.1950 -0.1585
 4647TIP3    H135500   5.458   5.952   0.716 -3.7447 -1.3870 -0.0740
 4647TIP3    H235501   5.543   5.904   0.831 -1.0196 -2.4405 -2.4180
 4648TIP3   OH235502   1.926   5.388   7.710 -0.1529 -0.0904 -0.4039
 4648TIP3    H135503   1.876   5.322   7.662 -0.5300  0.4389 -0.7545
 4648TIP3    H235504   1.862   5.427   7.770 -0.0661  0.3173 -0.5763
 4649TIP3   OH235505   2.271   0.768   0.294  0.2978  0.0982 -0.3343
 4649TIP3    H135506   2.204   0.728   0.350 -1.3373  5.0514  1.8396
 4649TIP3    H235507   2.229   0.777   0.209  0.1510 -1.3029 -0.4285
 4650TIP3   OH235508   5.587   6.553   1.186  0.1532 -0.0494  0.3859
 4650TIP3    H135509   5.633   6.629   1.151  2.9885 -0.4628  2.7761
 4650TIP3    H235510   5.630   6.536   1.270 -1.9835 -2.8606  1.0618
 4651TIP3   OH235511   6.636   4.727   6.446 -0.0803  0.5299  0.4195
 4651TIP3    H135512   6.566   4.792   6.435 -0.2644  0.4749  1.2103
 4651TIP3    H235513   6.713   4.768   6.407 -0.5785  0.5351 -0.5830
 4652TIP3   OH235514   6.419   2.347   6.953  0.2653  0.7888  0.1652
 4652TIP3    H135515   6.359   2.415   6.984  1.7484  2.2235  0.0184
 4652TIP3    H235516   6.365   2.291   6.898 -1.1158  1.5615  0.6749
 4653TIP3   OH235517   6.200   1.884   1.624  0.1264  0.2472 -0.1220
 4653TIP3    H135518   6.183   1.791   1.607 -1.0683  0.6810 -1.4371
 4653TIP3    H235519   6.211   1.889   1.719  0.3756 -1.2585 -0.0507
 4654TIP3   OH235520   0.273   3.787   7.478  0.5462 -0.3092 -0.1744
 4654TIP3    H135521   0.277   3.847   7.404  0.8083 -0.3883 -0.2249
 4654TIP3    H235522   0.364   3.773   7.503  0.5154 -0.9723 -0.4002
 4655TIP3   OH235523   6.574   4.850   0.531  0.1231  0.9924  0.1431
 4655TIP3    H135524   6.666   4.870   0.516 -0.1251  1.7570 -0.4479
 4655TIP3    H235525   6.559   4.875   0.622  1.2390 -2.1274  1.3272
 4656TIP3   OH235526   4.653   1.540   1.604  0.0664  0.0041 -0.0293
 4656TIP3    H135527   4.710   1.466   1.627 -0.6893 -0.1678  1.4350
 4656TIP3    H235528   4.612   1.565   1.687  0.8154  2.5403 -0.3365
 4657TIP3   OH235529   1.640   3.640   7.073 -0.3281 -0.1623 -0.2172
 4657TIP3    H135530   1.639   3.733   7.092 -0.7230 -0.2291  0.1012
 4657TIP3    H235531   1.733   3.617   7.068 -0.2247  0.0374  0.7210
 4658TIP3   OH235532   3.732   6.777   0.449 -0.6265  0.8846 -0.2879
 4658TIP3    H135533   3.700   6.748   0.535 -0.2170  2.7650  0.5500
 4658TIP3    H235534   3.678   6.729   0.386 -0.0081 -1.6272  0.9533
 4659TIP3   OH235535   2.172   6.926   1.702 -0.0517 -0.0673 -0.4726
 4659TIP3    H135536   2.120   6.886   1.772  0.7315  0.4453  0.4240
 4659TIP3    H235537   2.237   6.859   1.679  0.2874  0.1157 -0.0478
 4660TIP3   OH235538   3.650   4.711   0.083 -0.0456  0.5201  0.3594
 4660TIP3    H135539   3.570   4.757   0.110  0.7943  2.5879 -0.5322
 4660TIP3    H235540   3.715   4.737   0.148  0.1734 -0.4486  0.5563
 4661TIP3   OH235541   6.671   5.295   6.401  0.0325  0.0581 -0.3176
 4661TIP3    H135542   6.619   5.237   6.345  0.4427  0.4039 -1.0904
 4661TIP3    H235543   6.761   5.278   6.374  0.4507 -1.3592  1.7892
 4662TIP3   OH235544   6.551   2.979   5.597 -0.6593 -0.2279 -0.0036
 4662TIP3    H135545   6.594   2.997   5.513 -0.1951 -1.5665 -0.0790
 4662TIP3    H235546   6.485   3.048   5.605 -2.6446 -1.5964 -2.8194
 4663TIP3   OH235547   2.020   0.157   6.495  0.2106 -0.0212  0.1137
 4663TIP3    H135548   1.996   0.220   6.563  1.0179  0.7858 -0.3299
 4663TIP3    H235549   1.983   0.194   6.414 -2.1806 -1.7699  0.2720
 4664TIP3   OH235550   4.460   4.073   6.849 -0.0479 -0.4465 -0.0018
 4664TIP3    H135551   4.394   4.107   6.910 -0.1986  0.1077 -0.4670
 4664TIP3    H235552   4.499   4.151   6.810  0.8790 -0.7702  0.2560
 4665TIP3   OH235553   5.896   1.422   7.229 -0.5354  0.5571 -0.3070
 4665TIP3    H135554   5.913   1.509   7.264  1.6151  0.0143  0.1161
 4665TIP3    H235555   5.954   1.414   7.154 -1.9827  0.1017 -1.4244
 4666TIP3   OH235556   2.454   2.355   1.206  0.5154  0.7088  0.5594
 4666TIP3    H135557   2.399   2.281   1.233  1.5409 -0.0482  0.6351
 4666TIP3    H235558   2.449   2.417   1.279 -0.1394  0.5952  0.6114
 4667TIP3   OH235559   5.083   2.393   0.726  0.5060  0.5277 -0.1011
 4667TIP3    H135560   4.994   2.379   0.694  0.7392 -0.3098 -0.4111
 4667TIP3    H235561   5.089   2.339   0.805  0.6659  0.7645  0.0512
 4668TIP3   OH235562   5.371   2.440   0.413 -0.2943  0.5623 -0.1421
 4668TIP3    H135563   5.355   2.357   0.369  0.2375  0.8981 -0.9909
 4668TIP3    H235564   5.402   2.499   0.344  2.2007  0.6397  0.9366
 4669TIP3   OH235565   0.936   6.004   7.672 -0.0322  0.1671 -0.0177
 4669TIP3    H135566   0.876   6.014   7.598  1.1875 -0.0087 -1.0669
 4669TIP3    H235567   1.015   5.964   7.634  1.7191  2.5635  0.7801
 4670TIP3   OH235568   2.328   5.222   0.670 -0.6136 -0.1243 -0.7578
 4670TIP3    H135569   2.357   5.131   0.682 -0.0330  0.3597  2.5289
 4670TIP3    H235570   2.274   5.240   0.747  0.0625  2.5781 -0.8255
 4671TIP3   OH235571   3.102   5.442   7.762  0.2102  0.0898 -0.5820
 4671TIP3    H135572   3.149   5.502   7.820 -0.4261 -0.4607  0.5366
 4671TIP3    H235573   3.055   5.383   7.821 -1.5362  0.3524 -1.6344
 4672TIP3   OH235574   6.910   2.986   2.013  0.2183 -0.1363  0.5495
 4672TIP3    H135575   6.840   2.976   1.948  0.3769  2.5797 -0.1719
 4672TIP3    H235576   6.872   2.954   2.095 -0.6016 -1.9930 -0.5020
 4673TIP3   OH235577   4.652   3.301   0.578 -0.4969 -0.4140  0.9741
 4673TIP3    H135578   4.661   3.396   0.577  1.5053 -0.5527 -0.7962
 4673TIP3    H235579   4.572   3.284   0.528 -0.1629  0.3103  0.1731
 4674TIP3   OH235580   0.802   5.023   6.712  0.6472 -0.0471  0.0625
 4674TIP3    H135581   0.743   4.951   6.691 -1.1690  1.1718  0.8202
 4674TIP3    H235582   0.807   5.025   6.807 -0.1533  1.4446  0.0996
 4675TIP3   OH235583   4.753   6.370   1.317  0.7706 -0.3258 -0.8040
 4675TIP3    H135584   4.829   6.426   1.300  1.9098 -1.7943 -0.8529
 4675TIP3    H235585   4.784   6.308   1.383  0.3003 -2.2046 -2.2637
 4676TIP3   OH235586   4.176   5.047   1.325  0.6130  0.1714  0.1503
 4676TIP3    H135587   4.085   5.063   1.351  0.4423 -0.7271  0.1380
 4676TIP3    H235588   4.202   4.972   1.378  1.1784  0.0956 -0.2386
 4677TIP3   OH235589   1.344   3.385   5.752 -0.4452  0.1169  0.4837
 4677TIP3    H135590   1.369   3.321   5.685 -0.8630 -0.3754  0.7905
 4677TIP3    H235591   1.401   3.460   5.735 -0.8388  0.1700 -0.6921
 4678TIP3   OH235592   0.500   5.299   1.724 -0.0979 -0.2478  0.4358
 4678TIP3    H135593   0.539   5.353   1.794  0.6004 -0.1096 -0.0454
 4678TIP3    H235594   0.421   5.263   1.763 -0.2186  0.5807  0.9969
 4679TIP3   OH235595   1.197   1.887   7.517  0.6556  0.7481  0.2590
 4679TIP3    H135596   1.245   1.970   7.518  1.6886  0.1886 -1.0757
 4679TIP3    H235597   1.129   1.899   7.450  0.5961  0.6209  0.2949
 4680TIP3   OH235598   6.156   4.107   0.315  0.2247 -0.4351 -0.1416
 4680TIP3    H135599   6.140   4.014   0.332  0.4357 -0.3288  0.6863
 4680TIP3    H235600   6.077   4.151   0.345  0.6696 -0.2284  0.7634
 4681TIP3   OH235601   5.114   6.039   5.738 -0.6473  0.0003 -0.2406
 4681TIP3    H135602   5.148   5.968   5.793 -0.2854  0.6995  0.4564
 4681TIP3    H235603   5.057   5.995   5.675 -2.6272 -0.6692  1.8844
 4682TIP3   OH235604   1.522   0.334   0.986 -0.4106  0.0298 -0.2131
 4682TIP3    H135605   1.526   0.356   0.893  0.0699 -0.0474 -0.2131
 4682TIP3    H235606   1.532   0.418   1.031  0.3718 -0.0454 -0.2253
 4683TIP3   OH235607   4.688   2.793   7.851  0.2943 -0.8711  0.0179
 4683TIP3    H135608   4.762   2.852   7.864  0.6455 -1.0353 -1.1823
 4683TIP3    H235609   4.621   2.827   7.910  0.6604  0.4367 -0.2755
 4684TIP3   OH235610   4.500   2.550   6.448  0.0767 -0.2825  0.5465
 4684TIP3    H135611   4.510   2.625   6.389  1.4202  0.1146  1.2350
 4684TIP3    H235612   4.416   2.565   6.491  0.9054  1.5693  1.6392
 4685TIP3   OH235613   0.973   2.825   7.522 -0.1107 -0.5839 -0.5482
 4685TIP3    H135614   1.015   2.815   7.437  0.2979 -0.9895 -0.3071
 4685TIP3    H235615   0.896   2.878   7.505  0.6697  0.4505 -0.9485
 4686TIP3   OH235616   1.271   4.899   0.625  0.1692 -0.0158 -0.5180
 4686TIP3    H135617   1.247   4.856   0.543  0.0241  0.4109 -0.7044
 4686TIP3    H235618   1.207   4.868   0.688 -1.0086  1.2150 -1.0398
 4687TIP3   OH235619   3.501   3.058   7.321  0.1829  0.2276 -0.5346
 4687TIP3    H135620   3.503   2.978   7.267  2.1294 -0.4543  0.4749
 4687TIP3    H235621   3.451   3.033   7.398 -1.5989  0.8610 -1.4268
 4688TIP3   OH235622   4.629   2.729   7.507 -0.1034 -0.0877  0.3422
 4688TIP3    H135623   4.593   2.684   7.584  1.6122 -0.6187  0.8865
 4688TIP3    H235624   4.643   2.819   7.537  0.5111 -0.2800  0.6650
 4689TIP3   OH235625   2.550   0.677   1.864  0.5829 -0.3600 -0.5930
 4689TIP3    H135626   2.597   0.751   1.902 -0.3071  0.2977 -0.7319
 4689TIP3    H235627   2.545   0.697   1.770  0.0843 -0.4338 -0.5880
 4690TIP3   OH235628   6.059   2.680   5.872  0.0560 -0.1572 -0.0446
 4690TIP3    H135629   6.000   2.660   5.799 -1.2787 -0.4678  1.0817
 4690TIP3    H235630   6.134   2.623   5.858  0.3188  0.5338 -1.7356
 4691TIP3   OH235631   5.706   5.089   1.220  0.1222 -0.7986 -0.0054
 4691TIP3    H135632   5.726   5.014   1.164  2.3964 -0.5513  0.3890
 4691TIP3    H235633   5.766   5.081   1.293  1.5349  2.1804 -0.7048
 4692TIP3   OH235634   0.093   0.728   7.210 -0.1078  0.0590 -0.1063
 4692TIP3    H135635  -0.002   0.725   7.197 -0.2238  0.2714  0.6331
 4692TIP3    H235636   0.123   0.797   7.151 -0.3204 -0.4566 -0.8278
 4693TIP3   OH235637   5.925   3.318   1.376  0.0746  0.2376  0.1730
 4693TIP3    H135638   5.935   3.237   1.425  0.1642 -0.8274 -1.5239
 4693TIP3    H235639   5.841   3.353   1.404 -0.5424 -1.0903  0.0562
 4694TIP3   OH235640   2.514   7.103   7.309 -0.3810  0.3877 -0.2110
 4694TIP3    H135641   2.517   7.020   7.262  0.5253  1.3373 -1.9516
 4694TIP3    H235642   2.436   7.098   7.363  1.0326 -2.6300  1.8394
 4695TIP3   OH235643   4.663   4.828   1.768 -0.1229  0.4692 -1.1841
 4695TIP3    H135644   4.580   4.868   1.792 -1.4399 -2.2384 -0.8704
 4695TIP3    H235645   4.726   4.868   1.829 -1.5538  1.1183 -0.0457
 4696TIP3   OH235646   4.431   2.613   8.010  0.0526  0.2574 -1.0045
 4696TIP3    H135647   4.368   2.543   7.993  1.5780 -1.1346 -1.2481
 4696TIP3    H235648   4.471   2.590   8.094 -0.0431  1.3291 -0.6542
 4697TIP3   OH235649   6.828   3.503   1.393  0.7278 -0.3779  0.4403
 4697TIP3    H135650   6.747   3.554   1.396  1.7317  2.0230 -4.1162
 4697TIP3    H235651   6.802   3.421   1.350  0.1656 -1.1924  2.2693
 4698TIP3   OH235652   1.228   2.603   0.602 -0.7918 -0.0374 -0.4543
 4698TIP3    H135653   1.315   2.572   0.576 -0.5621  0.9664 -0.9652
 4698TIP3    H235654   1.234   2.618   0.696 -0.0923  0.9339 -0.6329
 4699TIP3   OH235655   2.471   0.514   1.043  0.5039 -0.2778 -0.4007
 4699TIP3    H135656   2.548   0.458   1.034  0.8078 -0.0633  0.7544
 4699TIP3    H235657   2.405   0.459   1.083  0.4336 -0.1330 -0.3152
 4700TIP3   OH235658   4.943   5.108   7.297  0.1492 -0.2313 -0.0259
 4700TIP3    H135659   4.944   5.185   7.354 -0.6657 -0.2648  0.0464
 4700TIP3    H235660   4.958   5.142   7.209 -0.2450  0.0226  0.0019
 4701TIP3   OH235661   5.709   1.572   6.240  0.1191  0.3007  0.7882
 4701TIP3    H135662   5.690   1.595   6.149  2.2978 -0.0961  0.1825
 4701TIP3    H235663   5.623   1.571   6.283 -1.1757 -1.1033 -1.6177
 4702TIP3   OH235664   0.168   6.321   5.887  0.1232 -0.3003 -0.0102
 4702TIP3    H135665   0.125   6.268   5.820 -2.0896 -0.9225  1.7522
 4702TIP3    H235666   0.249   6.275   5.907 -1.8088 -3.3568  1.6196
 4703TIP3   OH235667   6.374   0.745   8.023  0.7896  0.5262 -0.4304
 4703TIP3    H135668   6.349   0.691   8.098  0.4176  1.3865  0.0755
 4703TIP3    H235669   6.395   0.830   8.061  2.5694  0.4146 -1.0726
 4704TIP3   OH235670   4.490   5.200   7.324 -0.1893  0.3192 -0.2452
 4704TIP3    H135671   4.538   5.129   7.281  0.6695  0.8588 -0.2093
 4704TIP3    H235672   4.399   5.189   7.294  0.1948  0.0777 -1.3914
 4705TIP3   OH235673   2.602   0.367   6.490  0.0969 -0.0994  0.4933
 4705TIP3    H135674   2.597   0.325   6.404 -0.5916 -0.4102  0.6822
 4705TIP3    H235675   2.634   0.297   6.548 -1.8033 -0.6340  0.9669
 4706TIP3   OH235676   2.355   3.570   0.953 -0.1247 -0.4360  0.3253
 4706TIP3    H135677   2.391   3.566   1.042 -0.7154 -1.8992  0.5158
 4706TIP3    H235678   2.305   3.652   0.951  0.9366  0.2523  0.9185
 4707TIP3   OH235679   2.943   7.099   0.127 -0.3371 -0.3073 -0.4876
 4707TIP3    H135680   2.898   7.077   0.045  0.1390  1.1083 -1.1563
 4707TIP3    H235681   2.923   7.026   0.185 -0.0447 -1.7495 -2.1097
 4708TIP3   OH235682   5.418   1.003   0.180 -0.4525 -0.3296 -0.0111
 4708TIP3    H135683   5.426   0.928   0.121  1.7346  0.3478 -0.6913
 4708TIP3    H235684   5.428   1.079   0.123  1.6850  0.3370  1.1592
 4709TIP3   OH235685   3.642   2.734   1.121 -0.3129 -0.0989  0.6886
 4709TIP3    H135686   3.652   2.829   1.120 -0.3009 -0.0996  0.2155
 4709TIP3    H235687   3.683   2.706   1.203  1.9238  0.0921 -0.2839
 4710TIP3   OH235688   3.242   1.947   7.959 -0.6678  0.2770  0.2571
 4710TIP3    H135689   3.202   1.977   8.041  0.5952  0.7710  0.7140
 4710TIP3    H235690   3.335   1.965   7.970 -0.2958 -0.9259 -0.7419
 4711TIP3   OH235691   0.061   4.619   0.911 -0.5147 -0.4504  0.2349
 4711TIP3    H135692   0.001   4.545   0.907 -2.0351  0.7747 -1.1270
 4711TIP3    H235693   0.009   4.691   0.948  0.4415  0.3803  0.0328
 4712TIP3   OH235694   1.942   4.740   0.148  0.4656 -0.5861  0.0812
 4712TIP3    H135695   2.021   4.704   0.107  0.1606 -0.3475 -0.7299
 4712TIP3    H235696   1.926   4.822   0.102  1.1629  0.6459  1.9266
 4713TIP3   OH235697   4.843   4.663   5.949 -0.2329  0.1632 -0.1746
 4713TIP3    H135698   4.797   4.636   5.869 -1.5975  1.5263  0.1162
 4713TIP3    H235699   4.793   4.737   5.982 -0.3510 -1.0040  2.5524
 4714TIP3   OH235700   3.097   0.781   5.905 -0.4213 -0.4244 -0.0434
 4714TIP3    H135701   3.063   0.866   5.933 -2.3164 -1.4655  1.0808
 4714TIP3    H235702   3.150   0.751   5.979 -0.3910 -0.5269 -0.1070
 4715TIP3   OH235703   3.346   0.140   6.357 -0.0182 -0.0994 -0.5074
 4715TIP3    H135704   3.424   0.191   6.377  0.4496 -0.4737 -1.3335
 4715TIP3    H235705   3.302   0.130   6.441  0.9935 -0.1654  0.0239
 4716TIP3   OH235706   2.967   3.129   7.375  0.1410  0.1365 -0.1590
 4716TIP3    H135707   2.882   3.145   7.415  0.7007  1.4141  0.5605
 4716TIP3    H235708   2.957   3.158   7.284 -0.6257 -1.1974 -0.5423
 4717TIP3   OH235709   5.261   6.802   1.386  0.2322 -0.3411  0.1216
 4717TIP3    H135710   5.297   6.889   1.366 -0.1131 -0.2429 -0.0887
 4717TIP3    H235711   5.167   6.818   1.398  0.3972 -0.4157  1.7342
 4718TIP3   OH235712   2.127   3.001   6.626 -0.0990  0.7487 -0.3609
 4718TIP3    H135713   2.048   3.024   6.578 -1.2895 -0.1942  1.0659
 4718TIP3    H235714   2.159   2.922   6.584 -1.0692 -0.0047  0.2635
 4719TIP3   OH235715   1.239   1.060   6.957 -0.2778 -0.6876 -0.0994
 4719TIP3    H135716   1.271   1.150   6.959 -1.7449 -0.1187 -0.9485
 4719TIP3    H235717   1.144   1.068   6.970 -0.2059 -2.2781  2.0009
 4720TIP3   OH235718   4.016   3.540   5.568  0.1498  0.5921  0.1327
 4720TIP3    H135719   4.055   3.500   5.645  0.8977  0.9940 -0.0266
 4720TIP3    H235720   4.083   3.600   5.535  0.1668 -0.1793 -1.2973
 4721TIP3   OH235721   1.750   3.181   2.384  0.0076  0.3097  0.4039
 4721TIP3    H135722   1.814   3.219   2.444 -0.0889 -0.5910  1.0876
 4721TIP3    H235723   1.751   3.240   2.308 -0.5478  2.0111  1.6544
 4722TIP3   OH235724   4.173   3.592   7.287  0.1108  0.3558  0.3550
 4722TIP3    H135725   4.230   3.524   7.251  0.0119  0.1184  0.6423
 4722TIP3    H235726   4.232   3.666   7.304  0.1630  0.4603 -0.2581
 4723TIP3   OH235727   3.317   1.512   7.597 -0.6408 -0.1054 -0.1102
 4723TIP3    H135728   3.307   1.558   7.514  3.2472  0.0981 -0.6376
 4723TIP3    H235729   3.287   1.575   7.663  0.0427  1.3292 -1.1231
 4724TIP3   OH235730   6.437   4.299   1.815  0.3226 -0.3394  0.2508
 4724TIP3    H135731   6.523   4.293   1.856  1.0149 -0.4637 -1.1854
 4724TIP3    H235732   6.376   4.274   1.885  1.0663  3.2665  2.4547
 4725TIP3   OH235733   4.515   1.713   6.645  0.2770  0.4386 -0.0240
 4725TIP3    H135734   4.545   1.633   6.603 -0.8096 -1.5045  2.6166
 4725TIP3    H235735   4.569   1.720   6.724 -1.7134  0.5092  1.4018
 4726TIP3   OH235736   0.051   4.591   5.646 -0.4531  0.4045  0.2793
 4726TIP3    H135737  -0.025   4.538   5.626 -0.1211  0.4791 -1.3099
 4726TIP3    H235738   0.101   4.539   5.709  0.1185 -1.4390 -1.5950
 4727TIP3   OH235739   6.809   1.413   6.742 -0.2957 -0.7123  0.1191
 4727TIP3    H135740   6.748   1.363   6.687 -0.9570 -1.2125  1.2632
 4727TIP3    H235741   6.870   1.452   6.681 -0.9967 -1.2721 -0.9695
 4728TIP3   OH235742   6.162   2.464   0.918  0.8133  1.1875  0.6638
 4728TIP3    H135743   6.137   2.466   0.826 -1.5655 -0.2063  1.1887
 4728TIP3    H235744   6.241   2.409   0.920  0.8519  1.1819 -0.5385
 4729TIP3   OH235745   6.158   1.473   7.502 -0.2799 -0.0378  0.7638
 4729TIP3    H135746   6.205   1.488   7.419 -0.6306  1.4323  0.8014
 4729TIP3    H235747   6.205   1.401   7.543  1.1516  0.5276  0.1924
 4730TIP3   OH235748   1.121   3.452   6.830  0.2200 -0.0485  0.1241
 4730TIP3    H135749   1.046   3.457   6.888  0.2896 -0.4140  0.2481
 4730TIP3    H235750   1.102   3.515   6.760 -1.6004 -2.1967 -1.4788
 4731TIP3   OH235751   6.130   0.294   0.657  0.6065 -0.4800 -0.1836
 4731TIP3    H135752   6.178   0.361   0.608 -0.0603  0.2544  0.1414
 4731TIP3    H235753   6.046   0.287   0.612  1.1085 -1.9832 -0.9366
 4732TIP3   OH235754   2.925   3.735   6.570 -0.3014 -0.1585  0.0706
 4732TIP3    H135755   2.876   3.684   6.506 -1.0156  0.3685  0.1932
 4732TIP3    H235756   2.925   3.681   6.649  1.3999 -1.2501 -0.6093
 4733TIP3   OH235757   1.850   1.993   8.030  0.3520 -0.9228  0.0428
 4733TIP3    H135758   1.860   2.072   8.084 -0.5436 -2.3437  2.4554
 4733TIP3    H235759   1.883   2.019   7.944  3.2317  1.1013  1.5675
 4734TIP3   OH235760   5.310   2.846   0.598 -0.3846 -0.2122  0.0983
 4734TIP3    H135761   5.234   2.848   0.656  0.0899 -1.8729  0.8403
 4734TIP3    H235762   5.282   2.791   0.525 -0.6003  0.9509 -0.7207
 4735TIP3   OH235763   4.667   0.643   0.658  0.7117 -0.3055 -0.6391
 4735TIP3    H135764   4.593   0.658   0.599 -0.0427 -0.8491  0.1452
 4735TIP3    H235765   4.724   0.719   0.645 -1.1156  1.3266  0.4346
 4736TIP3   OH235766   0.333   4.402   6.823  0.6185  0.3769 -0.0998
 4736TIP3    H135767   0.376   4.320   6.846 -0.2260 -0.2369 -0.6050
 4736TIP3    H235768   0.399   4.451   6.774  2.1339  1.3301  2.7334
 4737TIP3   OH235769   3.204   6.767   0.236  0.6051  0.4226 -0.1706
 4737TIP3    H135770   3.223   6.861   0.243 -0.4323  0.6285  0.0569
 4737TIP3    H235771   3.259   6.737   0.164 -0.1039  1.5098 -1.2072
 4738TIP3   OH235772   4.062   0.229   1.109  0.4453 -0.4251 -0.0736
 4738TIP3    H135773   4.132   0.292   1.095  0.7527 -0.8061 -0.2424
 4738TIP3    H235774   4.067   0.170   1.035  0.0386 -0.5438 -0.0099
 4739TIP3   OH235775   3.949   3.913   0.986 -0.2129  0.4773 -0.4620
 4739TIP3    H135776   3.940   3.889   1.078 -1.6665  0.6313 -0.5499
 4739TIP3    H235777   3.863   3.945   0.961 -0.6263 -1.9436 -2.5533
 4740TIP3   OH235778   1.614   5.068   6.976 -0.3374 -0.2412 -0.4572
 4740TIP3    H135779   1.626   5.097   6.886  0.1108 -0.5078 -0.4855
 4740TIP3    H235780   1.525   5.030   6.978 -2.2901  3.8546  0.3132
 4741TIP3   OH235781   1.085   0.982   6.295  0.2640 -0.3081 -0.4797
 4741TIP3    H135782   0.997   0.980   6.332  0.0595 -0.0451 -0.9337
 4741TIP3    H235783   1.129   1.055   6.339 -0.3147  0.6738 -1.4680
 4742TIP3   OH235784   3.689   2.966   1.331  0.4834 -0.2789  0.7505
 4742TIP3    H135785   3.602   3.004   1.346  1.5686  1.9656  1.9039
 4742TIP3    H235786   3.704   2.911   1.408  1.2645  1.8322  2.2104
 4743TIP3   OH235787   6.408   1.955   2.057  0.1916  0.3277  0.2996
 4743TIP3    H135788   6.348   1.936   2.129  0.0893 -1.3299 -0.1652
 4743TIP3    H235789   6.447   1.870   2.037 -0.4353  0.5465 -2.1495
 4744TIP3   OH235790   3.819   3.964   7.780 -0.4387 -0.7069 -0.1655
 4744TIP3    H135791   3.811   4.035   7.717  2.6817  0.1604  0.2463
 4744TIP3    H235792   3.737   3.965   7.828 -2.4964 -0.6745 -3.3635
 4745TIP3   OH235793   3.604   5.597   6.524 -0.5755  0.0291 -0.3296
 4745TIP3    H135794   3.617   5.682   6.567 -0.5292 -0.8531  1.4727
 4745TIP3    H235795   3.627   5.613   6.433 -0.9786  2.0588 -0.1235
 4746TIP3   OH235796   2.129   5.733   6.138 -0.1511  0.0411 -0.2247
 4746TIP3    H135797   2.070   5.808   6.146 -1.6303 -1.0600 -0.3788
 4746TIP3    H235798   2.126   5.710   6.045  0.5737 -0.0099 -0.2454
 4747TIP3   OH235799   6.520   5.278   1.292 -0.2656  0.4074  0.1196
 4747TIP3    H135800   6.457   5.342   1.258  0.3053  0.4961 -0.7902
 4747TIP3    H235801   6.605   5.321   1.283  0.1238 -0.4593 -0.4659
 4748TIP3   OH235802   1.580   2.362   1.257 -0.6363  0.1958  0.3504
 4748TIP3    H135803   1.501   2.324   1.217 -0.0866 -0.5611 -0.0504
 4748TIP3    H235804   1.624   2.407   1.185 -1.3105  1.6756  0.8387
 4749TIP3   OH235805   6.291   0.077   0.257 -0.4764 -0.3409  0.0774
 4749TIP3    H135806   6.205   0.100   0.223  0.4783  1.0649 -1.5418
 4749TIP3    H235807   6.319   0.156   0.305  0.3699 -0.3304 -0.4108
 4750TIP3   OH235808   6.801   6.211   0.818  0.2159 -0.2759  0.4394
 4750TIP3    H135809   6.844   6.257   0.889  0.0887  1.0788 -0.3228
 4750TIP3    H235810   6.707   6.224   0.834  0.1919  0.6716 -0.3355
 4751TIP3   OH235811   5.555   0.270   6.575 -0.4657 -0.2267  0.4294
 4751TIP3    H135812   5.580   0.343   6.518 -0.0790  0.4883  1.4875
 4751TIP3    H235813   5.635   0.219   6.584 -0.4108 -0.1002  0.6699
 4752TIP3   OH235814   3.887   4.659   0.910 -0.4558 -0.2931  0.4663
 4752TIP3    H135815   3.923   4.735   0.956  2.7632 -0.4299 -1.5227
 4752TIP3    H235816   3.831   4.696   0.841  2.1092  0.4891 -1.3274
 4753TIP3   OH235817   2.985   0.856   0.074  0.9287 -0.5365 -0.5762
 4753TIP3    H135818   3.075   0.852   0.107  1.1784  1.3886 -0.9182
 4753TIP3    H235819   2.994   0.855  -0.021  0.5694 -0.5797 -0.6121
 4754TIP3   OH235820   2.752   3.652   6.324 -0.0350 -0.3162  0.1645
 4754TIP3    H135821   2.724   3.624   6.237  0.3367 -1.9993  0.5491
 4754TIP3    H235822   2.741   3.574   6.378  0.0143  0.6282  1.5702
 4755TIP3   OH235823   2.302   3.629   6.366  0.3160  0.6979 -0.6454
 4755TIP3    H135824   2.364   3.572   6.320 -0.6138 -1.0952  0.2245
 4755TIP3    H235825   2.356   3.683   6.423  1.1187 -0.8623  0.1289
 4756TIP3   OH235826   1.893   6.136   6.646 -0.2111 -0.0122 -0.6125
 4756TIP3    H135827   1.888   6.040   6.647  1.0703 -0.1659  2.3566
 4756TIP3    H235828   1.838   6.163   6.720  0.6162  1.4196 -0.4906
 4757TIP3   OH235829   4.301   4.747   6.201  0.5004 -0.2336 -0.0546
 4757TIP3    H135830   4.220   4.700   6.221  1.2309 -1.1004  1.0145
 4757TIP3    H235831   4.279   4.804   6.128 -1.4695  0.6236  1.1401
 4758TIP3   OH235832   4.391   5.783   6.805 -0.5863 -0.3681 -0.1461
 4758TIP3    H135833   4.350   5.697   6.812  0.6933 -0.9534  0.3541
 4758TIP3    H235834   4.474   5.775   6.851 -0.1363  0.9474 -0.6570
 4759TIP3   OH235835   4.421   4.829   7.570 -0.2697  0.0979  0.4092
 4759TIP3    H135836   4.419   4.735   7.585  0.1153  0.1469  0.7856
 4759TIP3    H235837   4.502   4.843   7.519 -1.4727 -0.0530 -1.6658
 4760TIP3   OH235838   6.841   6.633   6.822  0.0853 -0.1185  0.4306
 4760TIP3    H135839   6.829   6.539   6.833 -0.2322 -0.3212 -1.3142
 4760TIP3    H235840   6.759   6.672   6.853 -1.2899 -0.7410 -2.1413
 4761TIP3   OH235841   1.698   2.420   0.298  0.0355  0.1019 -0.1859
 4761TIP3    H135842   1.691   2.515   0.283 -0.4682  0.0899 -0.0401
 4761TIP3    H235843   1.649   2.405   0.379 -0.4450 -0.3740 -0.5542
 4762TIP3   OH235844   4.320   1.554   0.157 -0.1317 -0.0680 -0.3565
 4762TIP3    H135845   4.350   1.467   0.183 -1.0897 -0.3465 -0.1405
 4762TIP3    H235846   4.310   1.549   0.062 -0.9284 -0.4378 -0.2571
 4763TIP3   OH235847   6.367   6.506   1.643  0.3397  0.1982  0.5360
 4763TIP3    H135848   6.290   6.523   1.590  0.8955  1.3504  0.0739
 4763TIP3    H235849   6.387   6.414   1.628 -0.8836 -0.0945  0.6031
 4764TIP3   OH235850   2.519   0.804   6.035  0.1106 -0.3761  0.5794
 4764TIP3    H135851   2.468   0.882   6.057 -0.9532 -0.7259 -0.4994
 4764TIP3    H235852   2.513   0.798   5.939  0.3244 -1.6575  0.6236
 4765TIP3   OH235853   2.606   3.213   1.057 -0.1486 -0.2658 -0.2044
 4765TIP3    H135854   2.569   3.141   1.006  0.1816 -1.1875  0.8310
 4765TIP3    H235855   2.555   3.214   1.138  1.0566 -0.5551  0.5760
 4766TIP3   OH235856   0.016   1.311   7.452 -0.2138 -0.0372 -0.4184
 4766TIP3    H135857  -0.079   1.295   7.453 -0.0971 -0.8356 -1.1089
 4766TIP3    H235858   0.051   1.244   7.393  1.0187 -1.0857  1.3991
 4767TIP3   OH235859   2.933   1.297   7.624  0.7348  0.2953  0.2603
 4767TIP3    H135860   2.844   1.273   7.649  0.5410  1.4416  0.7322
 4767TIP3    H235861   2.967   1.221   7.577 -0.0646 -0.6139  1.1422
 4768TIP3   OH235862   2.458   2.838   6.074  0.3748  0.2362  0.5140
 4768TIP3    H135863   2.375   2.790   6.074  0.6649 -0.2965  1.3432
 4768TIP3    H235864   2.515   2.787   6.015  0.7581 -0.6180  1.5777
 4769TIP3   OH235865   1.158   3.689   1.056 -0.2456  0.2493 -0.2272
 4769TIP3    H135866   1.069   3.718   1.070 -0.5628 -0.8832  0.2259
 4769TIP3    H235867   1.179   3.637   1.133  1.0830  1.1162  0.0365
 4770TIP3   OH235868   6.757   4.570   0.800  0.1348  0.8172  0.5702
 4770TIP3    H135869   6.724   4.567   0.711  3.1614 -1.1200 -0.6645
 4770TIP3    H235870   6.833   4.628   0.796  1.9609 -1.3667  1.0874
 4771TIP3   OH235871   0.069   0.908   7.878  0.2324 -0.9663 -0.2156
 4771TIP3    H135872   0.056   0.838   7.941  0.1996 -0.8379 -0.0806
 4771TIP3    H235873   0.016   0.882   7.802 -0.8026 -0.4714  0.3074
 4772TIP3   OH235874   6.199   3.278   0.688  0.1461  0.0090 -0.7367
 4772TIP3    H135875   6.254   3.217   0.736 -1.3387 -1.6006 -1.0031
 4772TIP3    H235876   6.135   3.309   0.751 -1.0861 -1.2208 -1.3228
 4773TIP3   OH235877   2.204   6.824   1.416 -0.1378  0.2712 -0.1862
 4773TIP3    H135878   2.180   6.895   1.476  0.4502  1.0322 -0.8200
 4773TIP3    H235879   2.176   6.744   1.460 -0.2176  0.8545  0.8490
 4774TIP3   OH235880   2.301   3.320   7.962 -0.3009  0.3677  0.2109
 4774TIP3    H135881   2.396   3.324   7.964 -0.3208  1.1429  0.0628
 4774TIP3    H235882   2.273   3.401   8.004 -0.8802  0.8427 -1.0452
 4775TIP3   OH235883   1.352   2.886   6.993 -0.5624  0.1978  0.3595
 4775TIP3    H135884   1.299   2.957   7.029  0.5788  1.4714 -0.3792
 4775TIP3    H235885   1.438   2.898   7.032  0.1931  0.4825 -1.3397
 4776TIP3   OH235886   4.463   2.532   6.746 -0.0454  0.6367 -0.5026
 4776TIP3    H135887   4.557   2.526   6.758  0.2371  0.9941 -2.2398
 4776TIP3    H235888   4.426   2.467   6.805  1.1345  1.8488  1.6787
 4777TIP3   OH235889   5.011   0.931   0.375  0.3975  0.0019  0.2302
 4777TIP3    H135890   4.988   0.995   0.443 -0.5627 -1.8889  1.7782
 4777TIP3    H235891   4.961   0.853   0.397  1.6869 -1.3954 -1.4669
 4778TIP3   OH235892   6.845   2.293   0.850 -0.7002  0.0294  0.0602
 4778TIP3    H135893   6.884   2.300   0.763  0.7006 -2.0248  0.4396
 4778TIP3    H235894   6.763   2.246   0.836  0.4573 -2.0827 -0.0014
 4779TIP3   OH235895   1.329   5.339   0.653 -0.0072 -0.3589 -0.1596
 4779TIP3    H135896   1.255   5.300   0.606 -0.4207  0.9945 -0.6686
 4779TIP3    H235897   1.396   5.352   0.587 -0.1570  0.4842 -0.1532
 4780TIP3   OH235898   3.058   4.257   0.435 -0.4461  0.0663 -0.2751
 4780TIP3    H135899   3.087   4.281   0.523 -1.9218 -0.2776  0.3470
 4780TIP3    H235900   3.039   4.163   0.441  1.2385 -0.4010 -1.5140
 4781TIP3   OH235901   1.347   3.335   6.912  1.1357  0.0867  0.0423
 4781TIP3    H135902   1.265   3.374   6.883  0.7692  0.7618  1.8142
 4781TIP3    H235903   1.415   3.396   6.883  0.8517  0.3685 -0.0320
 4782TIP3   OH235904   4.132   5.615   0.797 -0.2798  0.0277 -0.1564
 4782TIP3    H135905   4.089   5.583   0.718 -1.2139 -1.1334  0.7915
 4782TIP3    H235906   4.095   5.563   0.868  1.3304  0.2905  0.9354
 4783TIP3   OH235907   3.275   0.677   6.761  0.1299  0.0597  0.0266
 4783TIP3    H135908   3.304   0.644   6.676 -1.3870  0.8987 -0.8469
 4783TIP3    H235909   3.225   0.756   6.741 -0.7339 -0.0295  1.6440
 4784TIP3   OH235910   6.997   6.277   6.280 -0.0080  0.4459 -0.3963
 4784TIP3    H135911   7.023   6.321   6.200 -0.7104  1.6228 -0.0014
 4784TIP3    H235912   6.934   6.336   6.321  1.8365  0.8926  2.0694
 4785TIP3   OH235913   6.971   0.404   0.653  0.0956 -0.1794  0.9676
 4785TIP3    H135914   6.970   0.484   0.705 -0.5772  0.0809  0.5614
 4785TIP3    H235915   7.054   0.409   0.605  0.3527 -0.0423  1.4158
 4786TIP3   OH235916   0.988   2.090   6.731  0.6222  0.5024  0.0541
 4786TIP3    H135917   1.012   1.999   6.714  0.5299  0.2850  0.9984
 4786TIP3    H235918   1.068   2.140   6.714  1.1621  0.0381  1.1169
 4787TIP3   OH235919   4.700   5.299   7.696 -0.3528  0.1586  0.2844
 4787TIP3    H135920   4.627   5.249   7.734  1.2215 -0.3684  2.8496
 4787TIP3    H235921   4.661   5.383   7.673 -1.7947 -0.0509  1.7241
 4788TIP3   OH235922   5.600   5.440   6.828 -0.2106  0.8382 -0.0650
 4788TIP3    H135923   5.663   5.370   6.808  0.2072  1.3120 -0.4312
 4788TIP3    H235924   5.515   5.401   6.809 -0.0589  0.0873  0.7244
 4789TIP3   OH235925   0.141   0.077   7.519  0.0567 -0.0748 -0.1938
 4789TIP3    H135926   0.048   0.056   7.512  0.3444 -2.1019  1.2669
 4789TIP3    H235927   0.146   0.144   7.587 -0.2402 -0.9338  0.6874
 4790TIP3   OH235928   1.599   3.250   1.302  0.4902  0.2604 -0.1424
 4790TIP3    H135929   1.601   3.242   1.397  0.2195 -0.3400 -0.1849
 4790TIP3    H235930   1.597   3.344   1.286 -0.9538  0.3522  0.4689
 4791TIP3   OH235931   4.974   5.031   6.694 -0.2151  0.4041 -0.6236
 4791TIP3    H135932   4.900   5.064   6.745  0.5064  1.3181 -0.1348
 4791TIP3    H235933   4.972   5.083   6.613  1.6020  2.5857  0.6251
 4792TIP3   OH235934   3.458   3.734   6.441  0.2622  0.1087 -0.6655
 4792TIP3    H135935   3.405   3.782   6.378  0.2520 -0.7699 -1.3344
 4792TIP3    H235936   3.397   3.713   6.512 -0.1534 -0.3675 -1.1500
 4793TIP3   OH235937   3.385   6.981   0.679 -0.5449 -0.0167  0.6072
 4793TIP3    H135938   3.364   7.075   0.683  0.7193  0.4384 -1.4754
 4793TIP3    H235939   3.465   6.972   0.731 -0.3709  0.1875  0.3822
 4794TIP3   OH235940   2.433   1.299   0.855  0.8982 -0.3317 -0.3744
 4794TIP3    H135941   2.481   1.380   0.870 -0.8227  0.4092  1.6776
 4794TIP3    H235942   2.499   1.230   0.862  1.9279  0.7348  0.7770
 4795TIP3   OH235943   6.822   5.978   1.455  0.3877  0.2302  0.5523
 4795TIP3    H135944   6.738   6.014   1.482 -0.2711 -0.6948 -0.1936
 4795TIP3    H235945   6.841   5.910   1.520  0.8721  0.8502  1.0715
 4796TIP3   OH235946   6.024   4.484   2.153 -0.0078 -0.2233  0.2199
 4796TIP3    H135947   6.097   4.464   2.211  0.2406  2.2127  0.8442
 4796TIP3    H235948   5.947   4.453   2.200  0.2602  1.0594  1.5678
 4797TIP3   OH235949   5.812   6.923   6.727 -0.0165  0.3197 -0.9582
 4797TIP3    H135950   5.848   6.940   6.814 -0.7165  1.8846 -0.9391
 4797TIP3    H235951   5.734   6.870   6.743  0.3574 -0.1656 -0.7189
 4798TIP3   OH235952   4.013   3.040   0.718  0.3512 -0.4320 -0.2968
 4798TIP3    H135953   3.983   3.034   0.809  2.0103  2.1009  0.5166
 4798TIP3    H235954   3.932   3.036   0.667 -0.7394 -0.7191  1.3589
 4799TIP3   OH235955   5.811   6.627   7.664  0.0748 -0.2096  0.2659
 4799TIP3    H135956   5.820   6.554   7.725 -1.0394 -0.8266 -0.2608
 4799TIP3    H235957   5.797   6.704   7.719  1.3663 -0.3511  0.8313
 4800TIP3   OH235958   3.818   3.410   6.212 -0.4863  0.0922 -0.1223
 4800TIP3    H135959   3.902   3.365   6.205 -0.2153  0.3731  1.1767
 4800TIP3    H235960   3.775   3.393   6.128 -0.0900 -1.9830  0.0238
 4801TIP3   OH235961   4.139   5.984   1.316  0.2231 -0.2822  0.1186
 4801TIP3    H135962   4.195   6.035   1.257 -1.0467  0.0521 -0.8425
 4801TIP3    H235963   4.193   5.970   1.394  1.0238  1.5794 -0.0403
 4802TIP3   OH235964   6.552   3.544   6.498 -0.3122 -0.4851  0.9128
 4802TIP3    H135965   6.462   3.519   6.475 -0.0334 -0.4478 -0.2929
 4802TIP3    H235966   6.591   3.464   6.534 -0.4423 -0.8637  0.2279
 4803TIP3   OH235967   6.992   6.883   6.723 -0.0189 -0.2706 -0.1591
 4803TIP3    H135968   6.938   6.804   6.735 -0.4798  0.1527  0.6978
 4803TIP3    H235969   7.076   6.860   6.763  0.6502 -1.1092 -1.9459
 4804TIP3   OH235970   5.749   4.751   1.455  0.4264  0.3961 -0.2464
 4804TIP3    H135971   5.764   4.743   1.360 -2.2820  2.8609 -1.0415
 4804TIP3    H235972   5.811   4.818   1.483 -0.1457  1.1621 -0.7594
 4805TIP3   OH235973   1.768   0.985   7.690  0.3380 -0.5647  0.2429
 4805TIP3    H135974   1.823   0.999   7.768  0.3793  1.2285 -0.0660
 4805TIP3    H235975   1.827   0.942   7.627  0.6967 -0.7947  0.7285
 4806TIP3   OH235976   2.995   6.182   6.912 -0.3313  0.6881  0.1233
 4806TIP3    H135977   2.913   6.163   6.868 -0.6482  0.1091  0.9329
 4806TIP3    H235978   3.020   6.099   6.954  0.7348  0.8148 -0.2238
 4807TIP3   OH235979   1.128   2.742   6.939 -0.2769  0.3542  0.1241
 4807TIP3    H135980   1.219   2.770   6.935 -0.5658  1.4652  0.9449
 4807TIP3    H235981   1.091   2.767   6.854 -0.3105  1.7446  0.5289
 4808TIP3   OH235982   3.019   3.709   6.242 -0.1776  0.2283 -0.0025
 4808TIP3    H135983   3.039   3.643   6.176 -1.0344  1.0358 -1.1233
 4808TIP3    H235984   2.936   3.681   6.280  1.3121 -1.3587  2.2930
 4809TIP3   OH235985   1.046   1.439   0.038 -0.1639  0.0701 -0.1110
 4809TIP3    H135986   1.102   1.501  -0.008 -0.4426  0.9953  0.7764
 4809TIP3    H235987   1.040   1.473   0.127 -0.5602 -1.0724  0.3163
 4810TIP3   OH235988   0.780   5.187   0.645 -0.6355 -0.3396 -0.4516
 4810TIP3    H135989   0.847   5.119   0.646 -0.1775  0.1140 -0.2231
 4810TIP3    H235990   0.698   5.139   0.629 -0.0651 -0.7365 -2.4937
 4811TIP3   OH235991   5.675   2.802   0.240  0.0829  0.0098 -0.4208
 4811TIP3    H135992   5.612   2.730   0.240 -1.1371  1.0395  0.9571
 4811TIP3    H235993   5.698   2.814   0.332  0.9843  0.7962 -0.7301
 4812TIP3   OH235994   4.074   2.769   0.757  0.3579  0.7009 -0.1920
 4812TIP3    H135995   3.990   2.763   0.712  0.7645  0.6016 -0.9517
 4812TIP3    H235996   4.109   2.855   0.732  0.0869  1.1410  0.8543
 4813TIP3   OH235997   6.803   7.127   1.656  0.2224 -0.0814 -0.0526
 4813TIP3    H135998   6.871   7.092   1.598  0.5582 -1.0488  0.9043
 4813TIP3    H235999   6.819   7.222   1.656 -0.6363  0.1382 -2.5918
 4814TIP3   OH236000   0.214   4.541   1.408  0.2184 -0.2817 -0.0040
 4814TIP3    H136001   0.166   4.458   1.406  0.3565 -0.3503 -1.3170
 4814TIP3    H236002   0.204   4.577   1.320  2.4791 -0.2536 -0.3109
 4815TIP3   OH236003   3.963   5.165   7.672  0.0810 -0.4900 -0.1699
 4815TIP3    H136004   3.882   5.148   7.624 -0.0877 -0.7785  0.2152
 4815TIP3    H236005   3.950   5.251   7.711  0.0621 -0.4239 -0.3223
 4816TIP3   OH236006   6.830   4.941   6.617  0.6655  0.5605  0.6822
 4816TIP3    H136007   6.790   4.854   6.609  1.5443  0.1256  0.9262
 4816TIP3    H236008   6.756   5.001   6.610  0.3260 -0.0292 -2.8408
 4817TIP3   OH236009   0.535   1.710   0.133 -0.0800  0.2786 -0.2723
 4817TIP3    H136010   0.501   1.746   0.215  0.0047 -1.1291  0.3997
 4817TIP3    H236011   0.457   1.676   0.088  0.2602 -2.2477  0.9163
 4818TIP3   OH236012   3.566   3.712   7.270  0.6677 -0.5454 -0.1130
 4818TIP3    H136013   3.587   3.735   7.361  2.1885 -0.5088 -0.4457
 4818TIP3    H236014   3.611   3.629   7.255 -0.1828 -0.9289 -0.6309
 4819TIP3   OH236015   4.617   7.119   8.023 -0.5877 -0.0002 -0.1429
 4819TIP3    H136016   4.569   7.090   8.101 -0.4932  0.1547 -0.0280
 4819TIP3    H236017   4.628   7.040   7.972  1.1901 -0.5107  0.9667
 4820TIP3   OH236018   6.659   1.113   1.221 -0.2392 -0.2413 -0.3683
 4820TIP3    H136019   6.675   1.065   1.302 -0.3922  1.1090  0.4929
 4820TIP3    H236020   6.697   1.058   1.153  3.3613  0.2651  0.9833
 4821TIP3   OH236021   1.219   5.720   7.215  0.4401  0.0119 -0.1520
 4821TIP3    H136022   1.228   5.626   7.202  0.4620 -0.0367  0.1939
 4821TIP3    H236023   1.125   5.737   7.211  0.4682  0.0469 -0.6781
 4822TIP3   OH236024   1.496   0.349   0.441 -0.3947 -0.3472 -0.1558
 4822TIP3    H136025   1.428   0.389   0.387  0.7355 -0.8467 -2.0416
 4822TIP3    H236026   1.572   0.406   0.430 -0.0899 -0.5616  0.7777
 4823TIP3   OH236027   5.400   1.908   7.095  0.4157  0.4190  0.1004
 4823TIP3    H136028   5.464   1.860   7.147 -0.2210  0.2576  0.7487
 4823TIP3    H236029   5.355   1.841   7.045  1.2123  0.5974 -0.9016
 4824TIP3   OH236030   1.271   6.752   7.600  0.3051  0.8482 -0.1125
 4824TIP3    H136031   1.295   6.713   7.684  2.0771 -1.8089 -1.7074
 4824TIP3    H236032   1.201   6.697   7.566  2.1993 -0.6252 -1.9735
 4825TIP3   OH236033   1.190   3.076   6.689 -0.1128  0.2154  0.3224
 4825TIP3    H136034   1.145   3.136   6.629 -2.3606 -1.7718 -0.1490
 4825TIP3    H236035   1.156   3.098   6.775  1.1655  1.3623  0.5725
 4826TIP3   OH236036   6.248   0.730   7.784 -0.2080  0.4520 -0.3022
 4826TIP3    H136037   6.185   0.664   7.814  1.9206 -1.6810 -0.1870
 4826TIP3    H236038   6.312   0.736   7.855  0.6296  1.2969 -1.0993
 4827TIP3   OH236039   6.146   3.351   6.216 -0.6041 -0.2409 -0.2691
 4827TIP3    H136040   6.054   3.367   6.197 -0.6920  0.2196  0.4989
 4827TIP3    H236041   6.150   3.258   6.238 -1.1101 -0.0116  0.8793
 4828TIP3   OH236042   6.924   4.392   6.283 -0.2214 -0.1574 -0.2687
 4828TIP3    H136043   6.983   4.405   6.357  0.6022 -1.5577 -0.6359
 4828TIP3    H236044   6.977   4.413   6.206 -0.1361 -1.5238 -0.6079
 4829TIP3   OH236045   0.384   0.743   1.261 -0.0873 -0.7026 -0.2089
 4829TIP3    H136046   0.474   0.772   1.274 -0.1951 -0.0905 -0.7710
 4829TIP3    H236047   0.333   0.824   1.258 -0.4438 -0.9435 -1.4896
 4830TIP3   OH236048   5.925   1.231   7.864  0.4554  0.5865 -0.4490
 4830TIP3    H136049   5.920   1.182   7.782  1.1340 -1.5500  0.7031
 4830TIP3    H236050   6.014   1.266   7.865 -0.1737  2.3596 -1.4880
 4831TIP3   OH236051   6.423   2.332   0.540  0.3438  0.1443  0.3758
 4831TIP3    H136052   6.400   2.294   0.625 -2.1007  0.0679 -0.2311
 4831TIP3    H236053   6.515   2.354   0.548  0.9736 -2.5105  2.0411
 4832TIP3   OH236054   1.780   1.625   1.396  0.4857 -0.7722  0.4911
 4832TIP3    H136055   1.777   1.711   1.355 -0.2728 -0.5321  1.0203
 4832TIP3    H236056   1.771   1.643   1.490  1.0981 -1.3782  0.6684
 4833TIP3   OH236057   1.574   1.178   7.669  0.1040 -0.0024  0.8615
 4833TIP3    H136058   1.521   1.161   7.592  0.6049  0.7597  0.3320
 4833TIP3    H236059   1.621   1.096   7.684  0.2265 -0.0648  0.1722
 4834TIP3   OH236060   7.063   2.374   6.845  0.4062 -0.1877 -0.5889
 4834TIP3    H136061   7.007   2.450   6.828  0.1751 -0.2923 -0.3102
 4834TIP3    H236062   7.005   2.311   6.887  0.7017 -0.3508 -0.4217
 4835TIP3   OH236063   6.375   1.942   1.306 -0.1391  0.6305  0.3757
 4835TIP3    H136064   6.344   2.031   1.285  0.4010  1.3048  2.2294
 4835TIP3    H236065   6.449   1.928   1.247 -0.1315  1.4688  0.1736
 4836TIP3   OH236066   0.758   2.531   0.296 -0.3229 -0.4006  0.2093
 4836TIP3    H136067   0.679   2.579   0.274 -1.2264 -2.0595 -0.3776
 4836TIP3    H236068   0.824   2.598   0.312 -0.6405  1.0429 -3.5836
 4837TIP3   OH236069   3.830   5.435   7.737  0.3580 -0.3853  0.0567
 4837TIP3    H136070   3.869   5.464   7.655 -0.5695  0.7888  0.0069
 4837TIP3    H236071   3.892   5.461   7.804  0.8486 -0.8375 -0.2086
 4838TIP3   OH236072   1.755   6.193   1.101 -0.5803  0.3735 -0.5958
 4838TIP3    H136073   1.847   6.220   1.100 -0.3005 -0.3485  1.0701
 4838TIP3    H236074   1.709   6.266   1.142 -0.7045  0.5852 -1.1042
 4839TIP3   OH236075   3.045   6.398   7.267 -0.3159 -0.1865 -0.1372
 4839TIP3    H136076   3.010   6.436   7.186 -0.2440  0.4346  0.1122
 4839TIP3    H236077   3.137   6.381   7.247 -0.1027  0.6899  0.0452
 4840TIP3   OH236078   1.091   2.887   6.225 -0.2768  0.1098  0.1322
 4840TIP3    H136079   1.139   2.969   6.229 -0.1492  0.1119 -1.0703
 4840TIP3    H236080   1.159   2.819   6.218 -0.4083  0.1162 -1.6202
 4841TIP3   OH236081   5.232   0.622   7.956  0.7400 -0.2977 -0.0404
 4841TIP3    H136082   5.197   0.537   7.982  1.8048 -1.1062 -1.2004
 4841TIP3    H236083   5.212   0.629   7.863 -1.0629  1.6061  0.4020
 4842TIP3   OH236084   2.911   1.007   5.873 -0.1278  0.9492  0.5106
 4842TIP3    H136085   2.948   1.074   5.815 -0.8051  0.4434 -0.5399
 4842TIP3    H236086   2.833   1.048   5.910 -0.8195  0.6068 -0.5119
 4843TIP3   OH236087   3.670   7.070   7.543 -0.0744  0.1514 -0.2070
 4843TIP3    H136088   3.602   7.096   7.481 -0.4272 -0.5868 -0.1406
 4843TIP3    H236089   3.728   7.013   7.493  1.7347  2.4170 -0.8685
 4844TIP3   OH236090   3.131   5.930   7.008 -0.1252 -0.0968  0.0315
 4844TIP3    H136091   3.068   5.872   6.966 -0.0942  0.7632 -1.2374
 4844TIP3    H236092   3.100   5.937   7.098 -0.3912 -1.6861  0.1026
 4845TIP3   OH236093   0.109   5.938   6.664  0.0879 -0.5830  0.3441
 4845TIP3    H136094   0.112   5.987   6.582 -1.9319 -0.8822  0.0276
 4845TIP3    H236095   0.041   5.872   6.649 -1.9884  0.7661  2.9284
 4846TIP3   OH236096   6.519   2.830   5.912  0.2520 -0.5533  0.0752
 4846TIP3    H136097   6.597   2.776   5.902  0.2181 -0.2510 -2.6063
 4846TIP3    H236098   6.466   2.809   5.835 -0.4037  2.2373 -0.3274
 4847TIP3   OH236099   0.294   2.184   1.060 -0.2402  0.6981  0.0808
 4847TIP3    H136100   0.385   2.153   1.058 -0.3769  0.1776  1.2011
 4847TIP3    H236101   0.273   2.191   1.153 -0.8596  2.3264 -0.1503
 4848TIP3   OH236102   6.015   2.964   0.049  0.5042 -0.2648  1.2299
 4848TIP3    H136103   5.959   3.021   0.101 -1.5377  0.4313 -1.4894
 4848TIP3    H236104   5.970   2.879   0.049 -0.9290  0.3853 -1.2451
 4849TIP3   OH236105   2.047   6.671   6.466  0.0157  0.1732  0.6036
 4849TIP3    H136106   1.979   6.662   6.399 -0.5886  1.5532  0.9859
 4849TIP3    H236107   2.050   6.765   6.483  0.7608 -0.0679  1.9042
 4850TIP3   OH236108   4.242   3.420   0.778  0.2176 -0.1111 -0.5738
 4850TIP3    H136109   4.227   3.347   0.718  0.3429 -0.1117 -0.6064
 4850TIP3    H236110   4.227   3.498   0.725 -0.4729 -0.1139 -0.3889
 4851TIP3   OH236111   0.505   6.705   0.826  0.3172  0.1953  0.4358
 4851TIP3    H136112   0.498   6.647   0.902  0.4648  0.4089  0.6136
 4851TIP3    H236113   0.598   6.702   0.802 -0.0869 -1.7466 -1.2226
 4852TIP3   OH236114   0.931   0.741   7.780  0.2620 -0.4091 -0.2160
 4852TIP3    H136115   0.856   0.785   7.741  1.2081  0.1137 -1.5295
 4852TIP3    H236116   0.947   0.666   7.723 -0.8481 -2.0807  1.5488
 4853TIP3   OH236117   0.070   0.197   7.946  0.4152  0.0928 -0.3328
 4853TIP3    H136118  -0.009   0.150   7.974  0.3231 -0.5963 -1.6825
 4853TIP3    H236119   0.038   0.265   7.888  0.7854  0.0402 -0.6005
 4854TIP3   OH236120   0.690   4.105   1.434  0.1893  0.1713 -0.4716
 4854TIP3    H136121   0.681   4.032   1.495  2.8555 -2.1998 -2.6074
 4854TIP3    H236122   0.612   4.159   1.449 -0.5583 -1.5911  3.1185
 4855TIP3   OH236123   0.785   6.659   0.753 -0.0651 -0.0091 -0.1194
 4855TIP3    H136124   0.834   6.577   0.759  1.0064  0.6451  0.3247
 4855TIP3    H236125   0.825   6.706   0.680 -0.8410  0.0176 -0.5368
 4856TIP3   OH236126   2.920   5.886   1.929  0.0627 -0.4882  0.8660
 4856TIP3    H136127   2.984   5.818   1.905 -0.0408 -0.0235 -0.8156
 4856TIP3    H236128   2.952   5.965   1.886  0.0590  0.5242  2.6248
 4857TIP3   OH236129   1.877   2.902   0.234  0.4261  0.2472  0.4565
 4857TIP3    H136130   1.934   2.949   0.173 -2.0493  0.5022 -1.7933
 4857TIP3    H236131   1.933   2.888   0.311  3.2256  1.2469 -1.2181
 4858TIP3   OH236132   4.237   2.006   7.596  0.0002  0.8463 -0.3925
 4858TIP3    H136133   4.173   1.939   7.574 -1.1564  2.1666 -1.2699
 4858TIP3    H236134   4.229   2.018   7.691  0.2563 -0.2544 -0.2225
 4859TIP3   OH236135   0.448   6.512   1.048  0.1844  0.1115  0.4728
 4859TIP3    H136136   0.371   6.531   1.103 -0.6175  0.5556 -0.7563
 4859TIP3    H236137   0.434   6.423   1.018  0.0004  0.2895  0.0235
 4860TIP3   OH236138   3.569   3.822   7.019  0.0980 -0.8409  0.2003
 4860TIP3    H136139   3.568   3.790   7.110  1.1577  0.2555  0.6144
 4860TIP3    H236140   3.643   3.883   7.016 -0.1261 -0.6264 -1.3256
 4861TIP3   OH236141   2.435   5.442   6.444 -0.1528 -0.0698 -0.3949
 4861TIP3    H136142   2.451   5.449   6.350  1.5387 -0.7547 -0.1919
 4861TIP3    H236143   2.460   5.353   6.467 -0.8556 -0.0187  0.6627
 4862TIP3   OH236144   5.433   6.952   1.765 -0.0234  0.0802 -0.6079
 4862TIP3    H136145   5.400   6.981   1.850 -1.3567 -1.3088 -0.6131
 4862TIP3    H236146   5.520   6.992   1.758 -1.7852  4.3240 -0.8375
 4863TIP3   OH236147   1.019   5.666   2.099 -0.1226 -0.8206  0.2937
 4863TIP3    H136148   0.939   5.614   2.099 -0.2214 -0.6703  0.4824
 4863TIP3    H236149   1.079   5.618   2.041 -0.8464 -0.1668 -1.0514
 4864TIP3   OH236150   1.893   6.990   7.301  0.2088  0.0410 -0.4924
 4864TIP3    H136151   1.840   6.911   7.288  0.5500  0.0232 -1.8505
 4864TIP3    H236152   1.934   6.977   7.387 -2.8001  0.5577  1.1720
 4865TIP3   OH236153   1.373   6.504   0.901  0.0918 -0.0797 -0.3229
 4865TIP3    H136154   1.375   6.557   0.981 -0.1165 -1.5848  0.7351
 4865TIP3    H236155   1.358   6.415   0.933  1.4396 -0.9372 -1.9439
 4866TIP3   OH236156   2.634   1.959   1.401 -0.5605 -0.2999 -0.1432
 4866TIP3    H136157   2.611   2.024   1.467  0.1209 -0.6774  0.4853
 4866TIP3    H236158   2.727   1.972   1.385 -0.4613 -0.9689 -0.1653
 4867TIP3   OH236159   2.096   0.062   0.725  0.2352  0.3536  0.3108
 4867TIP3    H136160   2.059   0.023   0.646 -0.7214 -2.2783  1.9367
 4867TIP3    H236161   2.191   0.062   0.710  0.2046 -1.7625 -0.2059
 4868TIP3   OH236162   2.162   6.298   6.912 -0.1527  0.2538 -0.4136
 4868TIP3    H136163   2.067   6.314   6.907  0.0790  2.4358  0.7255
 4868TIP3    H236164   2.175   6.258   6.998  0.0914  1.4176  0.1080
 4869TIP3   OH236165   6.559   1.843   1.635  0.1158 -0.4738  0.2366
 4869TIP3    H136166   6.498   1.807   1.700 -1.8916  3.6665  0.9503
 4869TIP3    H236167   6.629   1.881   1.687  0.8106 -0.9327 -0.3428
 4870TIP3   OH236168   7.009   1.519   7.660 -0.2403 -0.5332  0.3604
 4870TIP3    H136169   7.093   1.549   7.696 -0.3329 -1.2541  1.2164
 4870TIP3    H236170   7.002   1.563   7.576 -0.0219  1.2552  1.2223
 4871TIP3   OH236171   0.163   1.780   7.170 -0.1242 -0.1071  0.6703
 4871TIP3    H136172   0.090   1.835   7.143  1.3258  0.8078 -1.7540
 4871TIP3    H236173   0.135   1.691   7.150 -1.9394 -0.2171  3.2943
 4872TIP3   OH236174   4.073   5.369   6.458  0.2288  0.0486  0.1472
 4872TIP3    H136175   4.045   5.389   6.369  1.5507  0.7252 -0.1482
 4872TIP3    H236176   4.011   5.415   6.514  0.3652  0.9898 -0.4589
 4873TIP3   OH236177   1.113   0.806   7.046  0.1975  0.0507  0.0343
 4873TIP3    H136178   1.153   0.886   7.012  0.6191 -0.6173 -1.1056
 4873TIP3    H236179   1.172   0.778   7.117  0.7006  0.1151 -0.3557
 4874TIP3   OH236180   5.620   1.736   6.022  0.1309  0.6612  0.0642
 4874TIP3    H136181   5.710   1.710   6.001  0.3269  1.1906  0.2473
 4874TIP3    H236182   5.610   1.822   5.983  0.1278  1.1658  1.1531
 4875TIP3   OH236183   2.068   5.816   0.400  0.0679  0.3027 -0.6877
 4875TIP3    H136184   2.145   5.772   0.438 -1.3495 -1.3704  0.3935
 4875TIP3    H236185   2.074   5.906   0.432  1.3841  0.1057 -0.3299
 4876TIP3   OH236186   6.395   6.967   1.481  0.0010 -0.1788 -0.3478
 4876TIP3    H136187   6.305   6.935   1.470 -0.3632  0.9824 -0.8137
 4876TIP3    H236188   6.445   6.920   1.414 -0.2233 -0.9045 -0.0224
 4877TIP3   OH236189   5.916   1.984   6.663 -0.0068 -0.4146  0.1125
 4877TIP3    H136190   5.887   1.894   6.670  1.2191 -0.7241  1.8038
 4877TIP3    H236191   5.865   2.020   6.590 -1.2934 -2.1425  0.0967
 4878TIP3   OH236192   7.008   6.671   7.718  0.5856 -0.1408 -0.1450
 4878TIP3    H136193   7.060   6.635   7.790 -0.3400  0.0950  0.6707
 4878TIP3    H236194   7.036   6.762   7.710  1.4103 -0.4450 -0.7717
 4879TIP3   OH236195   4.066   4.012   6.816 -0.3817 -0.2007 -0.4093
 4879TIP3    H136196   4.082   3.927   6.856  1.0199 -0.8299 -2.1680
 4879TIP3    H236197   4.152   4.041   6.785 -1.1897  0.7369 -1.9316
 4880TIP3   OH236198   1.603   2.649   7.834  0.6604  0.2785 -0.9373
 4880TIP3    H136199   1.565   2.628   7.919  0.9620 -1.9282 -1.2689
 4880TIP3    H236200   1.629   2.741   7.841 -2.1863  1.1043  0.2064
 4881TIP3   OH236201   2.433   0.568   7.662  0.0914  0.0007  0.3916
 4881TIP3    H136202   2.443   0.630   7.734 -0.0112 -0.9927  1.2934
 4881TIP3    H236203   2.520   0.562   7.623  0.2382  0.2741  0.6731
 4882TIP3   OH236204   5.231   2.633   0.793  0.4028  0.7857 -0.1387
 4882TIP3    H136205   5.161   2.569   0.808  1.0786  0.1837  0.5059
 4882TIP3    H236206   5.238   2.639   0.698  0.9973 -0.8492 -0.2262
 4883TIP3   OH236207   1.054   2.513   1.840  0.0707  1.0814 -0.1936
 4883TIP3    H136208   0.994   2.541   1.909 -1.8312 -0.6964 -1.0181
 4883TIP3    H236209   1.086   2.427   1.870  0.6062  1.0885 -0.7240
 4884TIP3   OH236210   1.920   3.358   0.091  0.4790  0.5687 -0.1577
 4884TIP3    H136211   1.893   3.311   0.170  2.0931 -1.8349 -0.9100
 4884TIP3    H236212   1.838   3.387   0.052 -0.4327  0.7050  1.7131
 4885TIP3   OH236213   4.968   0.567   7.503 -0.5002  0.2240  0.2015
 4885TIP3    H136214   4.958   0.472   7.491  2.0695  0.1066 -1.8687
 4885TIP3    H236215   4.878   0.600   7.503 -1.5253 -2.2382  1.7145
 4886TIP3   OH236216   4.573   4.209   1.952  0.0561  0.1932 -0.1787
 4886TIP3    H136217   4.599   4.156   2.027  1.0591 -0.3864 -0.9052
 4886TIP3    H236218   4.493   4.167   1.920  1.8176 -2.1697 -1.8755
 4887TIP3   OH236219   2.690   5.752   6.474 -0.4931 -0.5005 -0.1261
 4887TIP3    H136220   2.721   5.793   6.393  1.4734  1.9278  1.7311
 4887TIP3    H236221   2.606   5.793   6.491 -0.1091  0.2695 -0.0585
 4888TIP3   OH236222   2.970   4.589   7.840  0.8138  0.0068  0.7092
 4888TIP3    H136223   2.876   4.569   7.831  1.3006 -2.1373 -0.1530
 4888TIP3    H236224   2.974   4.685   7.840 -1.3732  0.1462  0.7783
 4889TIP3   OH236225   2.848   0.137   2.118 -0.4254  0.1169  0.0480
 4889TIP3    H136226   2.810   0.217   2.083 -1.5757 -0.2394  0.4193
 4889TIP3    H236227   2.865   0.082   2.041 -2.5836 -0.5165 -0.0303
 4890TIP3   OH236228   4.766   6.324   7.242  0.4489 -0.5883  0.2977
 4890TIP3    H136229   4.802   6.285   7.322  0.7061 -0.4255  0.2622
 4890TIP3    H236230   4.671   6.319   7.254  0.4827 -0.2495  0.7684
 4891TIP3   OH236231   2.224   5.855   6.965  0.1599 -0.0574  0.2246
 4891TIP3    H136232   2.237   5.934   6.913  0.6497 -0.7490 -0.7245
 4891TIP3    H236233   2.199   5.788   6.901 -0.2537 -0.6772  1.0184
 4892TIP3   OH236234   6.881   4.753   5.448  0.3951 -0.8726 -0.4328
 4892TIP3    H136235   6.893   4.813   5.375 -2.5014 -1.2579 -1.3449
 4892TIP3    H236236   6.951   4.688   5.438  1.1972  0.1626 -1.7078
 4893TIP3   OH236237   2.803   2.141   0.288 -0.3418 -0.3903  0.5312
 4893TIP3    H136238   2.815   2.124   0.381 -0.1077  1.4602  0.8743
 4893TIP3    H236239   2.762   2.227   0.284 -1.7770 -1.0851 -1.0477
 4894TIP3   OH236240   0.252   4.121   6.613  0.2215 -0.1434  0.1954
 4894TIP3    H136241   0.347   4.117   6.605  0.1741 -0.9027 -0.0828
 4894TIP3    H236242   0.234   4.098   6.704  0.2269 -1.6780 -0.1662
 4895TIP3   OH236243   1.948   6.639   7.835 -0.5205 -0.0924 -0.2158
 4895TIP3    H136244   1.904   6.721   7.813  0.8705  0.4331 -1.1532
 4895TIP3    H236245   1.964   6.646   7.929  1.5189  1.7583 -0.6070
 4896TIP3   OH236246   4.674   2.390   7.522 -0.5554 -0.1130 -0.5152
 4896TIP3    H136247   4.624   2.458   7.565  0.3089  1.3451 -1.7192
 4896TIP3    H236248   4.730   2.354   7.591 -0.3995  1.0010 -0.0467
 4897TIP3   OH236249   3.888   2.631   1.017 -0.9463 -0.0529  0.1668
 4897TIP3    H136250   3.796   2.649   1.037 -0.3841  2.3104  0.9648
 4897TIP3    H236251   3.897   2.652   0.924 -1.3632 -1.1709 -0.1491
 4898TIP3   OH236252   0.360   5.868   7.415 -0.1915  0.5262 -0.4861
 4898TIP3    H136253   0.321   5.803   7.357  1.0495 -1.0643  0.3718
 4898TIP3    H236254   0.444   5.888   7.376  0.0757  0.4564  0.0392
 4899TIP3   OH236255   5.539   3.039   7.529 -0.2091  0.5825 -0.3651
 4899TIP3    H136256   5.593   3.060   7.453  0.9522 -0.0921  0.2478
 4899TIP3    H236257   5.482   3.115   7.540  0.3107  1.1212 -1.2967
 4900TIP3   OH236258   4.223   4.864   1.536 -0.8942 -0.0994 -0.7789
 4900TIP3    H136259   4.242   4.772   1.518 -1.3009 -0.1783 -0.8202
 4900TIP3    H236260   4.148   4.862   1.595  0.6435  0.1512  1.2797
 4901TIP3   OH236261   4.299   4.975   6.521 -0.0788 -0.0022 -0.1185
 4901TIP3    H136262   4.316   4.881   6.512  0.8894  0.1155  0.3336
 4901TIP3    H236263   4.304   5.008   6.431  0.3338 -0.2669 -0.1953
 4902TIP3   OH236264   4.416   0.326   0.526 -0.0526 -0.7445  0.0110
 4902TIP3    H136265   4.430   0.389   0.596 -0.7997 -2.3817  1.7145
 4902TIP3    H236266   4.500   0.280   0.518 -0.4517 -1.7095  1.0782
 4903TIP3   OH236267   5.115   0.868   1.433  0.1759  0.1832  0.7607
 4903TIP3    H136268   5.115   0.777   1.461 -2.4412  0.6186  2.5009
 4903TIP3    H236269   5.123   0.919   1.514 -1.5496  1.4662  0.1893
 4904TIP3   OH236270   4.025   3.319   1.011 -0.5461  0.7889  0.0314
 4904TIP3    H136271   4.077   3.364   1.077 -0.1479  0.1510  0.1578
 4904TIP3    H236272   4.076   3.330   0.930  0.0979 -0.3374  0.2669
 4905TIP3   OH236273   0.224   0.081   7.003 -0.2282 -0.1708  0.0450
 4905TIP3    H136274   0.166   0.005   7.012  1.0016 -1.1702 -0.0514
 4905TIP3    H236275   0.251   0.080   6.911  0.5423 -0.2175  0.2566
 4906TIP3   OH236276   1.858   5.215   7.967  0.0155  0.4280 -0.1015
 4906TIP3    H136277   1.919   5.288   7.975 -0.2523  0.4936  1.6728
 4906TIP3    H236278   1.910   5.138   7.991 -0.2865  0.3263  0.2307
 4907TIP3   OH236279   5.388   0.461   6.215 -0.1759 -0.1945 -0.5371
 4907TIP3    H136280   5.359   0.542   6.255  1.9174  0.2941  0.1356
 4907TIP3    H236281   5.404   0.484   6.123 -0.2259 -0.0100 -0.5003
 4908TIP3   OH236282   5.808   4.232   7.934 -0.0464 -0.1892  0.1161
 4908TIP3    H136283   5.882   4.190   7.891 -0.6812 -2.5418  1.1729
 4908TIP3    H236284   5.827   4.326   7.927  2.0102 -0.6375 -1.3790
 4909TIP3   OH236285   2.556   5.622   0.978  0.1602 -0.0070  0.2044
 4909TIP3    H136286   2.552   5.641   0.884  0.3072  1.1258  0.4123
 4909TIP3    H236287   2.573   5.707   1.019  0.7461 -0.5892  1.2118
 4910TIP3   OH236288   1.510   3.337   6.473 -0.6520 -0.1866  0.2170
 4910TIP3    H136289   1.471   3.269   6.528  1.4131 -1.8633 -0.2531
 4910TIP3    H236290   1.544   3.290   6.397 -0.9956  1.6988 -1.1704
 4911TIP3   OH236291   5.307   2.401   6.927 -0.3140 -0.1272 -0.0531
 4911TIP3    H136292   5.358   2.328   6.963  1.0520  0.5564 -0.5379
 4911TIP3    H236293   5.269   2.444   7.004 -0.2192 -0.6751  0.3087
 4912TIP3   OH236294   2.454   6.195   5.775  0.1311 -0.2149  0.0668
 4912TIP3    H136295   2.423   6.277   5.736  0.2914 -0.0873  0.2054
 4912TIP3    H236296   2.526   6.167   5.718 -1.0186 -1.1660 -0.9834
 4913TIP3   OH236297   5.214   0.137   6.259  0.4755  0.8454  0.0043
 4913TIP3    H136298   5.276   0.132   6.187  0.3750 -0.3676 -0.0139
 4913TIP3    H236299   5.128   0.135   6.217  0.4019 -0.8569  0.1754
 4914TIP3   OH236300   0.807   4.779   5.910  0.3716  0.3726  0.1260
 4914TIP3    H136301   0.726   4.728   5.903 -1.0813  2.3034  1.4723
 4914TIP3    H236302   0.799   4.824   5.995  2.7902  0.7748  0.1977
 4915TIP3   OH236303   6.857   3.367   6.355  0.0937  0.1047  0.1454
 4915TIP3    H136304   6.919   3.321   6.411 -0.3161 -0.5212  0.1032
 4915TIP3    H236305   6.774   3.320   6.368 -0.3689  0.9022  0.1824
 4916TIP3   OH236306   1.392   1.268   0.600 -0.0894 -0.5966  0.1162
 4916TIP3    H136307   1.443   1.221   0.535 -0.9500 -0.8157 -0.4219
 4916TIP3    H236308   1.358   1.199   0.658  0.0986 -0.4678  0.3827
 4917TIP3   OH236309   3.390   0.121   7.319  0.5040  0.0202  0.1680
 4917TIP3    H136310   3.440   0.040   7.311  0.6270  0.0747  0.4023
 4917TIP3    H236311   3.405   0.166   7.236  2.8682  1.2078  1.1517
 4918TIP3   OH236312   6.691   1.894   7.999  0.0416 -0.0519  0.0125
 4918TIP3    H136313   6.604   1.856   8.005  0.1903 -1.0677 -2.6625
 4918TIP3    H236314   6.681   1.983   8.031 -1.3348 -0.9095  2.2100
 4919TIP3   OH236315   5.546   3.552   7.258  0.0018  0.2791 -0.5453
 4919TIP3    H136316   5.519   3.510   7.177  1.2450 -3.1102  0.6271
 4919TIP3    H236317   5.614   3.614   7.232  0.4100 -0.7827 -2.1028
 4920TIP3   OH236318   4.995   6.275   7.043  0.0697  0.3649  0.1218
 4920TIP3    H136319   4.937   6.279   7.119  0.3386 -0.3801  0.3739
 4920TIP3    H236320   5.076   6.317   7.071 -0.1198  0.8413 -0.0294
 4921TIP3   OH236321   6.095   4.952   0.173  0.4370  0.2552 -0.3171
 4921TIP3    H136322   6.115   4.985   0.261 -2.3523 -1.1843  0.9953
 4921TIP3    H236323   6.097   5.029   0.117 -2.1290  2.1061  1.8943
 4922TIP3   OH236324   0.911   3.928   1.592 -0.0455 -0.3352 -0.1708
 4922TIP3    H136325   0.821   3.933   1.624 -0.2367 -0.0913 -0.7253
 4922TIP3    H236326   0.964   3.918   1.671 -0.5517 -0.4108  0.1678
 4923TIP3   OH236327   6.543   4.800   2.363  0.0821 -0.0625 -0.0567
 4923TIP3    H136328   6.616   4.841   2.317  1.0875 -0.0467  1.4808
 4923TIP3    H236329   6.544   4.709   2.333  1.5842 -0.3943  0.8629
 4924TIP3   OH236330   1.793   3.217   0.311 -1.1316  0.2114 -0.0413
 4924TIP3    H136331   1.836   3.255   0.387  0.5697 -0.3890 -0.6574
 4924TIP3    H236332   1.817   3.124   0.313 -3.3948 -0.4296  0.2253
 4925TIP3   OH236333   1.509   5.215   5.999  0.1983 -0.1484 -0.0575
 4925TIP3    H136334   1.590   5.210   6.049  0.5548  0.7752 -0.5184
 4925TIP3    H236335   1.523   5.157   5.924 -0.4579 -1.7913  1.0183
 4926TIP3   OH236336   2.957   7.108   0.602 -0.6412 -0.8182  0.7322
 4926TIP3    H136337   3.012   7.125   0.679 -1.4851  0.9657  0.9863
 4926TIP3    H236338   2.979   7.018   0.577  1.3061 -0.6722  1.6934
 4927TIP3   OH236339   2.287   1.929   6.368  0.3638 -0.2572  0.3368
 4927TIP3    H136340   2.217   1.942   6.430  0.3102 -3.0655  1.0149
 4927TIP3    H236341   2.244   1.931   6.282 -0.4137 -0.9593  0.6910
 4928TIP3   OH236342   5.507   3.149   7.073  0.3052  0.2050 -0.3973
 4928TIP3    H136343   5.545   3.089   7.137 -0.2569  0.8164  0.5190
 4928TIP3    H236344   5.572   3.152   7.002  1.1521 -0.1115  0.3482
 4929TIP3   OH236345   3.364   2.027   6.561  0.2298 -0.5400 -0.5799
 4929TIP3    H136346   3.395   2.102   6.511 -0.4030 -0.3666 -0.7189
 4929TIP3    H236347   3.442   1.995   6.608  0.1456  1.2685  0.8890
 4930TIP3   OH236348   7.014   5.713   7.178 -0.5375  0.1397 -1.0230
 4930TIP3    H136349   7.077   5.727   7.107 -2.7721 -0.2907 -3.2435
 4930TIP3    H236350   6.986   5.622   7.166 -0.5889 -0.1181  0.8066
 4931TIP3   OH236351   4.080   1.744   6.631 -0.1672 -0.3053  0.3254
 4931TIP3    H136352   4.117   1.739   6.720 -1.1669 -0.6348  0.7391
 4931TIP3    H236353   3.989   1.719   6.642  0.1297 -2.2364 -1.0775
 4932TIP3   OH236354   6.494   3.530   7.768 -0.6338  0.1286  0.1932
 4932TIP3    H136355   6.574   3.558   7.812  0.9640 -2.2370 -1.0131
 4932TIP3    H236356   6.465   3.453   7.818 -0.3976 -0.8593 -1.1302
 4933TIP3   OH236357   5.917   2.314   1.001 -0.1013 -0.7156  0.0488
 4933TIP3    H136358   5.899   2.251   1.071 -0.0787  0.2571  0.9573
 4933TIP3    H236359   5.950   2.261   0.929 -0.1550 -1.7519  0.7651
 4934TIP3   OH236360   0.398   3.339   7.827 -0.4720 -0.0767  0.2526
 4934TIP3    H136361   0.351   3.418   7.800  0.1250  0.3664  0.4931
 4934TIP3    H236362   0.332   3.270   7.825 -1.1623  0.5593  0.7204
 4935TIP3   OH236363   2.800   4.838   5.919 -0.1226 -0.0043 -0.3839
 4935TIP3    H136364   2.857   4.768   5.888 -0.5552  0.7825 -3.1977
 4935TIP3    H236365   2.844   4.919   5.893 -1.0741  0.6922  0.1048
 4936TIP3   OH236366   3.228   5.078   7.503  0.0048  0.0206  0.8033
 4936TIP3    H136367   3.218   5.172   7.518 -0.3016 -0.3397  3.4106
 4936TIP3    H236368   3.282   5.048   7.576 -2.2406 -2.2259  1.7157
 4937TIP3   OH236369   5.382   0.554   7.649  0.3485 -1.0175 -0.0203
 4937TIP3    H136370   5.433   0.589   7.576 -0.7053 -3.1400 -1.8842
 4937TIP3    H236371   5.315   0.619   7.666  1.3310  0.0484 -0.0782
 4938TIP3   OH236372   3.138   0.216   0.774 -0.2400  0.5915  0.1707
 4938TIP3    H136373   3.142   0.310   0.790 -0.8470  1.0373 -2.0787
 4938TIP3    H236374   3.228   0.190   0.758 -0.2162  1.0048 -0.3494
 4939TIP3   OH236375   3.510   4.890   7.661  0.5236  0.6229 -0.1080
 4939TIP3    H136376   3.561   4.841   7.725  0.4044 -1.2725 -1.3912
 4939TIP3    H236377   3.433   4.921   7.711  0.5800 -0.5336  0.7293
 4940TIP3   OH236378   6.947   1.703   7.352 -0.4376 -0.3920  0.5251
 4940TIP3    H136379   6.957   1.762   7.426 -1.0610  1.5770 -0.8776
 4940TIP3    H236380   7.030   1.656   7.347  0.1017  0.3937  1.6636
 4941TIP3   OH236381   3.833   4.633   7.614  0.4094  0.4047  0.2644
 4941TIP3    H136382   3.760   4.632   7.552  0.6704  0.7163 -0.0544
 4941TIP3    H236383   3.800   4.684   7.688  0.0607 -0.0571  0.4320
 4942TIP3   OH236384   6.642   3.437   7.356 -0.7811 -0.4201 -0.0883
 4942TIP3    H136385   6.597   3.426   7.272 -0.2845 -1.0399 -0.2833
 4942TIP3    H236386   6.730   3.402   7.340 -0.6651 -0.4874  0.6758
 4943TIP3   OH236387   2.832   0.895   6.723 -0.0550  0.2773  0.0570
 4943TIP3    H136388   2.824   0.915   6.630 -1.6887 -0.0805  0.0955
 4943TIP3    H236389   2.856   0.803   6.726  0.6585  0.4575 -0.0123
 4944TIP3   OH236390   1.131   7.082   6.663 -0.1579 -0.5609 -0.1146
 4944TIP3    H136391   1.146   7.017   6.594 -0.6621 -0.7928 -0.0168
 4944TIP3    H236392   1.063   7.139   6.628 -1.1172 -1.2583  0.5511
 4945TIP3   OH236393   6.898   4.460   7.997 -0.5043 -0.3754  0.0177
 4945TIP3    H136394   6.964   4.493   8.058 -1.3252 -1.5063  1.5849
 4945TIP3    H236395   6.838   4.534   7.985 -0.9281 -0.4527  1.4825
 4946TIP3   OH236396   5.643   2.421   6.475  0.1817 -0.0319 -0.3837
 4946TIP3    H136397   5.588   2.495   6.502  0.2822  0.5549 -1.7210
 4946TIP3    H236398   5.595   2.382   6.401  0.5659 -0.7626 -0.2537
 4947TIP3   OH236399   6.072   3.015   6.762  0.4604 -0.1414  0.0866
 4947TIP3    H136400   6.165   3.024   6.783  0.6981 -1.0271 -0.5267
 4947TIP3    H236401   6.062   2.924   6.735 -0.3346  0.2756 -1.0989
 4948TIP3   OH236402   6.732   5.989   7.119 -0.3299 -0.3160  0.2125
 4948TIP3    H136403   6.648   6.033   7.119 -0.2688 -0.1717 -0.8494
 4948TIP3    H236404   6.725   5.924   7.189 -1.6428 -0.9248 -0.4635
 4949TIP3   OH236405   6.449   6.543   0.101  0.2123 -0.4443 -0.4289
 4949TIP3    H136406   6.402   6.514   0.180 -0.5655 -0.9704 -1.0677
 4949TIP3    H236407   6.453   6.638   0.109 -0.3377 -0.4506 -0.0138
 4950TIP3   OH236408   5.750   4.742   6.275  0.2908  0.3279 -0.4152
 4950TIP3    H136409   5.679   4.715   6.217  1.2052 -1.5891 -0.7151
 4950TIP3    H236410   5.823   4.685   6.252  2.1510  2.6152 -0.4956
 4951TIP3   OH236411   0.272   4.289   0.395  0.2132 -0.7950  0.3524
 4951TIP3    H136412   0.201   4.270   0.456 -0.6186  0.1875 -0.2937
 4951TIP3    H236413   0.352   4.277   0.447 -0.4194 -1.6133  1.1632
 4952TIP3   OH236414   3.293   2.168   1.325  0.4270  0.2865  0.0043
 4952TIP3    H136415   3.281   2.253   1.284  1.3145 -0.2760 -1.5184
 4952TIP3    H236416   3.385   2.146   1.309  0.7927 -0.0450  2.2171
 4953TIP3   OH236417   5.350   4.475   7.967 -0.3164 -0.0591 -0.0912
 4953TIP3    H136418   5.423   4.413   7.963 -1.3011 -1.6933  3.3593
 4953TIP3    H236419   5.392   4.561   7.969  1.1294 -0.4528 -3.9878
 4954TIP3   OH236420   3.587   3.628   6.790  0.3394 -0.1442  0.6617
 4954TIP3    H136421   3.601   3.686   6.715 -2.5193 -0.4493 -0.2279
 4954TIP3    H236422   3.573   3.687   6.864 -0.0573  0.2764  0.2618
 4955TIP3   OH236423   0.980   3.829   0.278 -0.3301 -0.7885  0.5648
 4955TIP3    H136424   0.907   3.891   0.272 -0.1454 -0.5880  0.4092
 4955TIP3    H236425   0.938   3.743   0.266 -0.7691 -0.8096  1.9923
 4956TIP3   OH236426   3.707   0.798   6.944 -0.4011 -0.2230 -0.2463
 4956TIP3    H136427   3.655   0.862   6.895 -0.3330 -0.9888 -1.3562
 4956TIP3    H236428   3.738   0.737   6.877  1.0894 -0.3540  0.5417
 4957TIP3   OH236429   0.738   6.915   7.528  0.1956 -0.1300  0.0692
 4957TIP3    H136430   0.767   6.840   7.476  0.6633  0.9068 -1.2137
 4957TIP3    H236431   0.659   6.946   7.484 -0.4796 -0.3386  1.0768
 4958TIP3   OH236432   6.797   5.754   7.779 -0.4028  0.5777  0.5663
 4958TIP3    H136433   6.804   5.847   7.757 -0.3957  0.4618  0.0543
 4958TIP3    H236434   6.870   5.738   7.839  1.1777  0.3512 -1.3236
 4959TIP3   OH236435   2.713   6.000   7.252  0.4996 -0.1790 -0.0458
 4959TIP3    H136436   2.693   5.949   7.330 -1.3184 -1.7223 -1.4170
 4959TIP3    H236437   2.670   6.084   7.266  0.5484 -0.2901  0.7761
 4960TIP3   OH236438   0.822   5.115   7.333 -0.5695 -0.1267  0.2988
 4960TIP3    H136439   0.865   5.128   7.418  0.3435  0.1341 -0.1848
 4960TIP3    H236440   0.798   5.203   7.305 -0.8883 -0.2149  0.2903
 4961TIP3   OH236441   6.812   5.339   0.862 -0.5251  0.1112 -0.1055
 4961TIP3    H136442   6.766   5.401   0.806 -1.7769 -0.3022  0.4355
 4961TIP3    H236443   6.802   5.374   0.950 -1.4878 -0.9616  0.2408
 4962TIP3   OH236444   0.151   6.385   0.921 -0.2946  0.1709 -0.0154
 4962TIP3    H136445   0.132   6.477   0.937 -0.3103  0.7314 -2.7600
 4962TIP3    H236446   0.092   6.360   0.850  0.4368 -1.6689 -0.0464
 4963TIP3   OH236447   3.758   2.078   6.717  0.0737  0.0292 -0.2339
 4963TIP3    H136448   3.827   2.052   6.657  0.2753 -0.4256  0.1871
 4963TIP3    H236449   3.702   2.137   6.666 -0.8609 -1.8427 -1.5201
 4964TIP3   OH236450   0.151   0.750   1.509 -0.0650  0.2912  0.0307
 4964TIP3    H136451   0.185   0.669   1.470 -1.5953  0.3386 -1.4545
 4964TIP3    H236452   0.090   0.720   1.577  0.1772  0.2132  0.2167
 4965TIP3   OH236453   5.067   2.888   0.727 -0.2861  0.4452 -0.3170
 4965TIP3    H136454   4.999   2.955   0.722 -1.5367 -0.7139  0.7095
 4965TIP3    H236455   5.100   2.894   0.816 -1.6815 -1.4626  0.3811
 4966TIP3   OH236456   6.882   6.064   1.832  0.1687 -0.4691 -0.4283
 4966TIP3    H136457   6.807   6.079   1.889 -0.8076 -1.4521 -1.3812
 4966TIP3    H236458   6.880   5.969   1.814 -0.2746 -0.0695 -2.9425
 4967TIP3   OH236459   3.048   4.013   7.443 -0.2027 -0.4784 -0.1127
 4967TIP3    H136460   3.092   4.090   7.407 -0.1025 -1.3632 -2.0039
 4967TIP3    H236461   3.083   3.939   7.393 -1.0082 -1.6588  0.9849
 4968TIP3   OH236462   6.301   6.169   0.363 -0.0117  0.0414  0.5266
 4968TIP3    H136463   6.387   6.194   0.328  1.0169 -1.7464  1.6715
 4968TIP3    H236464   6.299   6.205   0.451 -0.2165 -0.4221  0.7111
 4969TIP3   OH236465   4.414   2.109   6.362  0.1452  0.0123 -0.2359
 4969TIP3    H136466   4.414   2.186   6.305 -0.1062  0.5557  0.4856
 4969TIP3    H236467   4.364   2.043   6.314  2.3365 -0.5507 -1.9408
 4970TIP3   OH236468   4.364   3.431   0.111  0.3753  0.5246  0.2339
 4970TIP3    H136469   4.381   3.443   0.204  0.2354  0.6616  0.2426
 4970TIP3    H236470   4.269   3.421   0.105  0.2668  1.6164 -0.0124
 4971TIP3   OH236471   0.893   5.865   0.795 -0.1938  0.1722  0.6253
 4971TIP3    H136472   0.985   5.869   0.820 -0.3956  0.3646  1.3716
 4971TIP3    H236473   0.870   5.956   0.774 -0.1993  0.1150  0.3792
 4972TIP3   OH236474   0.630   5.155   2.051  0.3042  0.6389  0.2235
 4972TIP3    H136475   0.545   5.196   2.038 -0.1551 -0.5917 -0.8855
 4972TIP3    H236476   0.694   5.216   2.014 -0.5044 -0.3399 -3.1053
 4973TIP3   OH236477   3.649   2.917   7.641  0.6586  0.3048 -0.1620
 4973TIP3    H136478   3.585   2.986   7.658 -0.1403 -0.0619 -1.5355
 4973TIP3    H236479   3.734   2.960   7.652  0.1792  1.5255 -1.0204
 4974TIP3   OH236480   4.645   2.794   7.004 -0.0959 -0.2469  0.1904
 4974TIP3    H136481   4.586   2.776   7.077  0.5815  0.0612  0.8304
 4974TIP3    H236482   4.677   2.708   6.977 -0.2104 -0.3478  0.3742
 4975TIP3   OH236483   5.359   6.183   7.566  0.2474 -0.2087  0.2095
 4975TIP3    H136484   5.443   6.203   7.607  0.9261 -2.4507 -0.0100
 4975TIP3    H236485   5.348   6.250   7.499  1.8601  0.0989  0.2268
 4976TIP3   OH236486   5.673   4.218   0.993  0.1623  0.4349  0.2900
 4976TIP3    H136487   5.696   4.274   0.919 -0.8011  1.4159  0.7100
 4976TIP3    H236488   5.578   4.222   0.998  0.1039 -0.8444  0.6520
 4977TIP3   OH236489   0.917   2.478   6.581  0.3933 -0.1503  0.6984
 4977TIP3    H136490   0.919   2.434   6.666 -1.2620 -0.4848  0.5929
 4977TIP3    H236491   1.009   2.481   6.554  0.7271 -2.1505  1.4237
 4978TIP3   OH236492   6.879   7.074   6.386 -0.5780  0.1152 -1.1864
 4978TIP3    H136493   6.871   7.107   6.296 -1.0260 -1.9468 -1.9669
 4978TIP3    H236494   6.867   6.979   6.377 -2.2687  0.0198  1.2631
 4979TIP3   OH236495   3.974   1.735   1.088 -0.3636  0.2339 -0.1139
 4979TIP3    H136496   4.024   1.796   1.034 -1.8116  0.9365 -0.7112
 4979TIP3    H236497   3.981   1.770   1.177 -0.0735  0.5144 -0.2462
 4980TIP3   OH236498   4.659   5.354   0.042 -0.1177  0.1654  0.5250
 4980TIP3    H136499   4.671   5.264   0.072  0.6997  0.7528  2.0769
 4980TIP3    H236500   4.716   5.362  -0.034  0.8581 -0.2474  1.1958
 4981TIP3   OH236501   1.822   0.185   7.156  0.3330  0.3434 -0.7639
 4981TIP3    H136502   1.821   0.151   7.066  1.4016  1.7115 -1.3273
 4981TIP3    H236503   1.822   0.280   7.145  2.6884  0.5595  0.6150
 4982TIP3   OH236504   6.896   1.351   7.902 -0.3224  0.5251  0.7628
 4982TIP3    H136505   6.954   1.279   7.927  3.5075  3.7749  2.4618
 4982TIP3    H236506   6.925   1.376   7.815 -1.6134  0.1060  0.1916
 4983TIP3   OH236507   2.306   0.435   6.940  0.5212  0.2100  0.1857
 4983TIP3    H136508   2.401   0.446   6.941  0.6864 -0.5495 -2.1375
 4983TIP3    H236509   2.284   0.407   7.029  2.4761  0.2510  0.7202
 4984TIP3   OH236510   2.879   0.805   1.090 -0.1986 -0.9692 -0.2373
 4984TIP3    H136511   2.866   0.894   1.123 -0.2905 -1.4472  1.0874
 4984TIP3    H236512   2.804   0.788   1.033  0.3692  0.1668 -1.3645
 4985TIP3   OH236513   3.219   2.035   6.901 -0.2716  0.1003  0.1496
 4985TIP3    H136514   3.200   2.120   6.862  0.3818  1.2679  2.2329
 4985TIP3    H236515   3.303   2.046   6.946 -1.0859 -1.0147  2.1093
 4986TIP3   OH236516   6.850   2.564   0.659 -0.1957  0.1070  0.1349
 4986TIP3    H136517   6.891   2.622   0.723 -1.7683 -0.4820  1.7674
 4986TIP3    H236518   6.775   2.526   0.706 -0.7891 -1.1683 -1.7373
 4987TIP3   OH236519   7.121   4.996   6.422 -0.1666 -0.4937  0.5239
 4987TIP3    H136520   7.095   4.912   6.461 -0.9984  0.0027  1.0459
 4987TIP3    H236521   7.199   5.022   6.472  0.3957 -1.1844  0.0319
 4988TIP3   OH236522   4.155   5.100   1.024  0.4754 -0.4199 -0.2995
 4988TIP3    H136523   4.193   5.184   1.000  0.0017  0.1587  0.8922
 4988TIP3    H236524   4.207   5.070   1.098  0.9231 -1.4052 -0.9994
 4989TIP3   OH236525   0.987   3.297   7.916  0.0538  0.1407 -0.6975
 4989TIP3    H136526   0.937   3.376   7.896 -1.0381 -0.4629 -0.4314
 4989TIP3    H236527   0.972   3.239   7.842  0.7388  0.1249 -0.8298
 4990TIP3   OH236528   2.376   2.635   0.179 -0.4635  0.4585  0.2234
 4990TIP3    H136529   2.407   2.579   0.107  0.9425 -0.6743  1.6110
 4990TIP3    H236530   2.330   2.707   0.136  0.4875 -0.0640 -1.8072
 4991TIP3   OH236531   3.590   6.095   6.643  0.0095 -0.0163 -0.4016
 4991TIP3    H136532   3.516   6.140   6.683  2.3392  2.7787  1.1021
 4991TIP3    H236533   3.561   6.077   6.553 -2.8525 -0.1753  0.4465
 4992TIP3   OH236534   3.650   3.421   1.229  0.0248  0.0298 -0.0178
 4992TIP3    H136535   3.635   3.409   1.135 -0.8754  0.3495  0.0689
 4992TIP3    H236536   3.706   3.498   1.234  1.1606 -0.7544 -0.3344
 4993TIP3   OH236537   4.297   6.919   6.444 -0.6951 -0.0524 -0.0128
 4993TIP3    H136538   4.345   7.002   6.447  0.6984 -0.8307  0.2873
 4993TIP3    H236539   4.211   6.939   6.481 -0.2729  1.1810  0.3481
 4994TIP3   OH236540   1.700   4.032   0.360 -0.2287  0.0449  0.1237
 4994TIP3    H136541   1.643   3.977   0.306 -1.3238 -0.5519  1.8100
 4994TIP3    H236542   1.730   4.101   0.301 -1.3793 -0.5617 -1.2244
 4995TIP3   OH236543   6.467   3.072   2.128 -0.2905 -0.1094  0.3342
 4995TIP3    H136544   6.514   3.054   2.209 -1.6089 -2.2029  0.7116
 4995TIP3    H236545   6.529   3.123   2.076  0.7339  0.9504  2.4626
 4996TIP3   OH236546   2.662   1.522   6.653 -0.1913 -0.9070 -0.2089
 4996TIP3    H136547   2.674   1.569   6.735 -1.0393 -0.0681 -0.5371
 4996TIP3    H236548   2.719   1.567   6.591 -0.6668 -0.5732 -0.4166
 4997TIP3   OH236549   1.840   1.336   0.235  0.1560 -0.0721 -0.4182
 4997TIP3    H136550   1.774   1.406   0.240 -0.9752 -1.0930 -0.4589
 4997TIP3    H236551   1.877   1.332   0.323 -0.5490 -0.1223 -0.1112
 4998TIP3   OH236552   1.481   3.671   6.402 -0.1584  0.4322  0.1278
 4998TIP3    H136553   1.484   3.634   6.314 -0.5342 -0.0919  0.3299
 4998TIP3    H236554   1.555   3.630   6.448 -1.7083 -1.6742  0.9463
 4999TIP3   OH236555   0.381   0.493   1.790  0.2044 -0.0398 -0.0671
 4999TIP3    H136556   0.428   0.415   1.760  0.2550 -0.4736  1.1098
 4999TIP3    H236557   0.307   0.459   1.840  1.8181  0.5821  2.9838
 5000TIP3   OH236558   1.291   6.193   5.882  0.7258  0.1118  0.7697
 5000TIP3    H136559   1.266   6.285   5.891 -0.3991  0.0264 -0.9542
 5000TIP3    H236560   1.378   6.196   5.843  0.3313  0.4701 -0.1096
 5001TIP3   OH236561   5.503   3.127   0.641  0.0941 -0.2117 -0.0546
 5001TIP3    H136562   5.408   3.116   0.642 -0.3424  2.1167 -2.9751
 5001TIP3    H236563   5.533   3.071   0.569  0.7373  0.1147 -0.0469
 5002TIP3   OH236564   2.138   4.237   6.314  0.6314  0.8155  0.5615
 5002TIP3    H136565   2.061   4.182   6.327  1.6159 -0.2631  2.2028
 5002TIP3    H236566   2.177   4.205   6.232 -1.2036  2.1167 -0.8856
 5003TIP3   OH236567   3.031   1.908   0.956  0.2420  0.3236  0.3854
 5003TIP3    H136568   3.071   1.926   1.041 -1.5468  2.7339  0.8124
 5003TIP3    H236569   3.069   1.974   0.898 -1.2248  1.0562  0.2238
 5004TIP3   OH236570   3.061   2.531   7.023 -0.4082  0.1886 -0.3934
 5004TIP3    H136571   3.107   2.466   7.076 -1.6947 -0.2891  0.1580
 5004TIP3    H236572   3.084   2.615   7.063  1.3114  0.1324 -1.1464
 5005TIP3   OH236573   0.789   7.003   6.173 -0.2321  0.7258  0.4673
 5005TIP3    H136574   0.727   6.950   6.123  1.4236  0.3122 -1.2676
 5005TIP3    H236575   0.783   7.090   6.134  0.2451  0.6837  0.2862
 5006TIP3   OH236576   6.179   2.061   6.018 -0.2373 -0.0421  0.1513
 5006TIP3    H136577   6.091   2.042   6.051 -1.1305 -0.0852 -2.0434
 5006TIP3    H236578   6.176   2.154   5.994  0.4654  0.0622  0.4518
 5007TIP3   OH236579   6.183   1.004   0.589  0.1032  0.4902  0.1752
 5007TIP3    H136580   6.262   1.036   0.634  0.4933 -0.2364  0.0278
 5007TIP3    H236581   6.139   1.083   0.560  1.2868  0.8978 -0.5952
 5008TIP3   OH236582   1.256   2.323   0.877 -0.3411  0.3590  0.1933
 5008TIP3    H136583   1.220   2.268   0.947  3.2837 -0.9285  1.2808
 5008TIP3    H236584   1.270   2.263   0.804 -0.1026  0.7363 -0.0724
 5009TIP3   OH236585   5.948   3.910   0.491 -0.5265 -0.4314  0.1083
 5009TIP3    H136586   6.006   3.848   0.535  0.2340 -0.3234 -0.7254
 5009TIP3    H236587   5.859   3.880   0.512 -0.1657 -1.4502  0.1856
 5010TIP3   OH236588   6.758   4.697   7.947  0.5287 -0.2188  0.3744
 5010TIP3    H136589   6.820   4.759   7.985 -2.4683  1.5954  2.6789
 5010TIP3    H236590   6.759   4.717   7.853  2.3260  0.6908  0.5319
 5011TIP3   OH236591   6.088   5.856   7.874 -0.4094 -0.1433 -0.5427
 5011TIP3    H136592   6.080   5.950   7.856 -0.5400 -0.3374 -1.6115
 5011TIP3    H236593   5.998   5.825   7.876 -0.3397 -0.5515 -2.1213
 5012TIP3   OH236594   3.134   3.696   7.533  0.1056 -0.4477  0.4214
 5012TIP3    H136595   3.174   3.779   7.507  0.9050 -1.1106 -0.4938
 5012TIP3    H236596   3.142   3.640   7.456  1.2420 -1.9950  1.6198
 5013TIP3   OH236597   3.897   5.759   0.263 -0.3850 -0.2277 -0.3458
 5013TIP3    H136598   3.839   5.721   0.198 -0.0544  0.9444 -1.3751
 5013TIP3    H236599   3.893   5.853   0.245  0.2855  0.0432  0.8631
 5014TIP3   OH236600   2.683   1.247   6.680  0.1227 -0.4271 -0.2786
 5014TIP3    H136601   2.649   1.219   6.766 -0.3311 -2.9140 -1.1816
 5014TIP3    H236602   2.684   1.342   6.685 -1.4365 -0.4393  1.9125
 5015TIP3   OH236603   6.930   0.879   7.750  0.6384  0.2213 -0.2456
 5015TIP3    H136604   6.927   0.839   7.663  0.0909 -0.0404 -0.1078
 5015TIP3    H236605   6.931   0.973   7.734 -2.0662  0.2788 -0.5064
 5016TIP3   OH236606   3.747   3.628   7.885  0.1665 -0.1254  0.4980
 5016TIP3    H136607   3.668   3.662   7.842  0.6410  1.1162  0.5471
 5016TIP3    H236608   3.729   3.638   7.978  1.5765  3.3592  0.5618
 5017TIP3   OH236609   3.975   5.444   6.776 -0.2190  0.6462  0.2327
 5017TIP3    H136610   3.898   5.413   6.824 -0.2486  2.1240  1.1675
 5017TIP3    H236611   3.939   5.495   6.704 -0.1184  1.3898  0.7060
 5018TIP3   OH236612   2.611   0.111   0.310  0.3554 -0.4706 -0.1526
 5018TIP3    H136613   2.625   0.183   0.249  3.5930  0.5006  1.4774
 5018TIP3    H236614   2.679   0.047   0.288 -1.7610 -2.6164 -0.8390
 5019TIP3   OH236615   6.220   2.587   0.471  0.4382 -0.5981  0.4803
 5019TIP3    H136616   6.133   2.565   0.438  0.9084 -3.3739  0.9055
 5019TIP3    H236617   6.266   2.623   0.394 -1.1503  1.4322  0.3742
 5020TIP3   OH236618   0.215   7.060   0.729 -1.0191  0.1405 -0.5875
 5020TIP3    H136619   0.169   7.116   0.668 -0.4663  0.1358 -1.0214
 5020TIP3    H236620   0.164   6.979   0.731 -2.4549  1.0318  0.9043
 5021TIP3   OH236621   3.624   7.130   1.587 -0.5045  0.1500  0.2311
 5021TIP3    H136622   3.541   7.177   1.596 -1.0781 -0.8395  0.2301
 5021TIP3    H236623   3.680   7.167   1.656 -0.9881  0.7110  0.3365
 5022TIP3   OH236624   6.712   5.768   1.241 -0.2699 -0.1879 -0.7682
 5022TIP3    H136625   6.677   5.814   1.318 -1.7257 -0.9264 -0.9618
 5022TIP3    H236626   6.643   5.707   1.216  0.3763 -0.2833 -2.4056
 5023TIP3   OH236627   6.311   1.177   0.763  0.1112  0.3267 -0.1052
 5023TIP3    H136628   6.311   1.270   0.788 -0.0393 -0.2017  2.0604
 5023TIP3    H236629   6.231   1.143   0.802  1.1299 -1.1104  0.8098
 5024TIP3   OH236630   3.159   4.183   1.156 -0.3251 -0.7057 -0.2717
 5024TIP3    H136631   3.114   4.099   1.144  0.1309 -1.2652  1.5886
 5024TIP3    H236632   3.224   4.166   1.223 -0.1095  1.1148  0.0326
 5025TIP3   OH236633   7.024   5.120   7.657 -0.2328 -0.3378  0.0933
 5025TIP3    H136634   6.935   5.133   7.624 -0.8746 -0.4223  1.6911
 5025TIP3    H236635   7.063   5.208   7.658 -1.7310  0.4388  3.1197
 5026TIP3   OH236636   3.695   1.917   6.941  0.2659  0.6911  0.5207
 5026TIP3    H136637   3.726   1.976   6.872  2.0397 -1.7548 -0.9737
 5026TIP3    H236638   3.621   1.871   6.901  0.5300  0.1391  0.6420
 5027TIP3   OH236639   2.955   3.021   0.656  0.4051 -0.7104 -0.6678
 5027TIP3    H136640   2.900   3.096   0.677 -0.8422 -1.2970 -1.6837
 5027TIP3    H236641   2.973   2.979   0.740  1.3099  0.8272 -0.0667
 5028TIP3   OH236642   6.792   2.409   6.434  0.4960  0.0228 -0.0039
 5028TIP3    H136643   6.768   2.474   6.500 -0.0936 -0.2719  0.0818
 5028TIP3    H236644   6.714   2.354   6.426  0.2826  0.5233 -1.5204
 5029TIP3   OH236645   1.863   5.738   6.357  0.1729  0.0955 -0.3103
 5029TIP3    H136646   1.808   5.738   6.436  0.9875  1.0541  0.2853
 5029TIP3    H236647   1.804   5.765   6.287 -0.1831  0.8600  0.2713
 5030TIP3   OH236648   1.502   6.687   7.987  0.2974 -0.1675 -0.0491
 5030TIP3    H136649   1.418   6.676   7.943 -0.5942 -0.0810  1.5763
 5030TIP3    H236650   1.530   6.598   8.007  0.8120 -0.2194 -0.9536
 5031TIP3   OH236651   1.325   5.192   6.446  0.5078  0.5528  0.2214
 5031TIP3    H136652   1.352   5.150   6.364 -0.1820  0.5886 -0.0264
 5031TIP3    H236653   1.300   5.119   6.503 -1.8022  0.6350 -0.6003
 5032TIP3   OH236654   5.445   4.812   0.361  0.0922  0.2868 -0.0848
 5032TIP3    H136655   5.425   4.903   0.382 -1.0234  0.0670 -0.1621
 5032TIP3    H236656   5.527   4.817   0.312  0.3961  1.1852  0.4939
 5033TIP3   OH236657   4.803   2.676   7.293  0.4552 -0.0416 -0.1440
 5033TIP3    H136658   4.766   2.599   7.250 -0.7942  0.3681  0.1609
 5033TIP3    H236659   4.741   2.696   7.363  0.3479  1.6978 -0.6948
 5034TIP3   OH236660   6.956   4.456   5.573  0.2521  0.1784 -0.1842
 5034TIP3    H136661   6.875   4.422   5.612  0.4844 -0.1781 -0.0089
 5034TIP3    H236662   6.984   4.387   5.513  1.0560 -0.2216  0.6302
 5035TIP3   OH236663   0.049   7.000   6.478  0.8369  0.2730  0.5903
 5035TIP3    H136664  -0.039   7.037   6.468  0.4127 -0.8287  0.0968
 5035TIP3    H236665   0.106   7.077   6.491 -0.0287  1.0875 -0.2748
 5036TIP3   OH236666   3.473   5.384   7.211 -0.1828  0.1874 -0.8546
 5036TIP3    H136667   3.508   5.297   7.229 -0.8097  0.0378 -0.2862
 5036TIP3    H236668   3.531   5.421   7.145 -0.1574 -0.8323 -1.4216
 5037TIP3   OH236669   3.955   5.397   0.733  1.4044  0.4003  0.0978
 5037TIP3    H136670   3.979   5.374   0.823  3.3514  0.7186 -0.2956
 5037TIP3    H236671   3.965   5.316   0.684  0.8962  0.3600  0.0550
 5038TIP3   OH236672   2.214   2.956   6.200 -0.2719  0.0692 -0.0732
 5038TIP3    H136673   2.150   2.948   6.271 -1.1340  3.3235 -0.3295
 5038TIP3    H236674   2.216   2.869   6.159 -3.1411 -0.6479  1.1026
 5039TIP3   OH236675   1.556   2.841   7.397  0.3745  0.1501  0.5033
 5039TIP3    H136676   1.532   2.917   7.450 -2.5104 -0.8167  0.7778
 5039TIP3    H236677   1.474   2.791   7.389  2.1183 -2.9502  0.3885
 5040TIP3   OH236678   3.277   1.201   1.484  0.4245  0.0764 -0.3581
 5040TIP3    H136679   3.336   1.125   1.484  1.2190  0.6832 -0.4089
 5040TIP3    H236680   3.254   1.214   1.576  1.0878  0.3763 -0.2290
 5041TIP3   OH236681   5.032   5.302   0.593 -0.0061  0.0988  0.4325
 5041TIP3    H136682   5.004   5.329   0.680  0.2087  0.6764  0.3278
 5041TIP3    H236683   5.086   5.224   0.608 -0.1042  0.0986  0.7970
 5042TIP3   OH236684   0.238   5.244   0.902  0.2674  0.1299 -0.5521
 5042TIP3    H136685   0.269   5.161   0.938 -1.6421 -0.2201  0.4567
 5042TIP3    H236686   0.260   5.308   0.969  2.0500  0.5442 -1.4826
 5043TIP3   OH236687   4.583   6.101   7.924  0.1422 -0.3140  0.5213
 5043TIP3    H136688   4.635   6.023   7.943 -0.6570 -1.3222 -1.1364
 5043TIP3    H236689   4.564   6.094   7.830  1.5775  2.8302 -0.1204
 5044TIP3   OH236690   0.647   2.205   7.932  0.2674 -0.0922 -0.2982
 5044TIP3    H136691   0.632   2.292   7.896 -0.2030 -0.4626 -1.0276
 5044TIP3    H236692   0.688   2.156   7.860 -1.5603 -1.1293 -0.7114
 5045TIP3   OH236693   0.734   2.298   0.680  0.4004 -0.0086  0.4312
 5045TIP3    H136694   0.662   2.290   0.617  1.6058  2.5212 -1.4443
 5045TIP3    H236695   0.727   2.388   0.713  0.4340 -0.9302  3.2865
 5046TIP3   OH236696   2.659   3.069   0.247 -0.5865 -0.6646  0.3001
 5046TIP3    H136697   2.722   3.059   0.319  0.2000 -1.9568 -0.5383
 5046TIP3    H236698   2.615   2.984   0.242 -2.0393  0.0420  0.5116
 5047TIP3   OH236699   1.701   6.627   6.834 -0.4037 -0.5366  0.4832
 5047TIP3    H136700   1.700   6.579   6.751  0.1002 -0.7603  0.6020
 5047TIP3    H236701   1.670   6.565   6.899 -1.2620 -0.2126  0.3891
 5048TIP3   OH236702   5.739   5.040   7.603  0.3443  0.0740  0.1913
 5048TIP3    H136703   5.789   5.105   7.553  1.3528 -0.8238  0.0073
 5048TIP3    H236704   5.698   4.985   7.536 -0.1387  0.2375  0.3506
 5049TIP3   OH236705   3.971   6.012   0.098 -0.0475  0.1008  0.3380
 5049TIP3    H136706   4.046   6.041   0.150  0.8671 -0.3778 -0.6679
 5049TIP3    H236707   3.932   6.093   0.065 -1.9062  0.5741  3.3347
 5050TIP3   OH236708   4.230   2.944   6.510  0.0700 -0.1821  0.1216
 5050TIP3    H136709   4.317   2.962   6.474 -0.4367  0.0461 -1.0268
 5050TIP3    H236710   4.211   2.854   6.483 -0.5283  0.1686 -0.6555
 5051TIP3   OH236711   4.905   2.041   0.821  0.4348  0.5307 -0.7110
 5051TIP3    H136712   4.944   1.972   0.875 -0.5934  0.7155  0.3211
 5051TIP3    H236713   4.952   2.121   0.845  0.9932  0.3548 -1.2114
 5052TIP3   OH236714   4.615   3.516   0.011 -0.0368 -0.6501 -0.0465
 5052TIP3    H136715   4.542   3.461   0.043  1.3584 -2.4298  0.2575
 5052TIP3    H236716   4.660   3.543   0.091 -0.3397  0.4447 -0.2368
 5053TIP3   OH236717   1.328   5.727   6.541 -0.0586 -0.0163  0.4844
 5053TIP3    H136718   1.312   5.644   6.496 -0.6458  0.6603 -0.6209
 5053TIP3    H236719   1.259   5.785   6.508  0.6085  1.0336  0.8969
 5054TIP3   OH236720   0.374   2.555   7.805 -0.0044  0.2710  0.1461
 5054TIP3    H136721   0.431   2.615   7.759 -1.5106  0.8114 -1.0914
 5054TIP3    H236722   0.317   2.611   7.858 -1.2128 -0.0438 -0.7745
 5055TIP3   OH236723   2.471   1.937   1.862  0.5846  0.0056  0.5815
 5055TIP3    H136724   2.423   1.875   1.916 -1.8863  0.1755 -1.2572
 5055TIP3    H236725   2.472   2.018   1.912 -1.6031  0.1493  0.4549
 5056TIP3   OH236726   3.542   0.833   0.429 -0.0406 -0.4326  0.3549
 5056TIP3    H136727   3.487   0.783   0.489 -3.2383  2.6430  0.3413
 5056TIP3    H236728   3.540   0.922   0.463  2.2223  0.4751 -1.6167
 5057TIP3   OH236729   4.787   1.339   2.060 -0.0474  0.0274  0.4145
 5057TIP3    H136730   4.763   1.416   2.009  0.4824 -0.5756 -0.7728
 5057TIP3    H236731   4.801   1.372   2.149  1.5725  1.5608 -0.3646
 5058TIP3   OH236732   3.897   5.071   0.036 -0.7117 -0.0545 -0.4950
 5058TIP3    H136733   3.817   5.037  -0.006 -1.1639  0.3462  0.0322
 5058TIP3    H236734   3.966   5.010   0.008 -1.0648 -0.0047 -1.5289
 5059TIP3   OH236735   4.963   0.691   0.164 -0.2562  0.5218  0.1852
 5059TIP3    H136736   5.056   0.674   0.181 -0.3804 -0.4479 -0.0788
 5059TIP3    H236737   4.960   0.719   0.073 -0.0961  1.7268  0.5225
 5060TIP3   OH236738   3.231   2.109   7.483  1.1441 -0.0624 -0.3774
 5060TIP3    H136739   3.280   2.141   7.559 -0.0354 -0.3541  0.5304
 5060TIP3    H236740   3.141   2.101   7.514  0.3825  0.9966 -2.1789
 5061TIP3   OH236741   6.877   3.579   0.632 -0.2403 -0.2155 -0.5533
 5061TIP3    H136742   6.903   3.644   0.698 -0.2819 -0.7277 -0.0175
 5061TIP3    H236743   6.922   3.499   0.659 -0.2377 -0.4227 -1.1717
 5062TIP3   OH236744   3.424   6.749   7.097  0.3985 -0.0857 -0.2105
 5062TIP3    H136745   3.349   6.752   7.157  0.8867 -1.2640  0.4944
 5062TIP3    H236746   3.499   6.731   7.154  0.9178 -0.9290 -1.1422
 5063TIP3   OH236747   1.603   3.564   5.699  0.5999  0.1684 -0.5467
 5063TIP3    H136748   1.616   3.653   5.666 -2.2082  0.6626 -0.5535
 5063TIP3    H236749   1.627   3.569   5.791  0.6801  0.8599 -0.6001
 5064TIP3   OH236750   4.466   0.274   0.136  0.1538 -0.1345  0.3399
 5064TIP3    H136751   4.414   0.232   0.204 -2.0227 -0.8756 -1.6558
 5064TIP3    H236752   4.409   0.343   0.101  1.4215  0.5824 -0.4048
 5065TIP3   OH236753   4.933   4.658   0.825  0.3517 -0.3855 -0.5497
 5065TIP3    H136754   4.913   4.626   0.913 -0.3256 -0.4424 -0.7186
 5065TIP3    H236755   4.849   4.688   0.790  0.7767  0.5266 -0.8221
 5066TIP3   OH236756   1.683   2.047   1.103  0.0006 -0.1432 -0.0776
 5066TIP3    H136757   1.708   2.090   1.021 -0.6614 -1.2066 -0.8508
 5066TIP3    H236758   1.764   2.046   1.154  0.3288  0.8839 -0.5404
 5067TIP3   OH236759   6.951   0.353   7.518 -0.2414  0.6159  0.2626
 5067TIP3    H136760   6.889   0.308   7.461  0.2325 -2.4349  1.9510
 5067TIP3    H236761   7.028   0.366   7.463 -0.7579  0.3016 -0.5598
 5068TIP3   OH236762   2.801   4.580   0.735  0.5187 -0.2646  0.3641
 5068TIP3    H136763   2.736   4.564   0.667 -0.9007  1.0811  1.3423
 5068TIP3    H236764   2.766   4.537   0.813  0.9123  0.2696  0.8439
 5069TIP3   OH236765   6.563   0.317   7.951  0.3081 -0.0460 -0.8897
 5069TIP3    H136766   6.588   0.403   7.916  0.8164 -0.8629 -2.6722
 5069TIP3    H236767   6.638   0.261   7.932 -0.0737 -0.9254  0.1263
 5070TIP3   OH236768   2.501   3.056   2.124 -0.3065 -0.3111  0.1784
 5070TIP3    H136769   2.549   3.067   2.042  1.8114  0.2321  1.4275
 5070TIP3    H236770   2.501   2.961   2.139  1.1837 -0.2732  0.5732
 5071TIP3   OH236771   4.649   3.192   8.009 -0.1040 -0.3447 -0.1137
 5071TIP3    H136772   4.662   3.229   8.096  1.0355  0.6906 -0.6892
 5071TIP3    H236773   4.568   3.141   8.016 -0.1204 -0.1404  1.4888
 5072TIP3   OH236774   7.068   6.626   1.102  0.0168  0.3835  0.2459
 5072TIP3    H136775   7.031   6.713   1.085 -0.7892 -0.1188 -0.6264
 5072TIP3    H236776   7.055   6.613   1.196 -2.9776 -0.1615 -0.1509
 5073TIP3   OH236777   3.970   1.566   6.912  0.4282  0.5636 -0.3487
 5073TIP3    H136778   3.990   1.607   6.996  0.4611 -0.5966  0.2256
 5073TIP3    H236779   4.055   1.555   6.870  0.6052 -0.4926  0.2572
 5074TIP3   OH236780   6.296   2.803   6.435  0.1983 -0.1518  0.1408
 5074TIP3    H136781   6.257   2.718   6.457  1.3829 -0.9684 -0.8035
 5074TIP3    H236782   6.224   2.866   6.443 -0.6202 -1.1851  1.1789
 5075TIP3   OH236783   6.539   4.226   6.269  0.2787  0.5093  0.2531
 5075TIP3    H136784   6.511   4.136   6.253  3.1147 -0.4422  0.2336
 5075TIP3    H236785   6.480   4.279   6.214 -2.4984 -1.0969  1.4551
 5076TIP3   OH236786   2.147   4.063   5.715  0.8131 -0.0670 -0.0997
 5076TIP3    H136787   2.174   4.141   5.763 -0.7389  0.3791  0.1062
 5076TIP3    H236788   2.134   3.996   5.782 -2.8800  0.9763  0.4879
 5077TIP3   OH236789   1.812   5.272   0.793 -0.4313  0.7268 -0.2723
 5077TIP3    H136790   1.786   5.342   0.732  0.6051  1.4411  0.0735
 5077TIP3    H236791   1.880   5.312   0.847  0.3959 -0.6583 -0.2560
 5078TIP3   OH236792   3.512   5.921   7.763 -0.3219  0.3754  0.8554
 5078TIP3    H136793   3.563   5.852   7.719  1.2504  1.4303  0.9426
 5078TIP3    H236794   3.530   5.908   7.856 -3.2320 -1.5269  1.2843
 5079TIP3   OH236795   1.944   2.291   0.465 -0.2031  0.5164  0.2867
 5079TIP3    H136796   1.962   2.198   0.479 -1.5854  0.2456  0.3631
 5079TIP3    H236797   1.853   2.302   0.491  0.1711  2.0631  1.0189
 5080TIP3   OH236798   2.843   0.619   0.194 -0.5060 -0.2223 -0.2426
 5080TIP3    H136799   2.884   0.673   0.126 -1.3759 -0.8769 -1.3335
 5080TIP3    H236800   2.895   0.635   0.272  0.1389  1.0581 -0.9009
 5081TIP3   OH236801   2.585   5.945   0.463 -0.2915  0.1672  0.4068
 5081TIP3    H136802   2.512   5.944   0.525  0.4345 -0.2724  1.2920
 5081TIP3    H236803   2.654   5.994   0.509  0.0491  0.3656 -0.3069
 5082TIP3   OH236804   5.277   6.925   0.393  0.5441  0.1807  0.4142
 5082TIP3    H136805   5.317   6.842   0.420 -0.5187 -0.6051 -0.3130
 5082TIP3    H236806   5.203   6.936   0.452 -0.5738 -0.4997 -0.8116
 5083TIP3   OH236807   5.694   7.056   1.689  0.4676  0.4117  0.2244
 5083TIP3    H136808   5.742   6.975   1.707 -0.8478 -0.2397  0.9541
 5083TIP3    H236809   5.729   7.119   1.751  0.7034  0.0781  0.4355
 5084TIP3   OH236810   5.457   0.002   7.586 -0.0877  0.6377 -0.3976
 5084TIP3    H136811   5.370  -0.029   7.610  0.7729 -1.0788  0.6448
 5084TIP3    H236812   5.456   0.096   7.607 -2.1274  0.9958 -1.7969
 5085TIP3   OH236813   4.654   0.463   0.264 -0.5957 -0.0516 -0.7312
 5085TIP3    H136814   4.647   0.427   0.352 -2.4241  0.7051 -0.5221
 5085TIP3    H236815   4.595   0.410   0.211 -0.5554  0.3643 -1.2055
 5086TIP3   OH236816   2.731   2.638   2.239  0.1885  0.6479  0.2068
 5086TIP3    H136817   2.735   2.547   2.267 -1.3266  0.7397  0.8218
 5086TIP3    H236818   2.800   2.646   2.173 -1.1089 -1.5407 -1.5372
 5087TIP3   OH236819   1.041   5.603   0.937  0.0912 -0.0905 -0.2009
 5087TIP3    H136820   1.112   5.634   0.880 -1.3349  1.5997 -1.1953
 5087TIP3    H236821   1.051   5.653   1.018 -0.2797  0.6476 -0.5864
 5088TIP3   OH236822   3.383   5.127   6.879  0.3695 -0.2750  0.3068
 5088TIP3    H136823   3.402   5.221   6.872 -2.7495  0.3462 -2.1894
 5088TIP3    H236824   3.305   5.122   6.933  0.4039 -1.4418  0.2734
 5089TIP3   OH236825   6.451   5.641   1.528 -0.8637  0.8080  0.2592
 5089TIP3    H136826   6.410   5.572   1.476 -1.0966 -0.0301  1.5083
 5089TIP3    H236827   6.488   5.595   1.603 -0.4574  1.9731  0.7849
 5090TIP3   OH236828   5.570   7.090   7.974  0.2169 -0.2758 -0.1215
 5090TIP3    H136829   5.498   7.027   7.973  0.7806 -0.9494  0.5286
 5090TIP3    H236830   5.648   7.039   7.950  0.5023  0.4144 -0.7059
 5091TIP3   OH236831   2.786   3.532   1.594  0.1881 -0.3602 -0.0979
 5091TIP3    H136832   2.834   3.489   1.523 -0.3719 -0.1758 -0.6039
 5091TIP3    H236833   2.820   3.493   1.674 -0.5028 -1.9735 -0.5413
 5092TIP3   OH236834   1.919   5.919   7.495  0.4507  0.0617  0.0499
 5092TIP3    H136835   1.968   5.836   7.488  1.2555  0.1301  3.3324
 5092TIP3    H236836   1.891   5.922   7.586 -1.0954  2.6302 -0.4297
 5093TIP3   OH236837   4.411   3.957   1.189  0.1997 -0.1697  0.2291
 5093TIP3    H136838   4.415   4.044   1.228 -1.6480  0.1527 -0.1970
 5093TIP3    H236839   4.326   3.923   1.215  0.5904 -1.5541 -0.2268
 5094TIP3   OH236840   5.352   5.653   0.485  0.0922 -0.4873 -0.1215
 5094TIP3    H136841   5.391   5.708   0.417  0.0808 -0.7345 -0.3317
 5094TIP3    H236842   5.311   5.581   0.437 -0.8173 -0.1141  0.0886
 5095TIP3   OH236843   0.782   4.263   0.363  0.4026 -0.4397 -0.0272
 5095TIP3    H136844   0.868   4.269   0.404 -0.5593  2.5161  1.8398
 5095TIP3    H236845   0.784   4.328   0.293  0.3858 -1.9948 -1.5256
 5096TIP3   OH236846   3.915   6.671   0.933 -0.9927  0.1113  0.4861
 5096TIP3    H136847   3.831   6.680   0.978 -0.4849  1.5946  1.2374
 5096TIP3    H236848   3.955   6.758   0.941 -0.6332  0.3239 -2.4305
 5097TIP3   OH236849   3.022   4.416   0.030 -0.5266 -0.0465 -0.2001
 5097TIP3    H136850   3.044   4.494  -0.022 -0.5759 -0.7380 -1.2886
 5097TIP3    H236851   2.933   4.432   0.060 -0.6268  0.2122 -0.6272
 5098TIP3   OH236852   3.271   3.414   0.247 -0.3838  0.1487  0.1093
 5098TIP3    H136853   3.205   3.404   0.315 -1.8558 -0.3606 -1.3496
 5098TIP3    H236854   3.242   3.490   0.196  1.5066  1.4685  0.8773
 5099TIP3   OH236855   1.928   0.746   1.233 -0.7005  0.3555 -0.0816
 5099TIP3    H136856   1.919   0.661   1.190 -1.9184 -0.1427  1.0678
 5099TIP3    H236857   2.002   0.735   1.293 -1.4761 -0.2232  0.7771
 5100TIP3   OH236858   0.540   3.782   6.637 -0.9083 -0.3819 -0.0758
 5100TIP3    H136859   0.514   3.790   6.545  0.6235 -0.3161 -0.5283
 5100TIP3    H236860   0.467   3.735   6.679 -0.8489 -1.9912 -1.6838
 5101TIP3   OH236861   0.493   6.004   1.143  0.1046 -0.5864  0.0173
 5101TIP3    H136862   0.460   6.084   1.101  1.3158 -1.0631 -1.9972
 5101TIP3    H236863   0.577   5.988   1.100 -0.9990 -4.0269 -1.1396
 5102TIP3   OH236864   0.536   6.103   0.827 -0.2094  0.4344  0.0181
 5102TIP3    H136865   0.451   6.146   0.819  0.1585  0.9519 -1.7514
 5102TIP3    H236866   0.593   6.153   0.767  1.3031  0.0151  1.0458
 5103TIP3   OH236867   1.903   1.996   0.491 -0.0555 -0.2460 -0.1276
 5103TIP3    H136868   1.859   1.912   0.498  0.3596 -0.5314 -0.7904
 5103TIP3    H236869   1.957   1.988   0.412  0.7990  0.2597  0.3886
 5104TIP3   OH236870   4.378   5.188   7.041 -0.3958 -0.0179 -0.2638
 5104TIP3    H136871   4.329   5.183   6.958 -1.7498  1.7160  0.3723
 5104TIP3    H236872   4.460   5.231   7.017 -0.6317  0.1724 -0.7526
 5105TIP3   OH236873   1.648   4.064   1.271 -0.1161 -0.6597  0.5522
 5105TIP3    H136874   1.679   3.973   1.272 -2.0748 -1.4184 -0.8378
 5105TIP3    H236875   1.668   4.094   1.182  2.8085  1.2239  1.6983
 5106TIP3   OH236876   1.322   4.489   0.944  0.6276  0.7041 -0.1971
 5106TIP3    H136877   1.230   4.491   0.918  0.7176  2.4824 -0.5394
 5106TIP3    H236878   1.367   4.444   0.872  0.3355  2.1131 -1.3152
 5107TIP3   OH236879   6.679   6.000   0.211 -0.1593 -0.1689 -0.7766
 5107TIP3    H136880   6.602   5.962   0.253  0.3486 -0.1567  0.1935
 5107TIP3    H236881   6.745   5.931   0.215 -0.0487 -0.1149 -1.4388
 5108TIP3   OH236882   1.094   3.551   0.056  0.5865 -0.3904 -0.6232
 5108TIP3    H136883   1.002   3.550   0.080  0.8791  1.1758  0.7317
 5108TIP3    H236884   1.094   3.533  -0.038 -1.2382  1.0396 -0.9530
 5109TIP3   OH236885   3.216   3.028   7.029 -0.1036  0.9081 -0.2631
 5109TIP3    H136886   3.273   2.984   6.966  1.0462  1.4591  0.3484
 5109TIP3    H236887   3.207   3.117   6.995 -0.7384  0.7875 -0.4284
 5110TIP3   OH236888   2.770   4.321   6.682  0.3298 -0.5390  0.2044
 5110TIP3    H136889   2.760   4.297   6.774  0.7750 -1.1874  0.0886
 5110TIP3    H236890   2.858   4.357   6.676  0.3130 -0.5287  0.0268
 5111TIP3   OH236891   1.059   2.087   1.578 -0.0257 -0.2193  0.1886
 5111TIP3    H136892   1.137   2.139   1.600  1.8609 -2.8746  0.2721
 5111TIP3    H236893   1.054   2.021   1.648 -1.8639 -0.6407 -0.2955
 5112TIP3   OH236894   0.542   1.516   7.511  0.0633 -0.5900  0.2794
 5112TIP3    H136895   0.614   1.575   7.533 -1.0437  0.9307 -0.0495
 5112TIP3    H236896   0.570   1.473   7.430  1.0222 -0.8052  0.7024
 5113TIP3   OH236897   6.770   4.901   2.239 -0.1036  0.3206 -0.3112
 5113TIP3    H136898   6.798   4.975   2.293  0.1441  0.0468 -0.0639
 5113TIP3    H236899   6.848   4.846   2.231 -0.2403  0.1726 -0.6395
 5114TIP3   OH236900   2.096   0.678   1.452  0.0706 -0.3507 -0.4079
 5114TIP3    H136901   2.067   0.707   1.538 -2.9586  1.0879 -1.7732
 5114TIP3    H236902   2.175   0.729   1.434 -1.2416  1.9831  0.1275
 5115TIP3   OH236903   6.033   4.346   1.046 -0.1154 -0.4103 -0.1417
 5115TIP3    H136904   6.062   4.275   1.104 -0.3430  0.6715  1.3610
 5115TIP3    H236905   5.985   4.406   1.103  1.0820  1.5620 -1.0888
 5116TIP3   OH236906   5.906   5.722   6.556  0.1125  0.3137 -0.4994
 5116TIP3    H136907   5.945   5.776   6.624 -1.8572  0.5567  0.5167
 5116TIP3    H236908   5.863   5.784   6.497 -0.0374 -0.0070 -0.7365
 5117TIP3   OH236909   6.633   1.386   0.699 -0.1707 -0.3237  0.1826
 5117TIP3    H136910   6.584   1.409   0.621  1.0930  0.7827 -0.3317
 5117TIP3    H236911   6.675   1.302   0.678  1.3517  0.6644 -0.9568
 5118TIP3   OH236912   2.717   3.568   7.516 -0.2364  1.2658  0.2850
 5118TIP3    H136913   2.695   3.570   7.423 -0.4407 -2.5552  0.1000
 5118TIP3    H236914   2.632   3.559   7.561 -0.0638  2.0917  0.8055
 5119TIP3   OH236915   3.121   2.168   0.845 -0.0144 -0.0204  0.0276
 5119TIP3    H136916   3.211   2.167   0.879  0.0515 -0.9989 -0.1486
 5119TIP3    H236917   3.114   2.252   0.798  0.6543  0.2655  0.4258
 5120TIP3   OH236918   1.750   1.182   0.831  0.2530 -0.1404 -0.7457
 5120TIP3    H136919   1.754   1.241   0.906  3.3963  0.9283 -1.6078
 5120TIP3    H236920   1.785   1.232   0.758  1.6849 -2.5648 -1.8669
 5121TIP3   OH236921   2.837   1.758   0.827  0.3116 -0.0169 -0.1032
 5121TIP3    H136922   2.896   1.804   0.886 -0.1914 -1.0685  1.2860
 5121TIP3    H236923   2.777   1.825   0.795  0.8432  0.6493  0.2884
 5122TIP3   OH236924   5.308   3.274   0.149 -0.3581  0.6959 -0.1736
 5122TIP3    H136925   5.276   3.296   0.236 -0.8261  0.9327 -0.4073
 5122TIP3    H236926   5.291   3.180   0.141  0.1425  0.5684  0.1791
 5123TIP3   OH236927   4.143   2.855   7.487 -1.0561  0.0817  0.2053
 5123TIP3    H136928   4.100   2.845   7.572  0.6834 -0.8612  1.0401
 5123TIP3    H236929   4.178   2.945   7.488  0.4207 -0.4686  1.2565
 5124TIP3   OH236930   7.088   4.599   5.376 -0.4630  0.1453 -0.0435
 5124TIP3    H136931   7.159   4.598   5.440 -0.8512  0.0777  0.3924
 5124TIP3    H236932   7.090   4.512   5.336  0.2072  0.4143 -0.6032
 5125TIP3   OH236933   2.295   2.407   0.578 -0.7070  0.4695  0.2063
 5125TIP3    H136934   2.386   2.433   0.595 -0.3297  0.1672 -1.1945
 5125TIP3    H236935   2.244   2.450   0.646  0.4302  1.0947  0.6821
 5126TIP3   OH236936   0.566   4.719   1.598  0.2264  0.4097  0.0365
 5126TIP3    H136937   0.537   4.799   1.641 -0.0084  0.6190 -0.5118
 5126TIP3    H236938   0.588   4.660   1.671 -0.3012  0.7116  0.4494
 5127TIP3   OH236939   0.216   4.310   2.327 -0.1324 -0.6583  0.1370
 5127TIP3    H136940   0.132   4.342   2.294  0.8846  0.5972 -1.3852
 5127TIP3    H236941   0.276   4.383   2.315  1.2833 -1.6612  0.8189
 5128TIP3   OH236942   0.574   2.921   0.043 -0.4620  0.7578  0.0986
 5128TIP3    H136943   0.667   2.927   0.023 -0.3199  0.5328  0.6782
 5128TIP3    H236944   0.561   2.831   0.072 -0.9578  0.6478 -0.4606
 5129TIP3   OH236945   1.850   6.531   0.242 -0.1266 -0.5141  0.0495
 5129TIP3    H136946   1.946   6.527   0.240  0.0753  0.3053  2.9608
 5129TIP3    H236947   1.823   6.441   0.261  0.1439 -0.5297  0.3716
 5130TIP3   OH236948   5.132   3.041   6.466 -0.4783  0.5512  0.1824
 5130TIP3    H136949   5.178   2.960   6.444 -1.7569  0.1921 -1.3574
 5130TIP3    H236950   5.149   3.098   6.391 -1.0733  1.0491  0.4238
 5131TIP3   OH236951   4.663   3.843   7.670  0.5080 -0.5235 -0.4185
 5131TIP3    H136952   4.715   3.768   7.640 -0.6716 -0.7004 -2.1785
 5131TIP3    H236953   4.574   3.808   7.682  0.0184  0.5067 -0.8982
 5132TIP3   OH236954   2.149   6.787   6.071 -0.2790  0.3200 -0.0527
 5132TIP3    H136955   2.110   6.873   6.054  0.8369  0.6634 -0.9898
 5132TIP3    H236956   2.170   6.752   5.984  0.9034 -0.1228  0.3904
 5133TIP3   OH236957   6.912   3.431   6.745 -0.7338 -0.2272 -0.1775
 5133TIP3    H136958   6.965   3.385   6.680 -0.4330 -0.0494 -0.0576
 5133TIP3    H236959   6.913   3.522   6.717 -1.6319 -0.3411 -0.6208
 5134TIP3   OH236960   2.958   7.070   6.960  0.2851 -0.2226  0.5375
 5134TIP3    H136961   2.875   7.080   7.008  0.0811  0.7001 -0.0033
 5134TIP3    H236962   3.014   7.022   7.021 -0.1694  0.4004  1.4776
 5135TIP3   OH236963   6.343   4.848   1.244 -0.4887 -0.4413 -0.7372
 5135TIP3    H136964   6.293   4.829   1.324 -0.4599  0.7009 -0.4168
 5135TIP3    H236965   6.277   4.876   1.181 -0.3298  0.7621 -0.4117
 5136TIP3   OH236966   3.258   0.825   0.522 -0.2125 -0.2039 -0.5318
 5136TIP3    H136967   3.262   0.919   0.537  0.9768 -0.3857  0.5087
 5136TIP3    H236968   3.196   0.793   0.586  0.1588 -0.2353 -0.1808
 5137TIP3   OH236969   2.627   0.308   7.730  0.4238 -0.1162 -0.0778
 5137TIP3    H136970   2.709   0.268   7.759  1.0777 -0.0010 -1.6631
 5137TIP3    H236971   2.615   0.384   7.787  0.8255 -0.7709  0.8930
 5138TIP3   OH236972   3.148   3.665   1.819 -0.0288  0.6216 -0.0994
 5138TIP3    H136973   3.163   3.701   1.731  1.6827  1.4307  0.4811
 5138TIP3    H236974   3.209   3.713   1.875  0.4967 -1.4014  1.1726
 5139TIP3   OH236975   6.880   6.584   8.035 -0.3155  0.6280  0.4476
 5139TIP3    H136976   6.930   6.569   7.955 -0.3013  1.5641  0.2741
 5139TIP3    H236977   6.935   6.547   8.104 -0.3988 -0.3226  0.0175
 5140TIP3   OH236978   1.782   3.925   0.599  0.7373 -0.0902  0.0666
 5140TIP3    H136979   1.734   3.959   0.523  1.0475 -0.6377 -0.3812
 5140TIP3    H236980   1.764   3.988   0.668  0.6742  0.5718 -0.5361
 5141TIP3   OH236981   6.960   3.966   7.769  0.1210 -0.2949  1.0940
 5141TIP3    H136982   6.917   3.899   7.822 -0.5785  0.5430  1.6108
 5141TIP3    H236983   6.943   4.048   7.815  0.8411  0.2665  0.3986
 5142TIP3   OH236984   0.981   6.417   0.127  0.4751  0.7378  0.1445
 5142TIP3    H136985   1.053   6.432   0.065 -0.1769  0.4977 -0.6904
 5142TIP3    H236986   1.007   6.337   0.173  1.1486  1.1302  0.4646
 5143TIP3   OH236987   4.600   4.889   2.077 -0.7699 -0.1105  0.0490
 5143TIP3    H136988   4.690   4.904   2.050 -0.6382 -1.8834 -0.6092
 5143TIP3    H236989   4.556   4.973   2.063  0.0175 -0.0973 -2.7566
 5144TIP3   OH236990   2.950   1.870   7.863 -0.2727 -1.0958 -0.1234
 5144TIP3    H136991   3.035   1.911   7.881  0.3728 -1.7677 -1.5018
 5144TIP3    H236992   2.900   1.884   7.943  0.8562  0.0183  0.4317
 5145TIP3   OH236993   5.760   4.869   0.568  0.0127 -0.2850  0.2256
 5145TIP3    H136994   5.775   4.775   0.570 -1.5311 -0.5684  2.1727
 5145TIP3    H236995   5.738   4.888   0.476  1.2314 -1.6258 -0.3770
 5146TIP3   OH236996   1.111   0.402   6.685 -0.5771 -0.4270 -0.4070
 5146TIP3    H136997   1.041   0.340   6.664  0.6741 -2.8292  1.9560
 5146TIP3    H236998   1.077   0.451   6.761 -0.1087 -0.9206  0.1306
 5147TIP3   OH236999   1.178   4.189   0.998  0.5101 -0.1918 -0.5434
 5147TIP3    H137000   1.138   4.129   0.936  0.2268  0.7092 -1.2536
 5147TIP3    H237001   1.111   4.255   1.015  1.4879  1.0363 -1.3262
 5148TIP3   OH237002   1.478   5.933   6.715  0.3746 -0.1529 -0.0985
 5148TIP3    H137003   1.427   5.924   6.634 -1.6623  0.3170  1.0587
 5148TIP3    H237004   1.510   5.845   6.733 -1.6382 -0.8914  0.0906
 5149TIP3   OH237005   1.209   2.180   0.076  0.1641 -0.1657  0.4662
 5149TIP3    H137006   1.304   2.172   0.070  0.1018  0.3554 -2.3105
 5149TIP3    H237007   1.175   2.112   0.019 -1.3367 -2.1468  3.4244
 5150TIP3   OH237008   5.280   1.564   1.110 -0.0228  0.3569  0.0402
 5150TIP3    H137009   5.222   1.565   1.187  1.0192 -0.9050  0.8802
 5150TIP3    H237010   5.292   1.471   1.091  0.3995  0.6470 -1.1631
 5151TIP3   OH237011   1.105   2.704   1.638 -0.7741 -0.0524  0.0421
 5151TIP3    H137012   1.123   2.660   1.721  0.8603  1.2258  0.4184
 5151TIP3    H237013   1.028   2.758   1.655  0.1852  1.0378  1.1032
 5152TIP3   OH237014   5.120   6.456   6.163 -0.0973  0.1554 -0.0451
 5152TIP3    H137015   5.164   6.535   6.194  0.7633 -0.7807  1.2402
 5152TIP3    H237016   5.034   6.486   6.133  0.7629  1.7884 -1.0269
 5153TIP3   OH237017   3.439   6.380   6.554 -0.0185  0.5250 -1.3870
 5153TIP3    H137018   3.431   6.475   6.544  1.1377  0.8410  0.1974
 5153TIP3    H237019   3.390   6.360   6.633  2.8236  0.4660  0.5214
 5154TIP3   OH237020   5.303   5.090   6.401 -0.1812  0.3855  0.1904
 5154TIP3    H137021   5.222   5.116   6.357 -0.0184  2.1240  0.8350
 5154TIP3    H237022   5.371   5.104   6.336 -0.1472  1.1739  0.3909
 5155TIP3   OH237023   6.725   1.651   7.186 -0.2541 -0.1191  1.0790
 5155TIP3    H137024   6.657   1.666   7.252  0.7049 -0.0940  2.1046
 5155TIP3    H237025   6.805   1.684   7.227  0.3017  0.2630 -0.2774
 5156TIP3   OH237026   5.835   2.784   7.489 -0.2872  0.4548  0.0692
 5156TIP3    H137027   5.915   2.836   7.484 -0.0516 -0.0680 -2.8696
 5156TIP3    H237028   5.790   2.818   7.566  2.2006  1.5269  1.1535
 5157TIP3   OH237029   7.053   2.912   1.688  0.6501 -0.2050 -0.7673
 5157TIP3    H137030   7.105   2.860   1.750 -0.6301  1.7425  2.1978
 5157TIP3    H237031   6.975   2.860   1.672 -0.7624  0.6889  2.4079
 5158TIP3   OH237032   4.230   2.215   2.038 -0.2918  0.2277  0.3065
 5158TIP3    H137033   4.211   2.299   2.081  1.5240  0.0139  1.6146
 5158TIP3    H237034   4.144   2.179   2.018 -1.1318  2.6142 -0.7456
 5159TIP3   OH237035   5.735   2.579   0.410 -0.6989 -0.5045 -0.4992
 5159TIP3    H137036   5.699   2.654   0.456  0.2226 -0.7409  0.6537
 5159TIP3    H237037   5.741   2.510   0.476  2.7726 -0.1654 -0.2620
 5160TIP3   OH237038   5.438   1.175   7.225  0.2268  0.3346  0.0851
 5160TIP3    H137039   5.391   1.253   7.254  0.7023  0.3310  0.9073
 5160TIP3    H237040   5.496   1.206   7.156 -1.3401  0.2407 -1.3386
 5161TIP3   OH237041   6.419   2.657   0.666 -0.1732  0.5661  0.0166
 5161TIP3    H137042   6.357   2.619   0.604  0.0055  0.1174  0.1086
 5161TIP3    H237043   6.494   2.682   0.613  0.4651 -0.8783  0.1938
 5162TIP3   OH237044   3.059   6.366   7.695  0.6196 -0.4916 -0.1651
 5162TIP3    H137045   2.973   6.340   7.729  1.4159 -0.5267  1.9296
 5162TIP3    H237046   3.097   6.284   7.663  0.5854 -0.7978  0.5597
 5163TIP3   OH237047   2.569   4.758   7.502  0.3830 -0.0518  0.0954
 5163TIP3    H137048   2.499   4.783   7.442 -1.8372 -1.4961  1.9218
 5163TIP3    H237049   2.596   4.671   7.472  1.0663  0.2734 -0.2692
 5164TIP3   OH237050   4.390   5.839   7.555 -0.2659 -0.5025 -0.4933
 5164TIP3    H137051   4.423   5.798   7.475 -0.2243 -0.0188 -0.7298
 5164TIP3    H237052   4.353   5.767   7.605  0.9517 -1.0352 -0.3146
 5165TIP3   OH237053   2.602   5.784   7.081 -0.0595 -0.3857  0.1446
 5165TIP3    H137054   2.633   5.854   7.138 -0.4299  1.0929 -1.3731
 5165TIP3    H237055   2.574   5.829   7.001  1.0669 -2.4106 -1.4893
 5166TIP3   OH237056   4.876   2.125   1.102  0.6311  0.2175  0.1375
 5166TIP3    H137057   4.922   2.095   1.180  2.1279  1.4157 -0.2222
 5166TIP3    H237058   4.812   2.189   1.135  1.4621  0.9457  0.3934
 5167TIP3   OH237059   2.541   4.557   2.184  0.5934  0.0689  0.0211
 5167TIP3    H137060   2.493   4.513   2.113 -1.9349  1.7300  0.5680
 5167TIP3    H237061   2.570   4.640   2.145  1.0480  0.0635  0.3410
 5168TIP3   OH237062   0.254   2.264   0.493 -0.3261 -0.0409  1.2409
 5168TIP3    H137063   0.194   2.313   0.437 -0.3995 -0.9267  0.5177
 5168TIP3    H237064   0.250   2.309   0.577 -0.8138  0.8463  0.7676
 5169TIP3   OH237065   1.368   5.581   6.766 -0.6422  0.1075 -0.0129
 5169TIP3    H137066   1.354   5.498   6.720 -0.9490  0.2420 -0.1687
 5169TIP3    H237067   1.334   5.648   6.706  0.0291  0.3853 -0.0828
 5170TIP3   OH237068   2.402   0.211   7.116 -0.0128  0.0231 -0.6331
 5170TIP3    H137069   2.450   0.256   7.186 -0.0096  0.0674 -0.6632
 5170TIP3    H237070   2.467   0.155   7.074 -0.7321 -2.5555  1.4927
 5171TIP3   OH237071   3.366   1.043   0.812 -0.1147 -0.0620 -0.0126
 5171TIP3    H137072   3.272   1.062   0.814 -0.2792 -0.8988  0.3968
 5171TIP3    H237073   3.407   1.129   0.807 -0.9262  0.2796 -1.3683
 5172TIP3   OH237074   3.161   0.816   7.900 -0.3939 -0.2846  0.1568
 5172TIP3    H137075   3.254   0.832   7.916 -0.4196 -0.8586  0.9421
 5172TIP3    H237076   3.148   0.840   7.808  0.0524  1.9107  0.6136
 5173TIP3   OH237077   4.058   6.904   1.573 -0.2719 -0.2288  0.0178
 5173TIP3    H137078   4.065   6.941   1.486  0.9317 -0.2007  0.1086
 5173TIP3    H237079   4.001   6.965   1.621  1.1596  1.1993 -0.0126
 5174TIP3   OH237080   0.468   1.783   7.225  0.3555  1.1272 -0.5535
 5174TIP3    H137081   0.391   1.729   7.210  0.0047  1.9245 -1.7539
 5174TIP3    H237082   0.448   1.832   7.305  0.6919 -0.4807  0.5726
 5175TIP3   OH237083   1.538   3.549   6.831  0.7375  0.4963  0.7259
 5175TIP3    H137084   1.566   3.582   6.916  1.0437  0.9773  0.4395
 5175TIP3    H237085   1.583   3.605   6.767  0.4561  0.1845  0.2500
 5176TIP3   OH237086   4.733   1.304   0.429 -0.0884 -0.2982 -0.2965
 5176TIP3    H137087   4.739   1.284   0.336  0.0215  0.2097 -0.4016
 5176TIP3    H237088   4.763   1.395   0.436 -0.2576 -0.2780  0.2103
 5177TIP3   OH237089   1.778   2.451   7.764 -0.1455  0.1939  0.1544
 5177TIP3    H137090   1.710   2.516   7.781 -0.1592  0.1673  0.1997
 5177TIP3    H237091   1.752   2.374   7.815  0.2877  0.4229  0.7321
 5178TIP3   OH237092   4.371   1.472   6.294 -0.0760 -0.2850 -0.2644
 5178TIP3    H137093   4.302   1.462   6.359 -0.8656  0.2034 -1.0144
 5178TIP3    H237094   4.327   1.506   6.216  0.5642 -2.1670 -1.5441
 5179TIP3   OH237095   3.412   0.792   1.684 -0.0881  0.8235  0.0024
 5179TIP3    H137096   3.493   0.772   1.731 -0.9700 -0.7942  0.9391
 5179TIP3    H237097   3.342   0.775   1.748 -1.3165 -0.9081 -1.6931
 5180TIP3   OH237098   3.315   4.397   0.296  0.3334  0.0423 -0.4291
 5180TIP3    H137099   3.290   4.478   0.253 -0.3536 -0.0930 -0.3035
 5180TIP3    H237100   3.234   4.366   0.338  1.1893  0.7076  1.8347
 5181TIP3   OH237101   2.785   5.173   6.707  0.3283 -0.0566  0.2747
 5181TIP3    H137102   2.702   5.211   6.680  0.8375 -0.2147 -1.6210
 5181TIP3    H237103   2.784   5.084   6.671  0.8369 -0.4831  1.2528
 5182TIP3   OH237104   0.462   6.203   7.326  0.2852 -0.5056  0.1386
 5182TIP3    H137105   0.501   6.224   7.411 -0.8892  1.0435  0.3411
 5182TIP3    H237106   0.370   6.226   7.335 -0.0202 -1.0321 -1.3230
 5183TIP3   OH237107   4.759   4.145   1.082 -0.0294 -0.6549 -0.5128
 5183TIP3    H137108   4.667   4.165   1.096 -0.5963 -1.9725 -1.9595
 5183TIP3    H237109   4.806   4.198   1.146 -1.7631  0.3031  0.0266
 5184TIP3   OH237110   0.609   6.802   7.740 -0.3705  0.5399  0.4123
 5184TIP3    H137111   0.553   6.744   7.689  0.3946 -0.3674  0.5800
 5184TIP3    H237112   0.667   6.842   7.676 -0.4387  0.5971  0.3856
 5185TIP3   OH237113   5.003   0.084   6.075  0.4377 -0.2049  0.1114
 5185TIP3    H137114   5.011  -0.006   6.044  1.1657 -0.1355  0.0884
 5185TIP3    H237115   5.013   0.138   5.996 -1.1108 -0.1207 -0.0608
 5186TIP3   OH237116   5.781   2.628   7.911 -0.0883 -0.0429  0.1241
 5186TIP3    H137117   5.809   2.707   7.864  0.8429 -0.6973 -0.4676
 5186TIP3    H237118   5.686   2.628   7.905 -0.0449  0.5333 -0.7082
 5187TIP3   OH237119   6.732   0.757   0.425 -0.1292  0.2605 -0.0929
 5187TIP3    H137120   6.665   0.689   0.436  0.2556 -0.2248 -0.6626
 5187TIP3    H237121   6.771   0.766   0.511 -1.0147  0.6397  0.2741
 5188TIP3   OH237122   3.516   4.810   6.237  0.0324 -0.0490  0.0441
 5188TIP3    H137123   3.513   4.905   6.246 -1.0306 -0.2014  1.8467
 5188TIP3    H237124   3.484   4.793   6.149  0.6112  1.2713 -0.4360
 5189TIP3   OH237125   6.278   4.720   7.287  0.2350  0.5490 -0.1229
 5189TIP3    H137126   6.246   4.653   7.226  2.5914 -2.2461  1.4465
 5189TIP3    H237127   6.332   4.778   7.233  0.2928 -0.4018 -1.1164
 5190TIP3   OH237128   6.579   2.584   1.201 -0.0755 -0.4795 -0.0582
 5190TIP3    H137129   6.547   2.595   1.112 -2.3228 -1.4936  0.5527
 5190TIP3    H237130   6.587   2.489   1.212 -1.4271 -0.4731  1.3043
 5191TIP3   OH237131   3.508   4.521   6.197  0.2150  0.5774  0.1806
 5191TIP3    H137132   3.576   4.505   6.132  0.7627 -0.1649  0.9252
 5191TIP3    H237133   3.444   4.577   6.151  0.7683  0.3777 -0.8663
 5192TIP3   OH237134   5.327   6.251   0.643 -0.4994 -0.2655  0.0775
 5192TIP3    H137135   5.325   6.294   0.728 -1.0665 -0.7641  0.3290
 5192TIP3    H237136   5.236   6.223   0.628 -0.8802  1.6506 -1.6483
 5193TIP3   OH237137   1.938   0.161   7.421 -0.1521 -0.2518 -0.2088
 5193TIP3    H137138   1.958   0.160   7.327  1.6844 -0.4150  0.1402
 5193TIP3    H237139   1.970   0.246   7.452 -2.4475  0.6213 -0.0071
 5194TIP3   OH237140   3.931   4.884   6.651 -0.2407  0.0257 -0.0377
 5194TIP3    H137141   3.909   4.892   6.744 -4.0135  2.5668 -0.9448
 5194TIP3    H237142   3.986   4.961   6.633  0.2938 -0.3405 -0.0157
 5195TIP3   OH237143   3.543   1.938   7.211 -0.1083 -0.1001  0.1404
 5195TIP3    H137144   3.469   1.993   7.185 -0.4700 -0.3626  0.5900
 5195TIP3    H237145   3.563   1.886   7.134 -1.2976 -1.0111  0.4103
 5196TIP3   OH237146   4.591   3.894   7.104  0.4099 -1.0346 -0.0993
 5196TIP3    H137147   4.539   3.940   7.038  0.3496 -2.1145 -0.8336
 5196TIP3    H237148   4.677   3.936   7.102  0.0482 -0.2831 -0.0092
 5197TIP3   OH237149   4.076   6.798   6.632 -0.0162  0.1834 -0.5898
 5197TIP3    H137150   4.099   6.807   6.725 -0.7938  2.3072 -0.5489
 5197TIP3    H237151   4.006   6.733   6.631  1.4519 -1.4950  0.0124
 5198TIP3   OH237152   3.440   3.891   1.292  0.0749 -0.0637  0.0221
 5198TIP3    H137153   3.433   3.825   1.223 -0.8991  0.1486 -0.0847
 5198TIP3    H237154   3.534   3.895   1.311  0.1092 -2.0951  0.6246
 5199TIP3   OH237155   6.426   4.153   1.422  0.1669  0.2140 -0.0284
 5199TIP3    H137156   6.491   4.102   1.472 -0.8540 -1.4989 -0.3425
 5199TIP3    H237157   6.348   4.096   1.421 -1.8380  2.7273  1.5042
 5200TIP3   OH237158   2.563   5.027   7.272  0.2083  0.3839  0.2936
 5200TIP3    H137159   2.644   5.069   7.244 -0.6596  0.7470 -1.8818
 5200TIP3    H237160   2.566   4.939   7.233 -0.1736  0.1772  0.7102
 5201TIP3   OH237161   6.529   4.586   2.162 -0.0536 -0.2998  0.0254
 5201TIP3    H137162   6.525   4.508   2.108  3.5077 -1.0816  0.6552
 5201TIP3    H237163   6.487   4.654   2.109 -0.8209 -2.0037 -1.6738
 5202TIP3   OH237164   1.630   3.717   0.054 -0.4462  0.2532 -0.5894
 5202TIP3    H137165   1.630   3.700   0.148 -0.4778  2.2590 -0.1706
 5202TIP3    H237166   1.539   3.735   0.032 -0.6384 -1.4293 -1.2874
 5203TIP3   OH237167   5.780   4.354   1.479  0.1771 -0.4421  0.1315
 5203TIP3    H137168   5.770   4.384   1.570  0.8635  0.9689 -0.2368
 5203TIP3    H237169   5.703   4.387   1.434  1.1397  1.2736 -0.3700
 5204TIP3   OH237170   1.181   5.308   6.104 -0.2304 -0.0663 -0.0698
 5204TIP3    H137171   1.202   5.384   6.049  0.7893  1.3736  2.1795
 5204TIP3    H237172   1.256   5.250   6.093  1.5161  1.6087  2.0254
 5205TIP3   OH237173   3.043   6.917   1.222 -0.3522  0.0099 -0.6729
 5205TIP3    H137174   3.076   6.961   1.144  1.1233  1.3500  0.6377
 5205TIP3    H237175   3.001   6.986   1.273  0.7482 -0.3451  0.7712
 5206TIP3   OH237176   4.931   1.990   7.713 -0.6020 -0.1139  0.1239
 5206TIP3    H137177   4.865   1.921   7.725  1.4877 -2.3090 -0.1855
 5206TIP3    H237178   4.946   2.024   7.801 -3.1299  1.5395  0.0324
 5207TIP3   OH237179   0.858   1.248   7.959  0.0606  0.4504  0.0364
 5207TIP3    H137180   0.935   1.257   8.015  0.4144 -2.0019  0.0663
 5207TIP3    H237181   0.885   1.185   7.892 -1.7036 -0.0057 -0.2989
 5208TIP3   OH237182   1.036   1.780   2.278  0.3311 -0.5810 -0.6116
 5208TIP3    H137183   0.975   1.803   2.208  2.3911  1.6652 -1.8461
 5208TIP3    H237184   1.088   1.859   2.291  1.9028 -1.8502  1.5010
 5209TIP3   OH237185   6.985   5.997   7.879  0.4588  0.5062 -0.4756
 5209TIP3    H137186   6.958   6.051   7.805  0.2328  0.7352 -0.2285
 5209TIP3    H237187   6.947   6.040   7.955  2.5399  1.5405  0.0481
 5210TIP3   OH237188   3.380   4.803   0.647  0.8037 -0.1329  0.4917
 5210TIP3    H137189   3.444   4.872   0.661  0.5309 -0.2354  2.5619
 5210TIP3    H237190   3.297   4.841   0.676  0.2382 -0.6158 -0.4327
 5211TIP3   OH237191   6.046   6.046   0.880  0.0671 -0.0333 -0.0479
 5211TIP3    H137192   6.119   6.042   0.818 -0.4948 -0.4493 -0.6911
 5211TIP3    H237193   6.006   5.960   0.876  0.1260 -0.1214  1.0364
 5212TIP3   OH237194   5.325   7.092   0.187 -0.6657 -0.4437 -0.0487
 5212TIP3    H137195   5.233   7.118   0.186 -0.9637 -1.3952  0.5158
 5212TIP3    H237196   5.332   7.033   0.263  0.7726  0.8654  0.9029
 5213TIP3   OH237197   6.469   3.807   1.011  0.6738  0.1563  0.4101
 5213TIP3    H137198   6.469   3.728   1.064  0.9863 -0.4822 -0.5068
 5213TIP3    H237199   6.562   3.832   1.004  0.6536  0.1254  0.0090
 5214TIP3   OH237200   6.533   3.017   1.213  0.4068  0.1309  0.2765
 5214TIP3    H137201   6.483   3.013   1.295 -0.1803  1.7819  0.0396
 5214TIP3    H237202   6.624   3.019   1.240  0.2232  0.4667  0.8840
 5215TIP3   OH237203   2.681   2.135   2.647  0.5892 -0.5157 -0.3444
 5215TIP3    H137204   2.691   2.152   2.554 -2.1171  0.3493 -0.5806
 5215TIP3    H237205   2.695   2.220   2.689 -0.8279 -0.2986 -0.2677
 5216TIP3   OH237206   5.068   6.477   0.538  0.0925  0.6046  0.0340
 5216TIP3    H137207   5.036   6.388   0.523  1.1936 -0.1690  1.9184
 5216TIP3    H237208   5.103   6.504   0.453 -0.0632 -0.8421 -0.5263
 5217TIP3   OH237209   6.940   0.595   6.678 -0.0627  0.1693  0.1478
 5217TIP3    H137210   6.947   0.528   6.610 -3.5966  0.4798 -0.7371
 5217TIP3    H237211   6.914   0.547   6.757 -0.4152  0.2540  0.0855
 5218TIP3   OH237212   5.296   3.784   1.372  0.3872  0.2381 -0.6297
 5218TIP3    H137213   5.334   3.754   1.455  0.5012 -2.3515 -1.5554
 5218TIP3    H237214   5.358   3.850   1.340  0.0798  1.7033  1.5162
 5219TIP3   OH237215   3.248   0.272   6.996  0.0246 -0.4091  0.3085
 5219TIP3    H137216   3.279   0.202   6.939  1.3905  1.3595 -1.2622
 5219TIP3    H237217   3.197   0.227   7.064  0.4756 -2.8426 -0.8459
 5220TIP3   OH237218   6.230   3.018   1.504 -0.5861 -0.4865 -0.5420
 5220TIP3    H137219   6.182   3.079   1.560 -0.4813 -0.7459 -0.1646
 5220TIP3    H237220   6.179   2.938   1.507 -0.7288 -0.4199 -1.0453
 5221TIP3   OH237221   6.502   4.225   7.796 -0.4527 -0.1143 -0.6416
 5221TIP3    H137222   6.503   4.171   7.717 -1.5248  1.2411 -1.6407
 5221TIP3    H237223   6.464   4.169   7.864 -0.1452 -1.0808 -1.2483
 5222TIP3   OH237224   0.862   4.135   7.774 -0.0385 -0.0696  0.0995
 5222TIP3    H137225   0.867   4.039   7.780  0.2966  0.0337  1.7379
 5222TIP3    H237226   0.951   4.162   7.752  0.0583 -0.0834  0.4718
 5223TIP3   OH237227   6.785   5.080   0.853  0.1672  0.3599  0.8618
 5223TIP3    H137228   6.801   5.172   0.872 -0.9113  0.9288 -0.7485
 5223TIP3    H237229   6.864   5.051   0.808 -1.2636  1.9550 -3.1367
 5224TIP3   OH237230   4.691   3.586   0.281  0.1863  0.1090  0.2065
 5224TIP3    H137231   4.749   3.655   0.315 -0.5169  1.3109 -0.9241
 5224TIP3    H237232   4.618   3.585   0.342  0.5615 -0.1832  0.6582
 5225TIP3   OH237233   5.924   1.332   7.532 -0.5733  0.1176  0.5558
 5225TIP3    H137234   5.995   1.386   7.568  0.8906 -0.7321 -0.9159
 5225TIP3    H237235   5.879   1.390   7.470  0.9487 -0.2487 -0.9716
 5226TIP3   OH237236   0.963   2.982   5.783 -0.8669  0.3253  0.3199
 5226TIP3    H137237   0.959   2.962   5.876  0.1032 -0.9086  0.1335
 5226TIP3    H237238   1.014   2.910   5.746 -1.5994  0.5718 -1.2330
 5227TIP3   OH237239   6.045   4.972   7.410 -0.0655 -0.4717  0.2913
 5227TIP3    H137240   5.987   5.040   7.445  0.3025 -1.1194  2.2636
 5227TIP3    H237241   6.133   5.010   7.416 -0.1159  0.0134 -1.4898
 5228TIP3   OH237242   2.209   4.181   6.778  0.1841 -0.6888  0.0201
 5228TIP3    H137243   2.186   4.131   6.856  0.5045 -0.8793 -0.0041
 5228TIP3    H237244   2.267   4.123   6.728  0.9315 -0.1371  0.2161
 5229TIP3   OH237245   1.435   4.188   0.317 -0.3237  0.1447 -0.4765
 5229TIP3    H137246   1.454   4.095   0.324 -0.9203  0.0747  0.3257
 5229TIP3    H237247   1.461   4.212   0.228  0.9374 -0.5250 -0.3019
 5230TIP3   OH237248   6.570   2.946   0.871 -0.0562  0.3249 -0.4137
 5230TIP3    H137249   6.611   3.023   0.911  0.5316 -0.1720 -0.0620
 5230TIP3    H237250   6.477   2.955   0.892  0.0972  0.6239  0.1476
 5231TIP3   OH237251   3.557   1.889   1.777  0.6486 -0.0642  0.1725
 5231TIP3    H137252   3.487   1.952   1.761  0.7981 -0.0384 -0.4118
 5231TIP3    H237253   3.636   1.943   1.785  0.5477 -0.0583  1.2524
 5232TIP3   OH237254   2.004   1.148   0.540  0.0953 -0.4239  0.3847
 5232TIP3    H137255   1.987   1.069   0.592  1.3154 -1.7650 -1.1554
 5232TIP3    H237256   2.052   1.116   0.463 -1.9307  1.4245 -1.7752
 5233TIP3   OH237257   2.757   0.458   1.293 -0.2712  0.2295 -0.4973
 5233TIP3    H137258   2.697   0.475   1.365  1.3398 -0.0323  0.9708
 5233TIP3    H237259   2.703   0.416   1.226 -1.7252  0.0370  0.7427
 5234TIP3   OH237260   4.682   1.188   1.403  0.1055 -0.0425 -0.9287
 5234TIP3    H137261   4.622   1.163   1.473  0.1963  1.9261 -0.0800
 5234TIP3    H237262   4.744   1.115   1.397  0.6584  0.0996  1.7212
 5235TIP3   OH237263   5.749   3.344   0.972  0.2806  0.0852  0.1811
 5235TIP3    H137264   5.798   3.291   1.035  0.0568  1.6080  1.6858
 5235TIP3    H237265   5.684   3.283   0.936  0.8081 -0.9724  0.9485
 5236TIP3   OH237266   2.215   4.494   1.359 -0.4683 -0.2230 -0.0114
 5236TIP3    H137267   2.204   4.485   1.454  0.2943  1.4038  0.2744
 5236TIP3    H237268   2.128   4.515   1.327 -0.6441 -0.3013  0.4068
 5237TIP3   OH237269   2.027   0.685   7.169  0.8446  0.1570  0.1916
 5237TIP3    H137270   2.107   0.737   7.170  1.0223  0.0810 -2.5575
 5237TIP3    H237271   1.956   0.749   7.159  0.7423  0.0730  0.3559
 5238TIP3   OH237272   4.119   6.531   1.181  0.2953 -0.0514  0.5276
 5238TIP3    H137273   4.038   6.497   1.144  0.7487 -2.7607  1.7783
 5238TIP3    H237274   4.095   6.568   1.265  0.4447 -2.1590  1.5707
 5239TIP3   OH237275   5.516   2.705   7.947  0.4905 -0.2848  0.3941
 5239TIP3    H137276   5.502   2.699   8.042 -0.9839  1.0768  0.3019
 5239TIP3    H237277   5.433   2.736   7.912  0.5053 -2.2615 -1.5687
 5240TIP3   OH237278   4.111   3.126   7.993 -0.5393  0.1373  0.5159
 5240TIP3    H137279   4.149   3.202   7.949  0.6914  0.9061  2.7704
 5240TIP3    H237280   4.174   3.056   7.979 -1.9899 -0.8051 -2.1516
 5241TIP3   OH237281   0.613   3.034   5.958  0.2246 -0.3646 -0.5867
 5241TIP3    H137282   0.695   3.001   5.993 -0.0055 -1.4220 -1.0304
 5241TIP3    H237283   0.573   2.959   5.914 -0.6921  0.2907 -0.8999
 5242TIP3   OH237284   4.835   0.307   1.148  0.2733 -0.1236  0.2672
 5242TIP3    H137285   4.860   0.324   1.238 -1.6189  1.9736  0.4776
 5242TIP3    H237286   4.773   0.234   1.153 -0.0234  0.1546  0.7051
 5243TIP3   OH237287   0.636   1.829   6.612 -0.2926 -0.6678 -0.1955
 5243TIP3    H137288   0.569   1.895   6.629  0.7051 -0.1993  2.2071
 5243TIP3    H237289   0.664   1.846   6.522 -2.0818  0.2892 -0.6114
 5244TIP3   OH237290   5.066   0.614   2.006 -0.1864 -0.3681 -0.3454
 5244TIP3    H137291   5.089   0.706   2.021 -0.3916 -0.5529  1.3193
 5244TIP3    H237292   5.019   0.613   1.923  2.0311  0.6464 -1.7157
 5245TIP3   OH237293   2.064   1.454   1.407  0.0249  0.0092 -0.3352
 5245TIP3    H137294   2.037   1.509   1.334 -0.9295  0.8084  0.5778
 5245TIP3    H237295   1.997   1.469   1.474 -0.2115 -2.1846  0.0097
 5246TIP3   OH237296   2.401   6.482   7.591  0.1207  0.1590 -0.4819
 5246TIP3    H137297   2.410   6.387   7.605  1.5736  0.5563  1.6766
 5246TIP3    H237298   2.314   6.502   7.624  0.9333 -0.0275  1.9959
 5247TIP3   OH237299   3.767   0.956   0.092  0.3703 -0.6319 -0.2943
 5247TIP3    H137300   3.698   0.893   0.112  0.2583 -0.9561 -1.6083
 5247TIP3    H237301   3.757   0.974  -0.002  2.8146 -1.6390 -0.8352
 5248TIP3   OH237302   4.592   0.241   6.928 -0.2815 -0.8586 -0.3247
 5248TIP3    H137303   4.548   0.325   6.919 -1.4319 -1.4592 -0.5903
 5248TIP3    H237304   4.667   0.246   6.870  1.0860  0.8554  1.4597
 5249TIP3   OH237305   4.921   4.252   6.594 -0.4153 -0.0602 -0.0841
 5249TIP3    H137306   4.827   4.263   6.580 -0.6530 -0.7423  0.8320
 5249TIP3    H237307   4.957   4.340   6.587 -1.2512  0.3381  0.3668
 5250TIP3   OH237308   2.547   3.310   0.357  0.4923  0.1312  0.1203
 5250TIP3    H137309   2.571   3.218   0.349 -0.8336 -0.2370  0.0325
 5250TIP3    H237310   2.462   3.308   0.402  0.5745  1.3266  0.3589
 5251TIP3   OH237311   4.642   3.218   1.977  0.1119  0.4268  0.1098
 5251TIP3    H137312   4.551   3.242   1.995  0.0328  0.2989 -0.1189
 5251TIP3    H237313   4.645   3.204   1.882  0.5118  1.0223  0.0349
 5252TIP3   OH237314   0.082   4.308   7.608 -0.0164 -0.0032  0.5731
 5252TIP3    H137315  -0.013   4.319   7.606 -0.0584 -0.4846 -0.2651
 5252TIP3    H237316   0.117   4.388   7.570 -0.1566 -0.5664 -0.7899
 5253TIP3   OH237317   5.627   3.209   0.333  0.3370 -0.6932  0.4309
 5253TIP3    H137318   5.709   3.235   0.376  0.2547 -2.3759  1.7754
 5253TIP3    H237319   5.560   3.263   0.375  0.3659 -1.7479  1.9524
 5254TIP3   OH237320   0.585   2.303   0.469  0.3594 -0.4530 -0.2571
 5254TIP3    H137321   0.555   2.306   0.378  0.2777  1.3610 -0.1994
 5254TIP3    H237322   0.524   2.359   0.516  2.5886  1.7052  0.2326
 5255TIP3   OH237323   3.161   1.027   1.121  0.2558 -0.3800  0.3413
 5255TIP3    H137324   3.189   0.936   1.134  0.5610 -0.2953  0.2724
 5255TIP3    H237325   3.120   1.027   1.035  1.0006 -0.2793 -0.0239
 5256TIP3   OH237326   0.005   4.316   0.525  0.0557  0.0904 -0.7443
 5256TIP3    H137327  -0.075   4.363   0.500 -0.0477  0.8348  0.8647
 5256TIP3    H237328  -0.004   4.303   0.620  1.4367 -0.6166 -0.6904
 5257TIP3   OH237329   6.204   5.157   5.995  0.2320  0.1290 -0.3916
 5257TIP3    H137330   6.249   5.219   6.052  0.0049 -1.2957  1.4504
 5257TIP3    H237331   6.244   5.170   5.909  3.7667 -0.6021  0.9546
 5258TIP3   OH237332   5.861   1.929   7.732  0.1943 -0.1895 -0.1980
 5258TIP3    H137333   5.871   1.928   7.827  0.0979  1.6971 -0.1304
 5258TIP3    H237334   5.912   1.854   7.701 -1.1342 -1.8456  1.4330
 5259TIP3   OH237335   4.550   1.013   1.138 -0.2010 -0.4155 -0.1519
 5259TIP3    H137336   4.495   1.063   1.199 -0.2214 -0.1164 -0.4105
 5259TIP3    H237337   4.523   1.044   1.051  1.1840  0.6218 -0.2546
 5260TIP3   OH237338   1.539   4.310   1.597  0.1575 -0.3922 -0.4646
 5260TIP3    H137339   1.482   4.383   1.620 -1.1995 -1.8442  1.1149
 5260TIP3    H237340   1.562   4.324   1.506 -1.6674  0.9639 -0.7693
 5261TIP3   OH237341   5.315   4.810   6.388 -0.1678 -0.9156 -0.4950
 5261TIP3    H137342   5.316   4.906   6.387 -0.6226 -0.8903 -2.4346
 5261TIP3    H237343   5.222   4.787   6.388 -0.0673 -1.3886  0.3397
 5262TIP3   OH237344   0.624   4.981   0.881  0.1118  0.1875 -0.2921
 5262TIP3    H137345   0.658   4.912   0.824  0.1800 -1.0274  1.1682
 5262TIP3    H237346   0.702   5.023   0.916  0.0834 -0.0230  0.0250
 5263TIP3   OH237347   3.235   4.587   7.757 -0.1462 -0.5545  0.0760
 5263TIP3    H137348   3.274   4.652   7.816 -0.2941 -1.3477  1.0729
 5263TIP3    H237349   3.146   4.575   7.790 -0.6753 -0.0541 -1.1198
 5264TIP3   OH237350   0.075   7.104   0.256 -0.0447  0.0702  0.2895
 5264TIP3    H137351   0.059   7.049   0.179 -0.4341  0.1020  0.3460
 5264TIP3    H237352   0.019   7.180   0.244  1.3645  1.0358 -0.3661
 5265TIP3   OH237353   1.783   0.241   1.241 -0.2354  0.1272 -0.2887
 5265TIP3    H137354   1.811   0.259   1.151  1.1196  1.5550  0.3750
 5265TIP3    H237355   1.851   0.280   1.295 -1.6307  0.3395  1.3808
 5266TIP3   OH237356   5.421   6.433   0.459  0.2489 -0.0876 -0.2095
 5266TIP3    H137357   5.376   6.375   0.520  1.0562  0.5916  1.0918
 5266TIP3    H237358   5.506   6.391   0.444 -0.1901 -0.5833 -1.4239
 5267TIP3   OH237359   4.161   1.233   6.877  0.4998  0.1037  0.6773
 5267TIP3    H137360   4.080   1.247   6.926 -0.3098 -0.7504 -0.3617
 5267TIP3    H237361   4.148   1.280   6.795  0.7663 -0.5990  0.2213
 5268TIP3   OH237362   2.082   3.507   7.742  0.1215 -0.2024 -0.6065
 5268TIP3    H137363   2.091   3.520   7.837  1.1345 -0.8916 -0.5827
 5268TIP3    H237364   2.008   3.448   7.733 -0.3063  0.2799 -0.2767
 5269TIP3   OH237365   5.993   2.179   6.849 -0.3408 -0.1801 -0.9998
 5269TIP3    H137366   5.960   2.111   6.791  0.6185 -2.1363  0.5998
 5269TIP3    H237367   5.952   2.160   6.934 -0.5951  1.6927 -0.6549
 5270TIP3   OH237368   0.444   4.000   0.446 -0.2395  0.4955 -0.0084
 5270TIP3    H137369   0.389   4.056   0.502  1.0201  0.7072  1.0866
 5270TIP3    H237370   0.455   3.919   0.496 -0.9050 -0.2082 -0.9676
 5271TIP3   OH237371   2.159   3.692   5.813 -0.0797  0.5846 -0.0998
 5271TIP3    H137372   2.181   3.770   5.864  1.7095 -0.2242  0.4417
 5271TIP3    H237373   2.221   3.625   5.843  0.4299 -0.1995 -2.6887
 5272TIP3   OH237374   2.920   0.894   7.574  0.2141 -0.0306  0.2165
 5272TIP3    H137375   2.996   0.942   7.540  0.5585 -0.1394  0.8270
 5272TIP3    H237376   2.847   0.925   7.520  0.8223 -0.5745 -0.9621
 5273TIP3   OH237377   0.204   1.357   0.531  0.3265  0.3361 -0.2147
 5273TIP3    H137378   0.195   1.366   0.437  1.9271  2.3366 -0.2519
 5273TIP3    H237379   0.171   1.440   0.566  0.1133 -0.2215  0.9421
 5274TIP3   OH237380   6.055   6.723   7.509  0.2462  0.9712 -0.5721
 5274TIP3    H137381   6.121   6.655   7.503  0.2760  0.9111  0.3807
 5274TIP3    H237382   5.978   6.679   7.544 -0.3112  1.0409 -1.6652
 5275TIP3   OH237383   2.408   0.478   5.985 -0.0132  0.3079  0.2871
 5275TIP3    H137384   2.457   0.484   5.903 -0.0125 -0.5817  0.2076
 5275TIP3    H237385   2.389   0.384   5.994 -2.6373  0.7232 -0.2392
 5276TIP3   OH237386   4.468   3.568   1.471  0.4529  0.5267 -0.6239
 5276TIP3    H137387   4.411   3.642   1.493  0.0495  0.0015  0.1202
 5276TIP3    H237388   4.504   3.540   1.555 -0.0544 -0.6523 -0.7851
 5277TIP3   OH237389   1.526   4.772   5.814 -0.0665 -0.2498 -0.2762
 5277TIP3    H137390   1.444   4.813   5.785 -1.2107 -2.2253  0.0040
 5277TIP3    H237391   1.502   4.723   5.892  1.5067 -0.5221  0.0691
 5278TIP3   OH237392   7.043   5.634   5.827  0.3891  0.2799 -0.6736
 5278TIP3    H137393   6.975   5.672   5.883 -0.0460  2.3744 -2.5022
 5278TIP3    H237394   7.106   5.705   5.814  5.0604 -2.3810  3.7217
 5279TIP3   OH237395   6.345   4.358   1.574 -0.7390  0.0895 -0.0264
 5279TIP3    H137396   6.371   4.278   1.529  0.3290 -0.3709  1.3518
 5279TIP3    H237397   6.398   4.360   1.654 -0.3446  2.4253 -0.2582
 5280TIP3   OH237398   6.314   4.014   1.096 -0.4767  0.3310  0.3824
 5280TIP3    H137399   6.369   3.948   1.053 -0.4655  1.1284 -0.8595
 5280TIP3    H237400   6.350   4.020   1.185  0.8500  0.1338 -0.1103
 5281TIP3   OH237401   2.220   2.820   2.033 -0.0392 -0.0130  0.2337
 5281TIP3    H137402   2.129   2.791   2.040  0.1881 -0.6373  0.5910
 5281TIP3    H237403   2.260   2.797   2.116  0.7431 -0.7759 -0.3427
 5282TIP3   OH237404   4.283   3.731   6.260 -0.2621 -0.1155 -0.1695
 5282TIP3    H137405   4.369   3.746   6.298 -0.4473  0.2534  0.1086
 5282TIP3    H237406   4.297   3.660   6.196  0.6737  1.3094 -1.6276
 5283TIP3   OH237407   6.176   4.404   0.393  0.2398  0.4369 -0.2579
 5283TIP3    H137408   6.091   4.364   0.373  0.0639  2.0069 -3.0645
 5283TIP3    H237409   6.162   4.449   0.477 -0.7585 -1.7311  0.8301
 5284TIP3   OH237410   3.366   6.709   6.615 -0.7489 -0.2778  0.2799
 5284TIP3    H137411   3.419   6.687   6.692 -1.0969 -0.9079  0.3482
 5284TIP3    H237412   3.369   6.804   6.611 -0.0242 -0.2786  0.5743
 5285TIP3   OH237413   6.953   4.510   0.523 -0.2601  0.3582  0.3538
 5285TIP3    H137414   6.938   4.556   0.606  3.3592 -1.8481  2.5374
 5285TIP3    H237415   6.996   4.575   0.468 -1.8176  1.5935  0.5426
 5286TIP3   OH237416   5.137   0.371   0.012 -0.2177 -0.6930 -0.0872
 5286TIP3    H137417   5.063   0.357  -0.048 -0.1731  3.0456 -1.2760
 5286TIP3    H237418   5.103   0.344   0.097 -3.5047  1.8110 -0.3900
 5287TIP3   OH237419   3.517   4.924   6.770  0.1212  0.1153  0.3095
 5287TIP3    H137420   3.474   5.005   6.798 -1.3265 -0.2166 -0.8376
 5287TIP3    H237421   3.541   4.881   6.852  0.1467  1.2973  0.9477
 5288TIP3   OH237422   0.566   2.491   6.554  0.4605  0.2018 -0.0182
 5288TIP3    H137423   0.594   2.408   6.592 -0.2848  0.0775  0.2781
 5288TIP3    H237424   0.613   2.558   6.604  1.4552 -0.0463 -0.5954
 5289TIP3   OH237425   3.731   3.260   0.495  0.1699  0.2437  0.3687
 5289TIP3    H137426   3.769   3.299   0.575  0.1781  0.5481  0.2198
 5289TIP3    H237427   3.637   3.278   0.502  0.0153 -0.6976  0.8408
 5290TIP3   OH237428   2.647   4.986   6.935  0.1101  0.4051  0.9954
 5290TIP3    H137429   2.735   4.999   6.899 -1.2118  0.0472 -2.8891
 5290TIP3    H237430   2.648   4.895   6.966  1.1995  0.4977  1.2860
 5291TIP3   OH237431   5.780   1.269   0.585 -0.4852  0.2025 -0.9232
 5291TIP3    H137432   5.724   1.192   0.579  0.6910 -0.6721 -1.1808
 5291TIP3    H237433   5.867   1.237   0.559  0.0626  1.5782 -0.8616
 5292TIP3   OH237434   4.131   0.897   6.629  0.5123 -0.2288  0.2925
 5292TIP3    H137435   4.126   0.932   6.718 -1.9047 -2.6634  1.2833
 5292TIP3    H237436   4.192   0.823   6.635 -0.0921 -0.7571  0.1116
 5293TIP3   OH237437   0.538   3.513   1.017 -0.0170 -0.2098 -0.5637
 5293TIP3    H137438   0.509   3.425   1.040 -0.1459 -0.0473 -0.0991
 5293TIP3    H237439   0.544   3.512   0.921 -0.0857 -0.6996 -0.5643
 5294TIP3   OH237440   6.596   6.635   1.613 -0.0725 -0.4719  0.4360
 5294TIP3    H137441   6.529   6.584   1.658 -2.2067  0.9375 -0.9581
 5294TIP3    H237442   6.588   6.610   1.521  0.4308  0.6672  0.0588
 5295TIP3   OH237443   6.581   2.297   7.203 -0.1410 -0.1790  0.4463
 5295TIP3    H137444   6.535   2.296   7.119 -0.2584 -0.1462  0.5101
 5295TIP3    H237445   6.547   2.374   7.248 -1.0630 -0.9342  1.0710
 5296TIP3   OH237446   0.047   6.948   0.491 -0.2314 -0.4467 -0.6489
 5296TIP3    H137447   0.125   6.894   0.477  0.1032 -0.4450  1.0178
 5296TIP3    H237448   0.054   7.018   0.426  1.6498  0.0682  0.0381
 5297TIP3   OH237449   7.102   0.234   0.820 -0.0578 -0.6480 -0.2052
 5297TIP3    H137450   7.041   0.252   0.749 -0.3083  0.6033  0.3049
 5297TIP3    H237451   7.060   0.270   0.898  1.3599  0.3857  0.1325
 5298TIP3   OH237452   3.454   2.666   1.440 -0.0185  0.2172 -0.7935
 5298TIP3    H137453   3.432   2.759   1.435 -0.8812  0.0504 -0.3142
 5298TIP3    H237454   3.418   2.628   1.360  1.7379  0.5442 -1.7900
 5299TIP3   OH237455   1.999   6.858   0.980  0.8160  0.6835  0.2254
 5299TIP3    H137456   1.962   6.890   1.062 -1.8522 -0.4746 -0.4221
 5299TIP3    H237457   1.950   6.904   0.912 -0.4635 -1.8577 -0.6955
 5300TIP3   OH237458   5.545   0.610   7.412 -0.2162  0.0710  0.6034
 5300TIP3    H137459   5.544   0.515   7.425 -0.4306 -0.2904 -1.6709
 5300TIP3    H237460   5.623   0.626   7.358 -0.1784  1.1941  0.9706
 5301TIP3   OH237461   4.059   5.904   7.367  0.2515 -0.1103 -0.1908
 5301TIP3    H137462   4.109   5.984   7.351  0.2613  0.0979  0.8046
 5301TIP3    H237463   4.121   5.833   7.347  0.9944  0.1423  1.1016
 5302TIP3   OH237464   1.036   4.077   5.745 -0.1760  0.4125  0.1666
 5302TIP3    H137465   1.024   4.165   5.709  2.2592  1.4434  1.6478
 5302TIP3    H237466   1.105   4.087   5.811  1.6198 -2.9774 -0.9733
 5303TIP3   OH237467   3.600   3.978   7.957  0.4869  0.3624 -0.3142
 5303TIP3    H137468   3.646   4.006   8.037 -0.7325  1.4224  0.0402
 5303TIP3    H237469   3.526   4.037   7.950  0.4893  0.1805 -2.1832
 5304TIP3   OH237470   2.976   1.021   7.195 -0.0032 -0.0437  0.2675
 5304TIP3    H137471   2.906   0.958   7.179 -1.2819  1.6505 -1.2167
 5304TIP3    H237472   2.937   1.106   7.177  1.6800  1.2276  2.0729
 5305TIP3   OH237473   4.983   3.556   6.036 -0.3695  0.0710 -0.1235
 5305TIP3    H137474   4.955   3.545   5.945 -1.2409 -1.0376  0.2474
 5305TIP3    H237475   5.074   3.525   6.037 -0.4743 -0.2714 -0.5561
 5306TIP3   OH237476   4.877   5.361   7.903 -0.1556  0.0638  0.5505
 5306TIP3    H137477   4.818   5.341   7.831  1.6868  0.4762 -1.1526
 5306TIP3    H237478   4.937   5.287   7.907  1.6083  1.3806 -0.3779
 5307TIP3   OH237479   4.778   6.728   1.794 -0.2509 -0.1767  0.0068
 5307TIP3    H137480   4.782   6.683   1.879  1.9925 -0.2540 -0.0784
 5307TIP3    H237481   4.868   6.758   1.779 -0.7770  0.5310 -1.9905
 5308TIP3   OH237482   2.656   6.162   1.598  1.0937  0.1344 -0.1321
 5308TIP3    H137483   2.577   6.192   1.552  1.0696 -0.1273 -0.2622
 5308TIP3    H237484   2.727   6.177   1.536  0.8393 -1.8731 -0.9683
 5309TIP3   OH237485   0.106   0.586   6.162  0.4008 -0.2445  1.0396
 5309TIP3    H137486   0.147   0.589   6.075  1.0132  0.4121  1.3381
 5309TIP3    H237487   0.014   0.604   6.146  0.2452 -1.5566  0.3732
 5310TIP3   OH237488   0.586   1.399   7.955  0.2444  0.1095  0.2491
 5310TIP3    H137489   0.630   1.445   7.883 -2.4375  0.2079 -1.4883
 5310TIP3    H237490   0.607   1.307   7.941  0.4151  0.2092 -0.1909
 5311TIP3   OH237491   0.640   6.992   1.336  0.1554  0.3215 -0.2115
 5311TIP3    H137492   0.710   6.990   1.271  0.5417  1.2595  0.1639
 5311TIP3    H237493   0.584   6.918   1.312 -0.3705  1.3250 -2.3612
 5312TIP3   OH237494   6.043   2.839   1.715  0.2203  0.4418 -0.3447
 5312TIP3    H137495   5.981   2.775   1.749  0.2826 -0.3274 -1.6120
 5312TIP3    H237496   6.043   2.825   1.620 -0.3644  2.8601 -0.7719
 5313TIP3   OH237497   2.653   6.391   5.905 -0.5377  0.2358  0.2690
 5313TIP3    H137498   2.640   6.483   5.879 -1.9798 -0.2578 -0.8875
 5313TIP3    H237499   2.619   6.341   5.831 -0.1056 -1.2461  1.0517
 5314TIP3   OH237500   6.756   5.344   6.091 -0.2251 -0.6064  0.0653
 5314TIP3    H137501   6.800   5.338   6.006 -1.0443 -2.3702 -0.2700
 5314TIP3    H237502   6.819   5.388   6.147  0.2746  0.7547 -1.4728
 5315TIP3   OH237503   6.138   2.393   7.829  0.0825 -0.3812  0.2798
 5315TIP3    H137504   6.055   2.363   7.865 -0.0219  1.2427  1.4773
 5315TIP3    H237505   6.115   2.443   7.751  0.2032 -2.5321 -1.2276
 5316TIP3   OH237506   3.142   6.014   6.663  0.1238  0.2236  0.0968
 5316TIP3    H137507   3.101   5.943   6.713  0.4169  0.1919  0.2964
 5316TIP3    H237508   3.119   5.995   6.572 -1.9275  1.2620  0.3497
 5317TIP3   OH237509   0.620   1.504   1.701  0.1268 -0.1938 -0.1344
 5317TIP3    H137510   0.642   1.593   1.729  0.0446 -0.6776  1.5846
 5317TIP3    H237511   0.704   1.457   1.703 -0.0848 -0.5537  0.5736
 5318TIP3   OH237512   2.824   1.616   7.169 -0.3839  0.0583  0.5016
 5318TIP3    H137513   2.821   1.635   7.076  1.1115 -0.0248  0.4016
 5318TIP3    H237514   2.806   1.523   7.176  0.1815 -0.0804  0.2088
 5319TIP3   OH237515   1.643   1.507   0.724  0.0464  0.4906 -0.0171
 5319TIP3    H137516   1.555   1.469   0.716  0.2075 -0.8764  2.9723
 5319TIP3    H237517   1.700   1.443   0.682 -0.2352  0.5203 -0.4501
 5320TIP3   OH237518   1.180   4.658   7.689  0.0947 -0.2835 -0.4111
 5320TIP3    H137519   1.096   4.618   7.664  0.7487 -0.5386 -2.3951
 5320TIP3    H237520   1.169   4.681   7.781 -1.4701 -2.0737 -0.0790
 5321TIP3   OH237521   5.124   3.770   7.279  0.0951  0.3021 -0.2856
 5321TIP3    H137522   5.175   3.693   7.304  0.7978  0.6352 -0.6503
 5321TIP3    H237523   5.162   3.841   7.330 -1.2383  0.2395  0.8425
 5322TIP3   OH237524   4.994   1.635   7.861 -0.3472 -0.4089  0.5288
 5322TIP3    H137525   4.917   1.657   7.913 -0.2990 -2.1815  1.4320
 5322TIP3    H237526   5.044   1.717   7.857 -1.9688  0.6147  0.4262
 5323TIP3   OH237527   2.650   4.496   7.409 -0.0216  0.2231  0.6919
 5323TIP3    H137528   2.701   4.544   7.344  0.3793  0.0634  0.8806
 5323TIP3    H237529   2.592   4.440   7.357  0.2633  0.1293  0.4686
 5324TIP3   OH237530   2.524   5.267   7.523  0.1262  0.9363  0.1386
 5324TIP3    H137531   2.527   5.215   7.443  1.0488  1.0116  0.1070
 5324TIP3    H237532   2.605   5.319   7.521  0.4660  0.4965  1.4058
 5325TIP3   OH237533   3.880   0.373   7.881  0.3320 -0.2121 -0.6951
 5325TIP3    H137534   3.965   0.331   7.875 -0.5982 -2.2510 -0.3813
 5325TIP3    H237535   3.821   0.317   7.830 -1.2927 -0.2715  1.1294
 5326TIP3   OH237536   2.340   4.770   6.520 -0.3548 -0.1014 -0.6028
 5326TIP3    H137537   2.422   4.789   6.474 -0.4790  0.4040 -0.6204
 5326TIP3    H237538   2.295   4.706   6.465  1.3540 -2.7315  0.8331
 5327TIP3   OH237539   0.560   0.195   7.400 -0.0271 -0.2770  0.0858
 5327TIP3    H137540   0.570   0.232   7.488 -0.0912 -1.2417  0.5148
 5327TIP3    H237541   0.467   0.203   7.380 -0.2605 -1.2713  0.6831
 5328TIP3   OH237542   6.143   3.605   6.967 -0.2210 -0.1997 -0.2662
 5328TIP3    H137543   6.098   3.523   6.986 -0.1230 -0.4399 -1.0357
 5328TIP3    H237544   6.097   3.640   6.891 -0.0139  0.2658 -0.1822
 5329TIP3   OH237545   2.779   5.467   6.060 -1.3145 -0.3118 -0.2129
 5329TIP3    H137546   2.855   5.412   6.081  0.9281  1.6221 -2.6739
 5329TIP3    H237547   2.747   5.497   6.146  3.5313  2.3285  1.0568
 5330TIP3   OH237548   5.997   3.910   0.927 -0.1275  0.3658  0.5143
 5330TIP3    H137549   6.074   3.856   0.949 -1.3925 -1.4586  0.6707
 5330TIP3    H237550   6.031   3.975   0.866  1.9061  0.7264  1.9063
 5331TIP3   OH237551   2.434   3.502   1.208  0.2693  0.0212  0.6577
 5331TIP3    H137552   2.524   3.474   1.222  0.0813 -0.5377  0.7922
 5331TIP3    H237553   2.420   3.572   1.271  0.6192  0.1273  0.6168
 5332TIP3   OH237554   0.294   2.079   1.545  0.4727 -0.1698  0.0820
 5332TIP3    H137555   0.260   2.132   1.473  0.3284  1.3088  1.1850
 5332TIP3    H237556   0.327   2.143   1.608  3.9718 -1.4392 -0.2107
 5333TIP3   OH237557   0.705   6.702   7.040 -0.2097  1.1032  0.3394
 5333TIP3    H137558   0.792   6.694   7.000 -0.8406  1.5401 -1.1864
 5333TIP3    H237559   0.658   6.624   7.011 -1.1805  2.1904 -1.1309
 5334TIP3   OH237560   4.130   1.077   7.972  0.6960 -0.1992  0.2301
 5334TIP3    H137561   4.186   1.021   7.918 -0.3022 -0.4774 -0.5377
 5334TIP3    H237562   4.088   1.016   8.033  0.3087 -0.1694 -0.0018
 5335TIP3   OH237563   1.676   2.222   0.515  0.3041  0.0073 -0.4007
 5335TIP3    H137564   1.626   2.207   0.595 -3.1899 -0.7099 -2.4766
 5335TIP3    H237565   1.710   2.135   0.492  0.9346  0.1296  0.0462
 5336TIP3   OH237566   2.284   4.575   2.350 -0.4699 -0.7147 -0.2797
 5336TIP3    H137567   2.346   4.572   2.277  0.4576  1.3826  0.3550
 5336TIP3    H237568   2.334   4.541   2.425 -1.1284 -1.9951 -0.3979
 5337TIP3   OH237569   0.651   0.833   6.838  0.2884  1.0646  0.3187
 5337TIP3    H137570   0.584   0.894   6.867 -0.2249 -0.4372  2.5370
 5337TIP3    H237571   0.604   0.754   6.813  1.0882  0.6255  0.1425
 5338TIP3   OH237572   2.186   1.738   1.765  0.0957 -0.4235 -0.3555
 5338TIP3    H137573   2.171   1.669   1.701 -0.2717 -0.0140 -0.7168
 5338TIP3    H237574   2.184   1.694   1.850 -0.2775 -0.8337 -0.5764
 5339TIP3   OH237575   0.374   5.403   7.100  0.1469  0.1172  0.4463
 5339TIP3    H137576   0.350   5.450   7.020  0.8826 -0.4606 -0.1251
 5339TIP3    H237577   0.307   5.335   7.108 -0.5450  0.8296  0.9224
 5340TIP3   OH237578   2.149   2.574   6.411 -0.6929 -0.5671 -0.2777
 5340TIP3    H137579   2.183   2.531   6.332 -0.7151 -1.2625  0.0834
 5340TIP3    H237580   2.055   2.583   6.394 -1.1259 -2.7579  0.5446
 5341TIP3   OH237581   0.442   0.544   7.963  0.0097  0.0224 -0.1046
 5341TIP3    H137582   0.529   0.575   7.986 -0.1880 -0.1553  0.9338
 5341TIP3    H237583   0.382   0.603   8.010 -0.4095 -0.5047  0.0284
 5342TIP3   OH237584   5.773   3.153   6.180 -0.2459  0.3578 -0.6422
 5342TIP3    H137585   5.746   3.088   6.246 -0.5291  0.8192 -0.3029
 5342TIP3    H237586   5.774   3.104   6.098  0.2925 -0.2737 -0.2690
 5343TIP3   OH237587   1.013   4.581   7.915 -0.5757 -0.2988  0.2192
 5343TIP3    H137588   0.991   4.488   7.917 -1.1732 -0.1619  0.4395
 5343TIP3    H237589   0.929   4.625   7.929 -0.0900  0.2473  1.5520
 5344TIP3   OH237590   6.064   0.530   7.867 -0.3652  0.2634 -0.3351
 5344TIP3    H137591   6.096   0.507   7.955 -1.7377  0.0072  0.1222
 5344TIP3    H237592   5.971   0.548   7.880 -0.2510  1.8052 -1.4737
 5345TIP3   OH237593   5.676   1.627   7.162  0.4218 -0.0104  0.3768
 5345TIP3    H137594   5.594   1.605   7.116  0.5896  0.4183 -0.1410
 5345TIP3    H237595   5.722   1.543   7.168 -1.0329 -0.7431  2.7357
 5346TIP3   OH237596   6.940   3.670   1.790 -1.0527 -0.1683 -0.3145
 5346TIP3    H137597   6.920   3.659   1.883 -1.7371  1.3569 -0.2511
 5346TIP3    H237598   7.026   3.712   1.788 -0.5898 -1.1045 -0.4102
 5347TIP3   OH237599   6.230   7.124   7.984 -0.4688  0.5622 -0.1112
 5347TIP3    H137600   6.220   7.033   7.958  0.2426  0.7453 -1.0953
 5347TIP3    H237601   6.143   7.162   7.972 -0.5298  0.2500 -0.6993
 5348TIP3   OH237602   5.296   5.422   0.908  0.5136  0.0540  0.4220
 5348TIP3    H137603   5.312   5.489   0.841  0.1570 -1.4595 -1.2431
 5348TIP3    H237604   5.346   5.453   0.984  1.7787  1.3294 -0.8532
 5349TIP3   OH237605   4.821   1.586   1.391 -0.2029  0.3348 -0.8160
 5349TIP3    H137606   4.785   1.641   1.321  2.1084  1.9031 -0.9008
 5349TIP3    H237607   4.751   1.580   1.456 -1.4032  1.2679 -1.9703
 5350TIP3   OH237608   5.369   6.426   1.092  0.2678 -0.4305  0.2994
 5350TIP3    H137609   5.310   6.396   1.161  0.9079 -0.6141  0.7831
 5350TIP3    H237610   5.441   6.468   1.139  1.2793 -1.5526 -0.1881
 5351TIP3   OH237611   1.602   5.230   0.042  0.4432 -0.1926 -0.1344
 5351TIP3    H137612   1.690   5.196   0.028  0.1895 -1.3604  0.9490
 5351TIP3    H237613   1.544   5.162   0.009 -0.0958  0.7943 -1.3448
 5352TIP3   OH237614   1.721   2.714   0.155 -0.1959 -0.2068 -0.3104
 5352TIP3    H137615   1.764   2.788   0.197 -0.1331 -1.2388  1.5387
 5352TIP3    H237616   1.791   2.670   0.107  0.4864 -0.8744  1.2369
 5353TIP3   OH237617   2.593   4.995   0.801  0.1862 -0.0870  0.0490
 5353TIP3    H137618   2.599   5.035   0.714 -0.5321 -0.7640 -0.3261
 5353TIP3    H237619   2.504   4.962   0.806  1.0823 -2.7532 -0.1769
 5354TIP3   OH237620   4.073   0.107   7.127 -0.1811  0.1838  0.3537
 5354TIP3    H137621   4.120   0.156   7.194 -0.8836  0.2562  0.7902
 5354TIP3    H237622   4.016   0.047   7.175  1.5834 -2.0409 -0.1302
 5355TIP3   OH237623   2.282   6.608   7.813  0.2462 -0.0198  0.0221
 5355TIP3    H137624   2.261   6.542   7.879  0.9601 -0.6677 -0.3821
 5355TIP3    H237625   2.257   6.691   7.853 -2.1929 -0.6272 -0.0694
 5356TIP3   OH237626   1.732   6.410   6.300 -0.0707  0.0150 -0.5616
 5356TIP3    H137627   1.783   6.414   6.381  1.2429  1.8064 -1.4038
 5356TIP3    H237628   1.660   6.350   6.320 -0.5705  1.3971  2.3724
 5357TIP3   OH237629   4.896   2.454   1.288  0.0757  0.2993 -0.5348
 5357TIP3    H137630   4.956   2.510   1.337 -1.3586  0.8104  0.7455
 5357TIP3    H237631   4.909   2.478   1.196  1.2309  0.9457 -0.2171
 5358TIP3   OH237632   1.784   6.876   7.796  0.2399 -0.0032 -0.4822
 5358TIP3    H137633   1.874   6.907   7.792  0.3173 -0.3112 -1.4285
 5358TIP3    H237634   1.746   6.922   7.871  1.0518  0.4760 -0.3518
 5359TIP3   OH237635   5.635   6.934   7.113 -0.0365 -0.1000 -0.7147
 5359TIP3    H137636   5.644   6.915   7.207  0.1723 -0.4929 -0.8114
 5359TIP3    H237637   5.545   6.964   7.104  0.4906  1.8148 -0.0789
 5360TIP3   OH237638   3.154   4.062   7.746 -0.1336  0.0637  0.2803
 5360TIP3    H137639   3.220   4.015   7.695  0.1358 -1.1834  1.6981
 5360TIP3    H237640   3.204   4.129   7.794 -0.2051  0.4145 -0.1278
 5361TIP3   OH237641   5.720   4.804   6.986  0.2360 -0.3218  0.4035
 5361TIP3    H137642   5.640   4.751   6.981  0.3349 -0.3714 -1.0999
 5361TIP3    H237643   5.778   4.754   7.043 -0.8570 -0.1913  1.6790
 5362TIP3   OH237644   5.970   6.297   6.416  0.0229  0.4194 -0.3336
 5362TIP3    H137645   5.906   6.231   6.389  1.9499 -1.5132 -0.5198
 5362TIP3    H237646   6.028   6.307   6.339  1.0793  0.6001  0.4607
 5363TIP3   OH237647   0.792   5.377   7.267 -0.1384 -0.1984 -0.4237
 5363TIP3    H137648   0.719   5.435   7.245  0.1051  0.5823  0.7258
 5363TIP3    H237649   0.825   5.411   7.350  0.5057 -1.5315 -0.1095
 5364TIP3   OH237650   2.507   4.272   0.138  0.0263 -0.3629  0.1725
 5364TIP3    H137651   2.591   4.233   0.115 -0.2398 -0.6335 -0.3640
 5364TIP3    H237652   2.517   4.365   0.116  0.2061 -0.3813  0.1777
 5365TIP3   OH237653   4.035   0.412   7.580  0.1227  0.3917 -0.4541
 5365TIP3    H137654   4.113   0.373   7.620  1.0119 -0.3323 -2.7632
 5365TIP3    H237655   4.051   0.507   7.585  1.0921  0.2570 -0.7712
 5366TIP3   OH237656   3.069   4.635   0.523  0.0565 -0.1610 -0.1691
 5366TIP3    H137657   2.993   4.581   0.501 -0.8120  0.4091  1.2760
 5366TIP3    H237658   3.078   4.627   0.618  0.1135  1.9065  0.0574
 5367TIP3   OH237659   1.163   2.594   0.867  0.0713 -0.4340  0.7020
 5367TIP3    H137660   1.135   2.503   0.878  1.0255 -0.6760  1.3339
 5367TIP3    H237661   1.093   2.646   0.905 -0.5990 -0.8871  0.1058
 5368TIP3   OH237662   4.169   2.108   7.843 -0.2508  0.4558 -0.0743
 5368TIP3    H137663   4.242   2.158   7.879 -0.4952  0.1441  0.8920
 5368TIP3    H237664   4.151   2.040   7.909  0.0893 -0.9335 -1.3627
 5369TIP3   OH237665   1.424   0.957   7.478 -0.3237 -0.7424 -0.3406
 5369TIP3    H137666   1.365   0.888   7.511 -1.6949  1.1505  1.4441
 5369TIP3    H237667   1.366   1.020   7.436  0.7065  0.0700 -0.5825
 5370TIP3   OH237668   6.959   4.261   6.781  0.1543 -0.8865 -0.2417
 5370TIP3    H137669   7.003   4.243   6.864 -1.2967 -3.6931  0.0207
 5370TIP3    H237670   7.014   4.326   6.738  2.9546 -2.1006  1.2971
 5371TIP3   OH237671   2.286   4.323   0.422 -0.3450 -0.1494 -0.2943
 5371TIP3    H137672   2.294   4.288   0.333 -2.5467 -0.7034 -0.3369
 5371TIP3    H237673   2.317   4.253   0.479  0.3891 -0.0627 -0.5704
 5372TIP3   OH237674   5.908   2.872   1.148  0.6992 -0.2392  0.8166
 5372TIP3    H137675   6.000   2.894   1.132  0.4862  0.3538  0.3489
 5372TIP3    H237676   5.894   2.790   1.102  0.6851  0.3010 -0.1715
 5373TIP3   OH237677   0.005   1.966   6.913 -0.1309 -0.2269  0.3725
 5373TIP3    H137678  -0.036   1.901   6.856 -0.6609  0.1425  0.3213
 5373TIP3    H237679  -0.065   2.028   6.932  0.1209 -0.1863  1.1913
 5374TIP3   OH237680   5.940   5.925   7.378  0.2226  0.3129 -0.9607
 5374TIP3    H137681   5.894   6.002   7.345  0.3727  0.0299 -1.8559
 5374TIP3    H237682   5.911   5.854   7.321  0.4681 -0.2007 -0.4549
 5375TIP3   OH237683   0.739   1.226   6.728 -0.0861  0.2668  0.1096
 5375TIP3    H137684   0.799   1.154   6.714  0.0111  0.3812 -0.0643
 5375TIP3    H237685   0.710   1.251   6.640 -0.0617  0.4872  0.1623
 5376TIP3   OH237686   0.781   4.699   0.402  0.2698 -0.2905 -0.6934
 5376TIP3    H137687   0.859   4.643   0.403 -1.0475 -2.2264 -1.0857
 5376TIP3    H237688   0.753   4.700   0.311 -0.0525  0.5926 -0.6012
 5377TIP3   OH237689   2.750   3.930   1.098 -0.2252  0.3037 -0.3212
 5377TIP3    H137690   2.834   3.913   1.140 -1.1320 -1.8148  0.7836
 5377TIP3    H237691   2.695   3.968   1.166 -0.5225  0.5394 -0.6845
 5378TIP3   OH237692   2.238   3.177   0.301  0.1626  0.0665 -0.0052
 5378TIP3    H137693   2.308   3.142   0.355  1.3502  2.3568  0.0415
 5378TIP3    H237694   2.173   3.209   0.364 -0.1066 -0.4553 -0.0149
 5379TIP3   OH237695   1.068   3.659   6.012  0.7371 -0.6845  0.3043
 5379TIP3    H137696   1.134   3.596   5.983  0.6790 -0.4070 -0.4655
 5379TIP3    H237697   1.006   3.663   5.939  0.2600 -0.4034  0.7208
 5380TIP3   OH237698   1.904   3.190   7.600 -0.0568 -0.3527  0.2645
 5380TIP3    H137699   1.908   3.227   7.512 -0.9282 -0.5650  0.1200
 5380TIP3    H237700   1.916   3.265   7.659  1.0464 -0.2907 -0.0326
 5381TIP3   OH237701   0.049   6.063   1.629 -0.4973  0.1622  0.2101
 5381TIP3    H137702   0.049   5.968   1.641 -0.7468  0.2001  0.5027
 5381TIP3    H237703   0.122   6.079   1.569  0.3700 -0.0927  1.1700
 5382TIP3   OH237704   1.735   2.521   0.839  0.0566  0.1666  0.1876
 5382TIP3    H137705   1.817   2.554   0.800  0.7254 -0.8893  0.6763
 5382TIP3    H237706   1.745   2.426   0.840 -1.7008 -0.0781 -0.8670
 5383TIP3   OH237707   1.944   3.851   1.465  0.0666  0.1210  0.3358
 5383TIP3    H137708   1.977   3.932   1.504 -1.4849  0.5763  0.7951
 5383TIP3    H237709   1.988   3.782   1.514  1.7722  0.6569 -0.3806
 5384TIP3   OH237710   5.493   0.166   6.926 -0.0750  0.2207  0.5139
 5384TIP3    H137711   5.463   0.225   6.857 -0.8428 -0.4622  0.2546
 5384TIP3    H237712   5.583   0.143   6.900 -0.3892 -0.1091 -0.3284
 5385TIP3   OH237713   7.057   1.903   1.131  0.5603  0.1753 -0.5990
 5385TIP3    H137714   7.091   1.815   1.114  0.8564  0.2695 -0.5093
 5385TIP3    H237715   7.079   1.920   1.223 -0.4095 -0.0595 -0.3161
 5386TIP3   OH237716   0.750   2.294   2.153  0.4849 -0.1707  0.0159
 5386TIP3    H137717   0.817   2.225   2.150  2.2638  1.3779 -3.9788
 5386TIP3    H237718   0.667   2.248   2.152  1.5675 -2.2253  0.3805
 5387TIP3   OH237719   4.349   0.387   6.013  0.3235  0.2290  0.2875
 5387TIP3    H137720   4.444   0.377   6.018  0.1236 -2.3550  0.0038
 5387TIP3    H237721   4.331   0.396   5.919  0.1391 -2.0332  0.0484
 5388TIP3   OH237722   5.653   2.527   6.920 -0.8892 -0.1381  0.0251
 5388TIP3    H137723   5.629   2.445   6.877 -0.0473 -0.9179  0.9807
 5388TIP3    H237724   5.689   2.500   7.005 -0.8920  1.2425  0.4882
 5389TIP3   OH237725   2.350   7.027   6.724 -0.3850  0.1871 -0.0960
 5389TIP3    H137726   2.266   7.054   6.687 -0.1064  2.6970  0.9106
 5389TIP3    H237727   2.387   6.968   6.658 -2.5944 -0.4539 -0.8599
 5390TIP3   OH237728   6.620   0.327   6.454 -0.1011 -0.3133  0.5605
 5390TIP3    H137729   6.642   0.284   6.537  1.4131  1.0052  0.8910
 5390TIP3    H237730   6.634   0.420   6.470 -0.8015  0.0838 -0.8896
 5391TIP3   OH237731   6.037   1.079   7.443  0.2984 -0.3453  0.1076
 5391TIP3    H137732   5.976   1.034   7.502  0.6776 -0.8605  0.1093
 5391TIP3    H237733   6.044   1.167   7.480 -2.1846  0.4682 -1.1688
 5392TIP3   OH237734   3.670   1.907   0.092  0.3758 -0.0865  0.0246
 5392TIP3    H137735   3.600   1.971   0.074 -0.9408 -1.2892  0.7283
 5392TIP3    H237736   3.687   1.866   0.007 -2.1121 -2.0412  0.3531
 5393TIP3   OH237737   4.250   5.415   7.136  0.1073 -0.1842 -0.3300
 5393TIP3    H137738   4.276   5.435   7.046  1.7781 -0.3681  0.0714
 5393TIP3    H237739   4.258   5.320   7.143  0.3614 -0.1378  0.1013
 5394TIP3   OH237740   4.327   6.070   0.025  0.2789 -0.1341  0.6276
 5394TIP3    H137741   4.420   6.081   0.009  0.6920 -0.0498  2.8586
 5394TIP3    H237742   4.300   6.002  -0.036  2.0138 -0.8680  0.6330
 5395TIP3   OH237743   0.428   6.488   6.029 -0.1721  0.6733 -0.2497
 5395TIP3    H137744   0.479   6.504   5.949 -1.6351  1.0104 -1.1524
 5395TIP3    H237745   0.381   6.407   6.012  1.5062 -0.7015  1.3595
 5396TIP3   OH237746   0.988   1.145   0.241  0.0927  0.9187  0.0517
 5396TIP3    H137747   0.952   1.210   0.302 -1.9178 -0.0631 -0.0190
 5396TIP3    H237748   0.912   1.100   0.206  1.4384 -2.2617  0.9081
 5397TIP3   OH237749   5.002   1.154   7.922  0.5508  0.0960  0.0165
 5397TIP3    H137750   4.926   1.164   7.979 -0.7799  0.5809 -1.7304
 5397TIP3    H237751   5.039   1.069   7.944 -0.7718 -0.3334  0.6188
 5398TIP3   OH237752   6.265   6.388   1.068 -0.4825  0.0698  0.0831
 5398TIP3    H137753   6.183   6.417   1.030 -0.1611  0.2090 -0.5190
 5398TIP3    H237754   6.241   6.316   1.127 -0.9323 -0.4724 -0.7541
 5399TIP3   OH237755   2.613   0.093   8.019  0.0107  0.1392 -0.2010
 5399TIP3    H137756   2.546   0.157   7.996  0.4749  0.6163 -0.2320
 5399TIP3    H237757   2.672   0.092   7.943 -1.3461 -2.1837 -1.3526
 5400TIP3   OH237758   0.830   5.104   1.012 -0.6760  0.6956  0.0925
 5400TIP3    H137759   0.886   5.179   0.990  0.2338  0.6275  1.9768
 5400TIP3    H237760   0.852   5.084   1.103 -1.4682 -1.3920 -0.1326
 5401TIP3   OH237761   6.534   0.580   7.874  0.3613  0.6707  0.2806
 5401TIP3    H137762   6.623   0.617   7.877  0.0354  1.5414 -0.4121
 5401TIP3    H237763   6.483   0.636   7.933  0.2037  0.3454  0.4577
 5402TIP3   OH237764   6.355   5.801   6.884  0.7401 -0.2480  0.1822
 5402TIP3    H137765   6.400   5.772   6.805  0.6574 -0.3893  0.1870
 5402TIP3    H237766   6.405   5.878   6.913  1.2410 -0.6681  0.4357
 5403TIP3   OH237767   3.357   6.801   0.010 -0.0801  0.5427 -0.8951
 5403TIP3    H137768   3.288   6.858  -0.026 -1.7257  0.3681  1.7142
 5403TIP3    H237769   3.438   6.850  -0.003 -1.2734  2.9349  0.0600
 5404TIP3   OH237770   6.105   4.778   1.388  0.1902 -0.6403  0.0586
 5404TIP3    H137771   6.126   4.686   1.406 -0.3038 -0.8735 -0.5084
 5404TIP3    H237772   6.145   4.827   1.460  1.0091 -1.2374  0.0201
 5405TIP3   OH237773   3.978   6.257   1.300  0.2077 -0.0765  0.0554
 5405TIP3    H137774   4.070   6.278   1.316  0.5451 -0.3256 -1.3860
 5405TIP3    H237775   3.980   6.168   1.264 -0.7181 -0.5593  1.1529
 5406TIP3   OH237776   1.140   5.935   6.544  0.0197 -0.3648  0.4514
 5406TIP3    H137777   1.110   5.908   6.631 -1.6279  2.1723  0.7688
 5406TIP3    H237778   1.070   5.908   6.485  0.3656 -0.6070  0.1502
 5407TIP3   OH237779   2.543   2.782   2.090 -0.4793 -0.3470 -0.6689
 5407TIP3    H137780   2.459   2.754   2.128 -0.5898  1.7986  0.8589
 5407TIP3    H237781   2.609   2.743   2.146 -0.5244 -0.2481 -0.5468
 5408TIP3   OH237782   5.089   0.992   0.904  0.1336 -0.0169  0.3422
 5408TIP3    H137783   5.072   0.993   0.998 -0.5959  0.6488  0.2164
 5408TIP3    H237784   5.063   1.080   0.874  1.3352  0.1380 -0.3158
 5409TIP3   OH237785   6.958   2.581   8.025 -0.0512  0.0257 -1.1693
 5409TIP3    H137786   7.016   2.517   8.066  0.2933  0.1493 -1.4482
 5409TIP3    H237787   6.891   2.599   8.091  0.0589 -0.3454 -0.9534
 5410TIP3   OH237788   5.732   1.812   2.026  0.1599 -0.5305 -0.6197
 5410TIP3    H137789   5.658   1.868   2.048 -1.0577 -1.3123 -2.4460
 5410TIP3    H237790   5.708   1.726   2.062  0.7941 -0.5010 -0.1076
 5411TIP3   OH237791   0.644   3.362   6.864 -0.2125  0.1905 -0.0801
 5411TIP3    H137792   0.592   3.299   6.912  0.3010 -0.0562  0.1536
 5411TIP3    H237793   0.612   3.355   6.773 -0.1091 -0.4471 -0.0684
 5412TIP3   OH237794   5.767   6.655   0.819  0.2389 -0.0633 -0.8113
 5412TIP3    H137795   5.683   6.612   0.802  0.2472 -0.6820  0.5766
 5412TIP3    H237796   5.756   6.695   0.905  1.1414  0.4423 -0.9200
 5413TIP3   OH237797   7.106   3.858   6.442 -0.3926  0.1026 -0.0038
 5413TIP3    H137798   7.192   3.892   6.464 -0.4149  1.0352 -1.2211
 5413TIP3    H237799   7.121   3.805   6.363 -0.7755 -0.6461  0.4080
 5414TIP3   OH237800   6.489   5.898   0.353 -0.2189 -0.2763  0.0579
 5414TIP3    H137801   6.533   5.884   0.437  1.4664  1.4842 -0.4496
 5414TIP3    H237802   6.396   5.898   0.374  0.0309 -2.4608  1.4625
 5415TIP3   OH237803   1.194   4.886   6.178  0.9401  0.2283 -1.2107
 5415TIP3    H137804   1.266   4.949   6.186  0.4369  0.5634  2.3493
 5415TIP3    H237805   1.236   4.801   6.186  1.1136  0.3826 -0.2889
 5416TIP3   OH237806   3.290   0.624   0.282 -0.1198  0.0099  0.2188
 5416TIP3    H137807   3.377   0.605   0.318 -0.8417 -1.1374  1.4648
 5416TIP3    H237808   3.272   0.551   0.222 -0.6281 -0.3305  0.7674
 5417TIP3   OH237809   4.046   5.024   5.970  0.0143 -0.1784 -0.3117
 5417TIP3    H137810   3.996   4.943   5.983  0.6998 -0.4929  0.4272
 5417TIP3    H237811   4.037   5.072   6.053  0.3826  0.0687 -0.4108
 5418TIP3   OH237812   2.855   3.262   6.418 -0.7896  0.0534 -0.1457
 5418TIP3    H137813   2.788   3.323   6.447 -1.2489  0.1692 -1.4119
 5418TIP3    H237814   2.819   3.175   6.437 -1.0860  0.1273 -0.3731
 5419TIP3   OH237815   2.150   4.204   7.892 -0.4426  0.7737  0.3196
 5419TIP3    H137816   2.230   4.201   7.943 -0.2479 -3.5920  0.1567
 5419TIP3    H237817   2.174   4.250   7.811  1.4482  0.8618  0.9004
 5420TIP3   OH237818   1.817   6.502   5.929 -0.0038  0.4573  0.3459
 5420TIP3    H137819   1.721   6.493   5.934 -0.1362  1.6846  0.1846
 5420TIP3    H237820   1.831   6.564   5.857  0.9150  0.4313  0.4985
 5421TIP3   OH237821   6.218   2.986   5.716 -0.0831 -0.0830  0.3611
 5421TIP3    H137822   6.238   2.894   5.703 -0.3971 -0.2311  0.9057
 5421TIP3    H237823   6.291   3.033   5.675 -0.3865 -0.5487 -0.7556
 5422TIP3   OH237824   4.161   4.262   1.451  0.5227  0.3889  0.0604
 5422TIP3    H137825   4.207   4.262   1.535 -1.6351  0.5028  1.3107
 5422TIP3    H237826   4.108   4.341   1.453  0.0453  0.1229 -1.1971
 5423TIP3   OH237827   5.307   6.653   6.205  0.1744  0.0432  0.7752
 5423TIP3    H137828   5.396   6.653   6.171 -0.6898 -4.5012 -2.2879
 5423TIP3    H237829   5.262   6.720   6.155  1.0963 -0.1030 -0.2830
 5424TIP3   OH237830   5.774   3.665   1.158  0.0984 -0.2740 -0.0818
 5424TIP3    H137831   5.764   3.573   1.179  0.0466 -0.7586 -2.0109
 5424TIP3    H237832   5.867   3.677   1.139  0.0080 -0.0723 -0.4175
 5425TIP3   OH237833   2.592   5.912   0.193  0.4472  0.0844  0.2717
 5425TIP3    H137834   2.679   5.916   0.153  0.1066 -1.4725 -0.7352
 5425TIP3    H237835   2.609   5.901   0.286  1.3273  0.0183  0.1147
 5426TIP3   OH237836   3.391   4.912   6.517  0.0655 -0.0827 -0.0709
 5426TIP3    H137837   3.426   4.917   6.606 -1.9645  1.8331  0.7204
 5426TIP3    H237838   3.459   4.950   6.462  0.9675 -0.4225  0.7874
 5427TIP3   OH237839   6.482   4.107   0.261 -0.2399  0.0696 -0.3409
 5427TIP3    H137840   6.576   4.115   0.250  0.0089  1.7484  2.0679
 5427TIP3    H237841   6.463   4.016   0.242  2.1486 -0.7094  0.6120
 5428TIP3   OH237842   5.753   0.696   0.985 -0.5868 -0.0466  0.2309
 5428TIP3    H137843   5.731   0.788   0.971  0.3244  0.2653  0.7499
 5428TIP3    H237844   5.822   0.698   1.052  0.8608 -0.9818 -1.1569
 5429TIP3   OH237845   6.025   4.098   6.606  0.0891  0.1464  0.1739
 5429TIP3    H137846   6.074   4.026   6.646 -1.5100  0.3654  2.7288
 5429TIP3    H237847   5.950   4.056   6.563 -0.6855  0.2330  1.4132
 5430TIP3   OH237848   2.937   2.307   7.289 -0.1047  0.0937 -0.2036
 5430TIP3    H137849   2.876   2.330   7.218 -0.4275 -0.4090 -0.0945
 5430TIP3    H237850   2.884   2.313   7.368 -0.0899 -0.6251 -0.1338
 5431TIP3   OH237851   3.959   2.049   6.236 -0.3377  0.2079 -0.1773
 5431TIP3    H137852   3.964   1.956   6.260  0.8191  0.1917 -0.4284
 5431TIP3    H237853   3.875   2.078   6.272  0.4964 -0.2376  2.3283
 5432TIP3   OH237854   4.949   4.535   6.642 -0.1217  0.5870 -0.0832
 5432TIP3    H137855   4.925   4.538   6.734  0.7140  1.1636  0.1285
 5432TIP3    H237856   4.921   4.619   6.606 -0.2363  0.4563 -0.3069
 5433TIP3   OH237857   7.023   4.946   7.244  0.1143  0.1841 -0.4304
 5433TIP3    H137858   6.997   4.891   7.170  0.3278  3.7064 -3.4328
 5433TIP3    H237859   7.116   4.927   7.256  0.0893 -0.4211 -1.0966
 5434TIP3   OH237860   6.929   5.213   7.079  0.2716  0.0354  0.2613
 5434TIP3    H137861   6.983   5.148   7.125  0.6895  0.0414 -0.2161
 5434TIP3    H237862   6.886   5.163   7.009  0.5242  0.2493 -0.0501
 5435TIP3   OH237863   5.172   2.677   7.074 -0.2266  0.2575  0.2023
 5435TIP3    H137864   5.235   2.749   7.073 -1.4412  1.3695  0.5962
 5435TIP3    H237865   5.087   2.719   7.060 -1.1355 -0.9006  1.7962
 5436TIP3   OH237866   1.409   1.789   0.987  0.4321  0.6459  0.1856
 5436TIP3    H137867   1.474   1.792   1.056  0.8526 -1.1207 -0.0940
 5436TIP3    H237868   1.428   1.866   0.933  1.7739  0.6019  0.5568
 5437TIP3   OH237869   5.618   1.023   6.208  0.2240 -1.1627  0.4074
 5437TIP3    H137870   5.635   0.929   6.206  2.2102 -0.8229 -0.7716
 5437TIP3    H237871   5.671   1.056   6.280 -0.1614 -0.8774  0.5657
 5438TIP3   OH237872   0.589   1.256   0.952  0.2696  0.3369 -0.0338
 5438TIP3    H137873   0.596   1.266   0.857 -0.8372  0.1694 -0.1440
 5438TIP3    H237874   0.599   1.345   0.986  0.9781  0.3585 -0.2719
 5439TIP3   OH237875   5.831   3.595   7.892  0.1252  0.5009 -0.9436
 5439TIP3    H137876   5.864   3.518   7.939  0.2016  1.3688  0.5094
 5439TIP3    H237877   5.908   3.650   7.881 -0.3634  1.5161  0.4068
 5440TIP3   OH237878   4.479   6.623   0.359  0.4581 -0.1942  0.0977
 5440TIP3    H137879   4.446   6.644   0.446  1.6664 -0.3852  0.6325
 5440TIP3    H237880   4.463   6.701   0.307 -1.0961 -0.3975  0.2250
 5441TIP3   OH237881   3.784   0.604   6.459  0.2213  0.3699  0.0695
 5441TIP3    H137882   3.824   0.647   6.384 -1.3251 -0.5393 -1.3360
 5441TIP3    H237883   3.858   0.566   6.507  1.2355  0.8973 -1.0297
 5442TIP3   OH237884   3.106   6.839   1.549 -0.0568  0.4705  0.3225
 5442TIP3    H137885   3.059   6.918   1.576  0.0520  0.9033 -0.6836
 5442TIP3    H237886   3.115   6.849   1.454  2.3044  0.5263  0.5068
 5443TIP3   OH237887   4.036   3.912   7.922 -0.9140 -0.0423  0.3229
 5443TIP3    H137888   4.082   3.932   7.840 -0.2358  0.1188  0.7333
 5443TIP3    H237889   3.944   3.915   7.899 -0.7191 -0.8741 -0.6448
 5444TIP3   OH237890   6.206   5.099   0.417  0.2518  0.1730 -0.1400
 5444TIP3    H137891   6.126   5.078   0.465  0.5596 -0.5398  0.0785
 5444TIP3    H237892   6.257   5.151   0.478 -0.5207  1.6178 -0.6861
 5445TIP3   OH237893   6.636   2.004   6.108  0.1287  0.6393  0.1991
 5445TIP3    H137894   6.627   1.958   6.192  0.8260  0.0281 -0.0527
 5445TIP3    H237895   6.729   2.022   6.100 -0.0144  1.2315 -0.1734
 5446TIP3   OH237896   5.703   1.549   1.395 -0.1672 -0.4345  0.1895
 5446TIP3    H137897   5.786   1.560   1.441 -0.6652 -2.5279  1.7417
 5446TIP3    H237898   5.637   1.557   1.463 -1.4121  2.3281 -1.1935
 5447TIP3   OH237899   1.622   5.538   1.511 -0.6994 -0.1522  0.5034
 5447TIP3    H137900   1.669   5.602   1.564 -1.7799 -0.1654  1.5008
 5447TIP3    H237901   1.640   5.454   1.553  0.2579 -0.4713 -0.4792
 5448TIP3   OH237902   4.551   0.697   0.177  0.1425 -0.2026 -0.0318
 5448TIP3    H137903   4.566   0.620   0.233 -1.4587 -1.0172 -0.6783
 5448TIP3    H237904   4.457   0.714   0.184  0.5080  1.9335  0.3606
 5449TIP3   OH237905   4.424   6.143   0.532  0.5835  0.0064  0.3901
 5449TIP3    H137906   4.444   6.192   0.452 -0.2819 -0.7143 -0.2949
 5449TIP3    H237907   4.507   6.138   0.579  1.1588  0.2455 -0.5714
 5450TIP3   OH237908   1.090   6.672   1.006  0.5702 -0.5219 -0.3831
 5450TIP3    H137909   1.090   6.736   0.934  0.9817 -0.2096 -0.1125
 5450TIP3    H237910   1.180   6.673   1.039  1.0088 -2.3893 -1.3765
 5451TIP3   OH237911   0.307   4.139   7.914 -0.3090 -0.0569  0.4206
 5451TIP3    H137912   0.310   4.062   7.857  0.3689  0.5163 -0.3375
 5451TIP3    H237913   0.341   4.108   7.998  1.9380 -0.1253 -0.4558
 5452TIP3   OH237914   0.696   1.159   0.138  0.3249  0.5825  0.1000
 5452TIP3    H137915   0.677   1.233   0.196 -0.0107  2.3229 -2.1005
 5452TIP3    H237916   0.709   1.198   0.052  1.3489 -1.8366 -0.9468
 5453TIP3   OH237917   5.174   4.701   1.658  0.1674  0.6358  0.0620
 5453TIP3    H137918   5.212   4.712   1.745  0.1689  0.5840  0.0674
 5453TIP3    H237919   5.126   4.619   1.662 -0.2780  0.9013  0.1716
 5454TIP3   OH237920   1.631   6.391   6.976  0.6154  0.0756 -0.1089
 5454TIP3    H137921   1.543   6.423   6.996  1.2395  1.6619  0.2560
 5454TIP3    H237922   1.668   6.367   7.061  0.8066  0.1273 -0.1771
 5455TIP3   OH237923   4.175   1.049   0.307  0.0545  0.3072  0.4155
 5455TIP3    H137924   4.166   0.972   0.364 -0.9889 -0.3854 -0.6263
 5455TIP3    H237925   4.085   1.073   0.285  0.3860 -0.7254 -2.5375
 5456TIP3   OH237926   6.993   5.912   0.461  0.2104  0.0649  0.8729
 5456TIP3    H137927   7.023   5.989   0.508 -2.3338  1.2422  0.7255
 5456TIP3    H237928   6.949   5.859   0.527 -1.9368  0.9412  0.2302
 5457TIP3   OH237929   6.034   1.258   5.532 -1.0545  0.1638 -0.1259
 5457TIP3    H137930   6.027   1.163   5.528 -0.2469  0.1175 -0.5867
 5457TIP3    H237931   6.124   1.275   5.560 -0.2068  0.8052 -2.9457
 5458TIP3   OH237932   0.356   2.049   7.724 -0.1862  0.1384  0.2554
 5458TIP3    H137933   0.328   2.085   7.808 -0.3800  1.2240 -0.2606
 5458TIP3    H237934   0.329   2.114   7.660  0.4793 -0.4042 -0.5939
 5459TIP3   OH237935   2.001   4.050   0.232 -0.5494 -0.2016  0.4802
 5459TIP3    H137936   2.079   4.083   0.188 -1.1662  0.5840 -0.0515
 5459TIP3    H237937   1.932   4.112   0.208 -1.7882 -1.9301 -0.6603
 5460TIP3   OH237938   5.957   5.035   2.039  0.0880 -0.3458 -0.1968
 5460TIP3    H137939   5.933   5.096   1.969 -1.8053 -1.1436 -0.2917
 5460TIP3    H237940   6.031   5.077   2.083 -1.5916  2.3954  0.2143
 5461TIP3   OH237941   6.326   4.740   0.726  0.3412 -0.0376  0.1154
 5461TIP3    H137942   6.288   4.660   0.761 -0.4851  0.1614 -0.3219
 5461TIP3    H237943   6.367   4.782   0.802  1.4679 -1.2413  0.2102
 5462TIP3   OH237944   1.190   2.470   7.303  0.4281  0.1262 -0.6336
 5462TIP3    H137945   1.251   2.545   7.304  0.8693 -0.2084 -1.4826
 5462TIP3    H237946   1.121   2.496   7.242  0.9477 -0.4307 -1.4738
 5463TIP3   OH237947   2.412   2.321   0.321  0.3892  0.0825  0.3300
 5463TIP3    H137948   2.360   2.313   0.401 -0.2628 -0.9026 -0.1756
 5463TIP3    H237949   2.359   2.378   0.265 -0.6376 -1.6750 -0.5452
 5464TIP3   OH237950   2.296   4.751   7.709 -0.0006  0.0162 -0.4415
 5464TIP3    H137951   2.220   4.735   7.653 -0.2980  1.5909 -0.5458
 5464TIP3    H237952   2.267   4.820   7.769  0.6210 -0.9869  1.0518
 5465TIP3   OH237953   5.684   5.946   0.223  0.3705  0.2981 -0.7056
 5465TIP3    H137954   5.769   5.989   0.236  0.7216 -0.0782 -1.6859
 5465TIP3    H237955   5.624   6.018   0.205 -0.0458  0.8153  2.2201
 5466TIP3   OH237956   3.614   0.205   7.766 -0.1731  0.5906 -0.0069
 5466TIP3    H137957   3.634   0.138   7.831 -1.2506  1.2625  1.0505
 5466TIP3    H237958   3.677   0.189   7.695  1.7278  0.4601  1.6212
 5467TIP3   OH237959   2.103   6.424   6.225 -0.7229 -0.4584  0.1756
 5467TIP3    H137960   2.118   6.366   6.300 -1.8102  1.1557  1.7328
 5467TIP3    H237961   2.188   6.427   6.180 -0.0301 -1.4598  1.3494
 5468TIP3   OH237962   1.881   2.959   6.963 -0.3679 -0.3394 -0.1326
 5468TIP3    H137963   1.848   2.987   7.048  0.7691  1.5435 -0.2450
 5468TIP3    H237964   1.908   3.040   6.919  1.0867 -1.4318 -1.4161
 5469TIP3   OH237965   3.107   2.679   6.301 -0.2796  0.0896  0.0611
 5469TIP3    H137966   3.107   2.759   6.249  2.3989  1.2253  1.6120
 5469TIP3    H237967   3.081   2.611   6.240  1.7727  1.4737 -2.5651
 5470TIP3   OH237968   6.887   5.719   6.267  0.2684  0.0398  0.2917
 5470TIP3    H137969   6.796   5.742   6.253  0.4311 -0.2068 -1.3182
 5470TIP3    H237970   6.936   5.798   6.245  0.4590  0.2155  1.2831
 5471TIP3   OH237971   1.287   6.881   7.221 -0.3431 -0.4682 -0.3437
 5471TIP3    H137972   1.345   6.827   7.167 -0.2045 -0.2296 -0.4357
 5471TIP3    H237973   1.345   6.947   7.260 -0.3485 -0.9659  0.5319
 5472TIP3   OH237974   6.146   1.725   7.141 -0.1709 -0.1711  0.3814
 5472TIP3    H137975   6.069   1.782   7.139 -0.2222 -0.2568 -0.6738
 5472TIP3    H237976   6.199   1.753   7.066 -0.4314 -1.8046 -0.4677
 5473TIP3   OH237977   0.243   2.416   0.216 -0.3708 -0.3700 -0.5465
 5473TIP3    H137978   0.311   2.480   0.195 -1.3977  0.9149 -0.1037
 5473TIP3    H237979   0.283   2.359   0.282  0.2053  0.5055 -0.1143
 5474TIP3   OH237980   2.965   4.209   0.724 -0.0569  0.2583 -0.2194
 5474TIP3    H137981   2.959   4.116   0.745 -1.3749 -0.0583 -1.7219
 5474TIP3    H237982   2.900   4.222   0.654  0.1330  2.2940 -0.0944
 5475TIP3   OH237983   0.975   6.698   6.987  0.0479 -0.0882  0.0159
 5475TIP3    H137984   1.051   6.682   7.043 -0.4067 -0.4863  0.5377
 5475TIP3    H237985   1.010   6.744   6.911  0.9006 -0.8016 -0.0391
 5476TIP3   OH237986   5.183   2.466   6.587 -0.1884 -0.5516  0.3274
 5476TIP3    H137987   5.231   2.549   6.578 -0.1647 -0.7372 -1.5984
 5476TIP3    H237988   5.130   2.460   6.508 -0.2956 -2.3262  0.4988
 5477TIP3   OH237989   5.320   2.950   6.789  0.2125  0.1190  0.3450
 5477TIP3    H137990   5.407   2.971   6.754 -0.1857  0.0717 -0.6935
 5477TIP3    H237991   5.337   2.922   6.879  1.1285  1.4390  0.6025
 5478TIP3   OH237992   0.157   3.527   7.881  0.0919 -0.1190 -0.8081
 5478TIP3    H137993   0.201   3.612   7.871 -0.1606  0.1931  0.4894
 5478TIP3    H237994   0.194   3.491   7.962  0.0704 -1.1752 -1.2650
 5479TIP3   OH237995   2.037   6.985   0.513 -0.7385 -0.2126 -0.3993
 5479TIP3    H137996   2.083   6.930   0.450  1.4817  0.3267  0.6709
 5479TIP3    H237997   2.078   6.967   0.597 -2.0858  0.7731  0.5283
 5480TIP3   OH237998   1.575   4.595   1.996 -0.2397 -0.2422 -0.0631
 5480TIP3    H137999   1.534   4.599   2.083  0.2699 -0.9007  0.2122
 5480TIP3    H238000   1.503   4.574   1.937 -0.6673  0.6142  0.1373
 5481TIP3   OH238001   0.844   3.093   0.095 -0.4058 -0.1436  0.3164
 5481TIP3    H138002   0.862   3.122   0.005 -1.4379 -0.0985  0.1128
 5481TIP3    H238003   0.829   3.173   0.144  1.2926 -0.0946  0.8136
 5482TIP3   OH238004   6.183   1.950   6.652  0.1728 -0.0271 -0.2671
 5482TIP3    H138005   6.095   1.960   6.688 -0.2639 -0.5785 -1.1411
 5482TIP3    H238006   6.241   1.956   6.728 -0.5466  1.2427  0.2109
 5483TIP3   OH238007   3.230   6.339   6.931 -0.8649 -0.0097 -0.0567
 5483TIP3    H138008   3.205   6.421   6.887 -2.1254 -0.6611 -0.5992
 5483TIP3    H238009   3.154   6.282   6.921 -0.1143 -1.1607  0.5621
 5484TIP3   OH238010   3.199   5.639   6.265  0.1355 -0.4266  0.8945
 5484TIP3    H138011   3.135   5.643   6.336 -1.3422  0.6946 -0.4238
 5484TIP3    H238012   3.146   5.643   6.185  1.8237 -0.0573 -0.2536
 5485TIP3   OH238013   3.467   2.086   0.704 -0.6060  0.1058 -0.7793
 5485TIP3    H138014   3.447   2.152   0.638 -1.7269  0.2162 -0.3559
 5485TIP3    H238015   3.437   2.125   0.786 -0.3034 -0.4970 -0.3781
 5486TIP3   OH238016   0.535   0.553   7.197 -0.0932  0.7881  0.2034
 5486TIP3    H138017   0.531   0.644   7.168 -0.6618  0.7217  0.0622
 5486TIP3    H238018   0.568   0.505   7.120 -0.0491  0.8361  0.1922
 5487TIP3   OH238019   6.164   2.025   7.117 -0.4450 -0.0747 -0.6449
 5487TIP3    H138020   6.226   2.072   7.173 -1.0865  0.9622 -0.7817
 5487TIP3    H238021   6.083   2.075   7.124 -0.6409 -0.1166 -2.2484
 5488TIP3   OH238022   4.192   4.974   0.038 -0.1444 -0.1802 -0.2322
 5488TIP3    H138023   4.229   4.958  -0.049 -0.0426 -1.1328 -0.0201
 5488TIP3    H238024   4.203   5.068   0.051  1.4941 -0.2917 -0.5202
 5489TIP3   OH238025   6.705   6.428   0.142  0.3069 -0.2218  0.3017
 5489TIP3    H138026   6.772   6.488   0.109  0.5285  0.1709  1.4190
 5489TIP3    H238027   6.622   6.470   0.120  0.4573  0.2905  0.6944
 5490TIP3   OH238028   2.052   6.334   0.498 -0.3050 -0.3770 -0.5253
 5490TIP3    H138029   2.077   6.361   0.409  1.3754  0.2569  0.0993
 5490TIP3    H238030   2.035   6.417   0.543  1.6077 -0.4736  0.4842
 5491TIP3   OH238031   3.118   6.585   7.501 -0.0666  0.5366 -0.0522
 5491TIP3    H138032   3.153   6.524   7.437  0.0720  0.0927  0.4397
 5491TIP3    H238033   3.102   6.532   7.579 -2.1410  0.6518 -0.3532
 5492TIP3   OH238034   2.281   1.129   0.416  0.4003 -0.0977 -0.2292
 5492TIP3    H138035   2.343   1.086   0.357  0.0497 -1.3794  0.2929
 5492TIP3    H238036   2.307   1.099   0.503  0.1008  0.7280  0.1524
 5493TIP3   OH238037   6.894   4.234   5.970 -0.0889 -0.4190 -0.0661
 5493TIP3    H138038   6.860   4.232   5.880  0.3776  0.7434 -0.2913
 5493TIP3    H238039   6.987   4.254   5.960  0.0365 -0.6173  0.6648
 5494TIP3   OH238040   5.447   1.886   0.850  0.3004 -0.7641 -0.3284
 5494TIP3    H138041   5.472   1.974   0.822 -3.2466  0.0781 -1.3131
 5494TIP3    H238042   5.466   1.830   0.775 -0.5697 -0.1880 -0.9923
 5495TIP3   OH238043   4.617   1.538   1.027  0.0173 -0.2235  0.3549
 5495TIP3    H138044   4.590   1.471   1.090 -1.7678  0.1235  0.0181
 5495TIP3    H238045   4.561   1.525   0.951  0.6251  0.7506 -0.2932
 5496TIP3   OH238046   4.049   1.766   1.405  0.3612  0.0367 -0.1231
 5496TIP3    H138047   4.131   1.811   1.426  0.3133  0.4582 -0.8122
 5496TIP3    H238048   3.982   1.814   1.453  0.1212  1.5956 -1.8872
 5497TIP3   OH238049   4.507   7.141   6.093  0.1571 -0.1500  0.6529
 5497TIP3    H138050   4.548   7.057   6.073 -0.7087 -1.2640  3.0999
 5497TIP3    H238051   4.563   7.206   6.050  0.4689 -1.9608 -1.9029
 5498TIP3   OH238052   0.418   5.085   7.153 -0.0763 -0.0996  0.2771
 5498TIP3    H138053   0.475   5.050   7.085  0.7422  0.7021  0.5374
 5498TIP3    H238054   0.331   5.053   7.130 -0.2239  1.9000 -2.4221
 5499TIP3   OH238055   1.098   1.177   7.795 -0.5072  0.2612  0.8255
 5499TIP3    H138056   1.081   1.114   7.725 -1.7832  0.4037  0.9787
 5499TIP3    H238057   1.137   1.252   7.750 -2.0326  0.6707  0.0969
 5500TIP3   OH238058   3.159   5.873   0.716 -0.4204  0.0178 -0.0775
 5500TIP3    H138059   3.144   5.824   0.796 -1.6167 -2.1383 -1.5094
 5500TIP3    H238060   3.198   5.810   0.655 -0.0089  1.4339 -1.3715
 5501TIP3   OH238061   6.584   4.742   7.053 -0.1432  0.4859  0.3368
 5501TIP3    H138062   6.648   4.696   6.999  0.6859 -0.1763  1.8001
 5501TIP3    H238063   6.612   4.833   7.050  0.1949  0.3786  0.0471
 5502TIP3   OH238064   2.932   1.751   1.179 -0.0778  0.2607  0.3729
 5502TIP3    H138065   2.865   1.820   1.181 -1.6677 -1.1348 -1.1178
 5502TIP3    H238066   3.000   1.785   1.121  0.6899  1.7996  2.0885
 5503TIP3   OH238067   4.541   1.343   1.225  0.1578 -0.0234 -0.1369
 5503TIP3    H138068   4.617   1.303   1.266 -0.6420 -0.8167  0.6373
 5503TIP3    H238069   4.480   1.358   1.298 -1.6031 -2.1499 -1.0318
 5504TIP3   OH238070   1.467   5.294   1.822 -0.3152 -0.2497  0.4428
 5504TIP3    H138071   1.525   5.270   1.750  0.1807  0.3485  0.6423
 5504TIP3    H238072   1.524   5.332   1.888 -1.0987  1.9301 -0.0499
 5505TIP3   OH238073   2.423   3.583   1.645 -0.5396 -0.1622  0.0448
 5505TIP3    H138074   2.449   3.641   1.573  0.4098  1.8898  1.9175
 5505TIP3    H238075   2.347   3.626   1.683  1.2966  1.0492  2.6488
 5506TIP3   OH238076   0.740   4.914   1.478 -0.6018 -0.0625 -0.0239
 5506TIP3    H138077   0.723   4.820   1.477  0.4180 -0.2829  1.0400
 5506TIP3    H238078   0.727   4.940   1.569  0.0457  0.6395 -0.1184
 5507TIP3   OH238079   0.450   1.475   0.442 -0.4768 -0.3965  0.0627
 5507TIP3    H138080   0.399   1.397   0.463 -0.1950 -1.2503 -2.1606
 5507TIP3    H238081   0.525   1.443   0.392  0.0958  1.2098 -0.1847
 5508TIP3   OH238082   4.264   3.112   6.210  0.3243 -0.0005  0.0828
 5508TIP3    H138083   4.228   3.027   6.185 -2.3004  0.3018  2.3984
 5508TIP3    H238084   4.329   3.091   6.277  0.4192 -0.1955 -0.0646
 5509TIP3   OH238085   1.330   3.747   7.922  0.3353 -0.0048 -0.3590
 5509TIP3    H138086   1.274   3.683   7.878  2.3501 -0.5752 -2.2773
 5509TIP3    H238087   1.268   3.812   7.957 -1.5805 -1.2439 -1.2441
 5510TIP3   OH238088   2.630   4.724   0.262  0.7017 -0.2478  0.6138
 5510TIP3    H138089   2.619   4.764   0.349  2.6785  1.4385  0.1823
 5510TIP3    H238090   2.543   4.693   0.239  0.0556 -0.4892  3.0694
 5511TIP3   OH238091   0.781   3.651   0.839  0.0896  0.2082 -0.5271
 5511TIP3    H138092   0.812   3.623   0.925  1.5274  1.5580 -0.5453
 5511TIP3    H238093   0.695   3.610   0.829 -1.5324  2.3256  2.8252
 5512TIP3   OH238094   1.496   3.151   5.898  0.3502 -0.5646  0.3227
 5512TIP3    H138095   1.499   3.218   5.967 -0.2003  2.5245 -2.4000
 5512TIP3    H238096   1.579   3.161   5.851  0.3722 -2.0451 -0.0024
 5513TIP3   OH238097   1.594   6.403   1.259 -0.3526  0.2569 -0.1749
 5513TIP3    H138098   1.511   6.417   1.303 -0.4751 -1.8012  0.3862
 5513TIP3    H238099   1.659   6.440   1.319 -0.8351  2.0547 -0.7115
 5514TIP3   OH238100   2.628   1.109   0.943  1.0709 -0.7656  0.2131
 5514TIP3    H138101   2.698   1.132   1.005  1.7921 -2.8368  0.2412
 5514TIP3    H238102   2.663   1.035   0.894 -0.1091 -0.1738 -1.6378
 5515TIP3   OH238103   5.816   1.158   1.038 -0.6608  0.2701 -0.3469
 5515TIP3    H138104   5.745   1.095   1.055 -0.3401  0.2594  1.0466
 5515TIP3    H238105   5.773   1.230   0.991 -0.8823 -1.3098 -2.7480
 5516TIP3   OH238106   1.433   1.481   0.011  0.3019 -0.6938  0.2997
 5516TIP3    H138107   1.346   1.515  -0.010  0.6471  0.6143  0.8994
 5516TIP3    H238108   1.447   1.412  -0.054 -1.0244 -0.6842 -0.0407
 5517TIP3   OH238109   1.449   5.331   6.994  0.0939 -0.8059  0.0224
 5517TIP3    H138110   1.393   5.260   7.026 -0.8321 -0.5329 -0.9319
 5517TIP3    H238111   1.417   5.349   6.905  2.8047 -1.7946 -1.2523
 5518TIP3   OH238112   3.619   5.039   7.996 -0.1011 -0.4059 -0.7297
 5518TIP3    H138113   3.549   5.099   7.971  1.3471  1.0909 -1.3629
 5518TIP3    H238114   3.623   5.046   8.092 -1.3621 -1.1687 -0.6050
 5519TIP3   OH238115   5.163   6.312   1.749  0.4699 -0.1904  0.1773
 5519TIP3    H138116   5.116   6.370   1.809 -1.2971 -0.1185 -1.2147
 5519TIP3    H238117   5.104   6.300   1.675  1.3392 -2.6709 -0.2259
 5520TIP3   OH238118   4.610   4.818   7.309  0.2804 -0.0248 -0.1372
 5520TIP3    H138119   4.667   4.756   7.353  0.3296 -1.0875 -1.6145
 5520TIP3    H238120   4.527   4.772   7.298 -0.3418  0.8991  0.4840
 5521TIP3   OH238121   6.191   5.130   1.760  0.3547 -0.2551 -0.0734
 5521TIP3    H138122   6.220   5.053   1.810  1.6516  0.6437  0.6046
 5521TIP3    H238123   6.182   5.097   1.670  1.2263 -1.1415  0.1333
 5522TIP3   OH238124   2.772   6.112   6.711 -0.0173  0.2865 -0.3757
 5522TIP3    H138125   2.813   6.029   6.688 -2.7055 -0.8268 -1.6425
 5522TIP3    H238126   2.718   6.135   6.635 -1.6978  1.5752  1.0987
 5523TIP3   OH238127   6.288   6.696   6.442  0.0775  0.2750  0.4093
 5523TIP3    H138128   6.275   6.631   6.373 -1.4669  0.7579  0.1924
 5523TIP3    H238129   6.248   6.656   6.520 -2.2376  1.4788 -0.0677
 5524TIP3   OH238130   6.001   6.231   1.796  0.1200  0.3260  0.0838
 5524TIP3    H138131   6.027   6.163   1.859 -1.0444 -0.5778 -0.3703
 5524TIP3    H238132   5.968   6.182   1.721  0.8836  1.4004 -0.9859
 5525TIP3   OH238133   7.118   6.890   6.095  0.3631  0.1646  0.1345
 5525TIP3    H138134   7.035   6.863   6.057  1.3559 -1.8786 -0.7569
 5525TIP3    H238135   7.164   6.935   6.024 -0.0307  1.4848  0.6879
 5526TIP3   OH238136   4.460   3.077   0.162  0.7481 -0.6617 -0.0378
 5526TIP3    H138137   4.397   3.143   0.192  1.5894 -0.2383  0.8540
 5526TIP3    H238138   4.406   3.011   0.118 -0.4108 -0.6610  1.3025
 5527TIP3   OH238139   0.779   5.600   6.955 -0.0619  0.7903 -0.0772
 5527TIP3    H138140   0.724   5.528   6.988  0.9463  0.8796  1.9916
 5527TIP3    H238141   0.718   5.672   6.941 -0.8463  0.0676 -0.4788
 5528TIP3   OH238142   7.012   2.491   7.426 -0.0264 -0.2757  0.3111
 5528TIP3    H138143   6.958   2.412   7.430 -2.1469  0.9535 -1.5142
 5528TIP3    H238144   7.023   2.507   7.332  0.1681  1.6727  0.6254
 5529TIP3   OH238145   5.702   4.721   6.546 -0.3680  0.0723 -0.4429
 5529TIP3    H138146   5.747   4.765   6.474  0.0012 -0.8614 -0.7893
 5529TIP3    H238147   5.638   4.664   6.504 -1.4420  0.8827  0.0301
 5530TIP3   OH238148   3.864   0.479   6.929 -0.7034 -0.2708  0.4057
 5530TIP3    H138149   3.818   0.549   6.884 -0.3355 -1.0051 -1.1676
 5530TIP3    H238150   3.795   0.425   6.967 -1.0885 -0.5585 -0.6900
 5531TIP3   OH238151   6.818   1.800   1.832 -0.2007  0.4078 -0.0201
 5531TIP3    H138152   6.804   1.885   1.873 -0.5510 -0.3625  1.5362
 5531TIP3    H238153   6.764   1.740   1.883  0.4502 -0.8419 -0.7543
 5532TIP3   OH238154   4.181   1.911   5.938 -1.0770  0.4695 -0.1558
 5532TIP3    H138155   4.132   1.922   5.856 -1.7657  1.1932  0.3332
 5532TIP3    H238156   4.134   1.842   5.985  0.8046 -1.8441 -1.4176
 5533TIP3   OH238157   5.232   3.178   0.637 -0.0452 -0.2096  0.2370
 5533TIP3    H138158   5.146   3.178   0.595  1.1780 -0.9343 -2.4614
 5533TIP3    H238159   5.218   3.226   0.719 -2.8896  0.0819 -0.3045
 5534TIP3   OH238160   4.937   0.576   1.275 -0.0147  0.4869 -0.2907
 5534TIP3    H138161   4.895   0.644   1.327  2.0806  2.7677 -1.3986
 5534TIP3    H238162   5.023   0.565   1.315 -0.5495 -2.1839  0.3401
 5535TIP3   OH238163   4.380   4.151   0.230 -0.0663 -0.1834 -0.0633
 5535TIP3    H138164   4.374   4.218   0.298 -1.8174 -1.3519  1.0138
 5535TIP3    H238165   4.388   4.200   0.148  0.0257  1.2920  0.8059
 5536TIP3   OH238166   5.523   4.573   1.788 -0.1128 -0.7463  0.5998
 5536TIP3    H138167   5.453   4.639   1.790  0.1007 -0.4539 -0.6071
 5536TIP3    H238168   5.569   4.583   1.871 -0.1304  0.5857  0.4624
 5537TIP3   OH238169   2.766   6.705   1.036  0.1610  0.3578  0.2710
 5537TIP3    H138170   2.847   6.713   0.985 -0.3719  0.2695 -0.5959
 5537TIP3    H238171   2.762   6.786   1.087  0.6884  0.4517  0.1713
 5538TIP3   OH238172   1.940   5.923   7.785  0.2367 -0.1421  0.1786
 5538TIP3    H138173   2.020   5.871   7.777 -0.8565 -1.6570 -2.0317
 5538TIP3    H238174   1.894   5.883   7.859  1.8540  1.3484  2.0855
 5539TIP3   OH238175   4.887   5.988   0.893 -0.3036 -0.1102 -0.9004
 5539TIP3    H138176   4.817   6.048   0.918 -0.0304  0.1683 -0.7995
 5539TIP3    H238177   4.844   5.903   0.886 -0.5968  0.0079 -0.5605
 5540TIP3   OH238178   2.609   0.964   1.483  0.3523 -0.2557 -0.2986
 5540TIP3    H138179   2.677   0.934   1.544  0.5223  0.8493  0.0677
 5540TIP3    H238180   2.591   1.054   1.509 -2.6401 -1.0640  0.8787
 5541TIP3   OH238181   0.041   6.545   7.199  0.5695  0.5361  0.1037
 5541TIP3    H138182   0.010   6.621   7.150 -1.3154 -1.6116 -2.2887
 5541TIP3    H238183   0.110   6.508   7.145  0.0576 -0.5884  0.1994
 5542TIP3   OH238184   2.743   6.884   7.442 -0.3198  0.0696  0.4714
 5542TIP3    H138185   2.834   6.890   7.473  0.3144  0.9727 -1.4069
 5542TIP3    H238186   2.704   6.967   7.469  0.3323  1.0094 -1.2899
 5543TIP3   OH238187   7.031   0.422   6.925 -0.6374 -0.3840  0.4634
 5543TIP3    H138188   7.070   0.382   6.847 -2.4062  0.2963 -0.8472
 5543TIP3    H238189   6.979   0.351   6.964 -2.0181 -0.0193 -0.6258
 5544TIP3   OH238190   6.112   6.857   7.894  0.4250 -0.0323 -0.0853
 5544TIP3    H138191   6.126   6.770   7.932 -1.9336 -0.2302  0.4392
 5544TIP3    H238192   6.019   6.860   7.875  0.7891  1.7019 -1.8922
 5545TIP3   OH238193   0.774   6.201   0.743  0.4564 -0.4119  0.3507
 5545TIP3    H138194   0.764   6.143   0.667  0.6570 -1.2761  0.9611
 5545TIP3    H238195   0.868   6.216   0.750  0.2837  1.9180 -1.1668
 5546TIP3   OH238196   0.412   4.829   6.045  0.0503 -0.3562 -0.1722
 5546TIP3    H138197   0.461   4.898   5.998 -0.5285 -0.2028 -0.5626
 5546TIP3    H238198   0.356   4.790   5.978 -0.6904 -0.2302  0.3603
 5547TIP3   OH238199   1.610   5.763   6.470  0.2603 -0.3819 -0.1101
 5547TIP3    H138200   1.522   5.750   6.503  0.0396  0.0116 -0.5371
 5547TIP3    H238201   1.600   5.825   6.397  0.8266 -0.6779 -0.4468
 5548TIP3   OH238202   5.465   0.664   1.422 -0.4462  0.3185 -0.1601
 5548TIP3    H138203   5.557   0.677   1.448 -0.5026 -1.6031  1.1466
 5548TIP3    H238204   5.470   0.641   1.329  0.6650 -2.1081  0.4293
 5549TIP3   OH238205   5.370   6.910   7.904 -0.0937 -0.1717 -0.0196
 5549TIP3    H138206   5.290   6.885   7.951 -0.1681 -1.2214 -0.6656
 5549TIP3    H238207   5.338   6.961   7.829 -0.0348  0.7147  0.5372
 5550TIP3   OH238208   1.821   5.545   7.237  0.2835 -0.1802  0.7607
 5550TIP3    H138209   1.827   5.640   7.225 -0.5929 -0.3945 -2.3207
 5550TIP3    H238210   1.728   5.528   7.248  0.4561 -0.7064  1.5127
 5551TIP3   OH238211   2.808   1.551   1.879  0.2077 -0.1217  0.3577
 5551TIP3    H138212   2.849   1.623   1.927  1.8808  0.2858 -1.5582
 5551TIP3    H238213   2.715   1.573   1.879  0.4457  1.0222  1.4500
 5552TIP3   OH238214   5.695   5.645   7.765  0.7406  0.0410  0.1035
 5552TIP3    H138215   5.617   5.683   7.725  0.6300 -0.8416 -0.5541
 5552TIP3    H238216   5.768   5.682   7.716  0.9329  2.5037  2.0436
 5553TIP3   OH238217   5.694   7.109   7.409 -0.5001 -0.4207  0.1153
 5553TIP3    H138218   5.756   7.041   7.435 -1.2247 -0.8774  0.7184
 5553TIP3    H238219   5.630   7.112   7.480 -1.0140  0.2325 -0.3514
 5554TIP3   OH238220   1.827   3.011   7.228  0.0155  0.1661 -0.3546
 5554TIP3    H138221   1.840   3.095   7.272  0.2090  0.3508 -0.7555
 5554TIP3    H238222   1.857   2.946   7.291  0.6021  0.4431 -0.3379
 5555TIP3   OH238223   0.034   5.517   6.062  0.8620 -0.1264 -0.2872
 5555TIP3    H138224  -0.041   5.519   6.003 -0.4904  0.1060  1.3562
 5555TIP3    H238225   0.104   5.559   6.013 -0.8669  2.2624 -0.8910
 5556TIP3   OH238226   5.120   5.043   0.262  0.3036 -0.2383  0.2237
 5556TIP3    H138227   5.142   4.972   0.202 -0.4821 -1.7259  1.6361
 5556TIP3    H238228   5.204   5.085   0.280  0.8581 -1.0984 -0.2781
 5557TIP3   OH238229   0.566   4.070   7.524 -0.2314 -0.4701  0.3571
 5557TIP3    H138230   0.662   4.074   7.524 -0.2085 -0.7961 -0.2076
 5557TIP3    H238231   0.541   4.097   7.435 -0.6692 -0.2367  0.5494
 5558TIP3   OH238232   1.748   1.990   7.506 -0.0448 -0.3852  0.3194
 5558TIP3    H138233   1.745   1.894   7.503 -1.7509 -0.3829  0.5825
 5558TIP3    H238234   1.738   2.010   7.599  1.1336  0.0493  0.3579
 5559TIP3   OH238235   2.013   6.887   6.784 -0.0905 -0.1867 -0.2692
 5559TIP3    H138236   2.043   6.969   6.825 -2.5639  0.8970 -0.4805
 5559TIP3    H238237   2.068   6.879   6.706  0.0286  1.4420 -0.3937
 5560TIP3   OH238238   4.918   1.208   6.612 -0.2494  0.1097  0.5543
 5560TIP3    H138239   4.929   1.244   6.524 -1.6672 -0.0892  0.2682
 5560TIP3    H238240   4.998   1.233   6.659  0.7817 -0.2676 -0.9403
 5561TIP3   OH238241   2.520   5.986   0.916 -0.0369  0.8313 -0.1107
 5561TIP3    H138242   2.581   6.017   0.983  0.1695 -2.0259  1.1728
 5561TIP3    H238243   2.448   5.946   0.965 -1.5060  1.5310 -1.6119
 5562TIP3   OH238244   4.937   5.636   7.773  0.2572  0.3746  0.0581
 5562TIP3    H138245   4.912   5.569   7.836 -0.7841 -0.4897 -1.2095
 5562TIP3    H238246   4.877   5.708   7.789 -1.3482 -0.6258 -1.1931
 5563TIP3   OH238247   0.309   2.177   6.023 -0.3303 -0.1626 -0.9551
 5563TIP3    H138248   0.365   2.171   6.101  0.6815  0.8115 -1.5791
 5563TIP3    H238249   0.254   2.099   6.027  0.1434 -0.4552  0.3957
 5564TIP3   OH238250   1.776   1.644   6.250 -0.3216 -0.4069  0.2868
 5564TIP3    H138251   1.724   1.681   6.178  1.6383  3.2720  0.5113
 5564TIP3    H238252   1.755   1.701   6.325  3.1984  0.6821  0.6032
 5565TIP3   OH238253   4.391   4.349   0.434  0.0234  0.0540 -0.0746
 5565TIP3    H138254   4.482   4.354   0.461  0.4049  1.7053 -1.4893
 5565TIP3    H238255   4.346   4.413   0.489  0.4481  1.9799 -1.8553
 5566TIP3   OH238256   3.907   3.829   1.252 -0.4502  0.1938 -0.8115
 5566TIP3    H138257   3.821   3.805   1.219 -1.7984  1.6930  1.3846
 5566TIP3    H238258   3.919   3.777   1.331  1.5861 -1.4332 -2.0704
 5567TIP3   OH238259   2.528   6.454   1.426 -0.1650 -0.4320  0.1094
 5567TIP3    H138260   2.548   6.513   1.354 -1.2215 -1.7277 -1.2908
 5567TIP3    H238261   2.433   6.462   1.438 -0.2835 -1.6231  0.0745
 5568TIP3   OH238262   0.178   6.994   1.793  0.0004  0.4236 -0.2288
 5568TIP3    H138263   0.271   6.974   1.809  0.1239  0.6617 -0.6166
 5568TIP3    H238264   0.131   6.919   1.829  0.1675  1.4103  2.2164
 5569TIP3   OH238265   4.640   5.279   0.794  0.1211  0.4464  0.4964
 5569TIP3    H138266   4.627   5.319   0.880  1.2847 -0.4365  1.1068
 5569TIP3    H238267   4.555   5.242   0.771  0.0830 -0.3124  1.7923
 5570TIP3   OH238268   2.577   6.715   1.318 -0.7940 -0.5696  0.1446
 5570TIP3    H138269   2.594   6.726   1.412  0.2771  1.3318 -0.2360
 5570TIP3    H238270   2.486   6.742   1.307 -0.8380 -0.5230  0.5897
 5571TIP3   OH238271   6.085   1.795   0.881  0.2077  0.6343 -0.2922
 5571TIP3    H138272   6.009   1.747   0.916 -1.7987  1.1715 -3.4905
 5571TIP3    H238273   6.109   1.855   0.951 -0.2512 -1.6843  2.0175
 5572TIP3   OH238274   5.395   1.190   7.600 -0.3029  0.2683  0.3288
 5572TIP3    H138275   5.339   1.125   7.642 -0.5221  0.9076  1.0443
 5572TIP3    H238276   5.457   1.138   7.549 -2.1436 -0.4621 -1.3267
 5573TIP3   OH238277   0.560   2.975   6.992 -0.6494 -0.0427 -0.1988
 5573TIP3    H138278   0.548   3.070   6.993  0.7031  0.1894 -2.0673
 5573TIP3    H238279   0.599   2.956   6.907 -1.6339 -2.3872 -0.1983
 5574TIP3   OH238280   3.101   6.998   7.188  0.1116 -0.1294  0.2722
 5574TIP3    H138281   3.074   6.967   7.275  1.4556  1.2511  1.2292
 5574TIP3    H238282   3.171   6.937   7.163 -0.6721 -0.8894 -0.1460
 5575TIP3   OH238283   0.585   0.198   6.458 -0.6517  0.1867 -0.4927
 5575TIP3    H138284   0.620   0.109   6.465  0.1685  0.5323  0.0528
 5575TIP3    H238285   0.662   0.252   6.440 -1.2440  0.7027 -1.5547
 5576TIP3   OH238286   3.888   0.454   0.308  0.5155 -0.7526  0.2459
 5576TIP3    H138287   3.855   0.537   0.343  0.3019 -0.1238 -1.3931
 5576TIP3    H238288   3.968   0.437   0.358  0.1469  0.0289  1.1303
 5577TIP3   OH238289   5.912   0.033   7.918 -0.1836 -0.3177  0.2024
 5577TIP3    H138290   5.860   0.076   7.986  0.4851  0.0669  0.4757
 5577TIP3    H238291   5.877  -0.056   7.914 -2.3645  0.4952 -1.1454
 5578TIP3   OH238292   6.415   3.534   0.660 -0.3264  0.1588 -0.0121
 5578TIP3    H138293   6.463   3.465   0.706 -0.1565  1.2850  1.6061
 5578TIP3    H238294   6.391   3.496   0.576  1.1293 -1.3159  0.2044
 5579TIP3   OH238295   6.279   5.769   0.048 -0.3747 -0.4440 -0.5071
 5579TIP3    H138296   6.215   5.779  -0.022  0.9104  1.2682 -1.5057
 5579TIP3    H238297   6.266   5.845   0.104 -0.2417 -0.9002  0.1615
 5580TIP3   OH238298   5.214   1.749   0.049 -0.3835  0.0380  0.3209
 5580TIP3    H138299   5.187   1.836   0.017 -4.5290 -1.0667  0.2437
 5580TIP3    H238300   5.226   1.761   0.143  0.6282  0.9628  0.0997
 5581TIP3   OH238301   5.059   2.865   0.345  0.1846 -0.0997  0.4100
 5581TIP3    H138302   5.111   2.876   0.265 -0.5937 -3.0188 -0.5854
 5581TIP3    H238303   5.124   2.866   0.416  0.8924  2.4333 -0.1704
 5582TIP3   OH238304   6.533   5.698   0.119 -0.2644 -0.5819  0.4807
 5582TIP3    H138305   6.464   5.717   0.056  1.0631 -0.0636 -0.8858
 5582TIP3    H238306   6.549   5.782   0.163 -0.5547 -0.7301  0.8843
 5583TIP3   OH238307   0.821   6.687   1.431 -0.0008 -0.1824  0.0379
 5583TIP3    H138308   0.866   6.603   1.429 -2.1568 -1.4266  0.1620
 5583TIP3    H238309   0.809   6.710   1.339  1.3520  0.4684  0.0010
 5584TIP3   OH238310   3.845   3.107   0.999  0.0478  0.0973  0.4028
 5584TIP3    H138311   3.773   3.126   0.939  0.4155  3.6412  0.8491
 5584TIP3    H238312   3.891   3.190   1.007  2.2352 -1.2117  2.7325
 5585TIP3   OH238313   5.655   3.512   7.587  0.2449  0.1329 -0.0404
 5585TIP3    H138314   5.666   3.503   7.681  0.2713 -1.6975 -0.1762
 5585TIP3    H238315   5.562   3.496   7.572  0.4139 -0.5665 -0.3985
 5586TIP3   OH238316   3.289   3.613   7.313  0.0885 -0.0359  0.3733
 5586TIP3    H138317   3.371   3.623   7.360  0.4885 -0.8868 -0.1061
 5586TIP3    H238318   3.307   3.543   7.250 -1.1835 -0.6505  0.6711
 5587TIP3   OH238319   2.782   4.489   0.188 -0.0623  0.1554  0.2338
 5587TIP3    H138320   2.722   4.542   0.240 -2.0658 -1.6421 -0.1259
 5587TIP3    H238321   2.785   4.405   0.234  1.5500 -0.0760 -0.2336
 5588TIP3   OH238322   5.794   4.190   6.250  0.1218 -0.2749  0.1336
 5588TIP3    H138323   5.859   4.257   6.267  0.4020  0.2479 -2.5656
 5588TIP3    H238324   5.711   4.229   6.279  0.4954  0.6189  0.0219
 5589TIP3   OH238325   5.426   0.715   0.527  0.1358 -0.1406 -0.5089
 5589TIP3    H138326   5.360   0.649   0.508  0.4325 -0.3031 -1.0091
 5589TIP3    H238327   5.382   0.799   0.515 -0.5179 -0.2242  1.0878
 5590TIP3   OH238328   6.964   5.883   7.375  0.2174  0.2393  0.1524
 5590TIP3    H138329   6.974   5.817   7.306 -0.3762  0.5306 -0.2231
 5590TIP3    H238330   6.870   5.896   7.382  0.2895  0.3994  0.8508
 5591TIP3   OH238331   1.751   4.507   0.256 -0.0144  0.4445 -0.2281
 5591TIP3    H138332   1.813   4.580   0.259 -1.6623  1.8474  1.2796
 5591TIP3    H238333   1.749   4.473   0.345 -1.4302  0.4572 -0.2307
 5592TIP3   OH238334   1.593   3.129   0.892  0.8729 -0.0491  0.3333
 5592TIP3    H138335   1.535   3.155   0.963 -0.0779 -1.0608 -0.0445
 5592TIP3    H238336   1.674   3.102   0.935  1.3544  2.0593  0.8175
 5593TIP3   OH238337   3.488   6.460   6.973  0.2096 -0.2082 -0.0541
 5593TIP3    H138338   3.472   6.501   7.058  1.5292  0.1103  0.0552
 5593TIP3    H238339   3.402   6.425   6.947 -0.3112  0.0934  1.1845
 5594TIP3   OH238340   3.618   1.089   0.499  0.2713 -0.1664 -0.3895
 5594TIP3    H138341   3.554   1.154   0.528  1.8700  0.7756  1.2346
 5594TIP3    H238342   3.633   1.109   0.407 -1.2772 -0.0297 -0.6478
 5595TIP3   OH238343   0.450   2.099   6.512 -0.2091 -0.3286  0.2003
 5595TIP3    H138344   0.430   2.174   6.455  0.7269 -0.2468 -0.0358
 5595TIP3    H238345   0.398   2.115   6.591  0.4577  0.9211  0.4154
 5596TIP3   OH238346   1.714   1.112   1.393  0.5347  0.5623 -0.0045
 5596TIP3    H138347   1.705   1.018   1.406 -0.7565  0.2598 -2.3993
 5596TIP3    H238348   1.780   1.121   1.324  1.2761  1.4868  0.7934
 5597TIP3   OH238349   1.973   4.281   6.698  0.3920  0.1481  0.6261
 5597TIP3    H138350   2.053   4.262   6.748 -0.6423  0.3903  2.4749
 5597TIP3    H238351   1.944   4.195   6.667 -0.2997 -0.4069  2.6638
 5598TIP3   OH238352   0.865   2.005   0.000 -0.1146  0.4454 -0.2658
 5598TIP3    H138353   0.939   1.968  -0.047 -0.5814  2.8433 -3.1873
 5598TIP3    H238354   0.803   1.933   0.009  1.2859 -0.8309 -0.5428
 5599TIP3   OH238355   4.843   4.370   0.539  0.4709  0.1859  0.7390
 5599TIP3    H138356   4.911   4.432   0.565 -1.1159  1.2659  2.6285
 5599TIP3    H238357   4.824   4.321   0.619  1.5157 -2.6987 -0.6278
 5600TIP3   OH238358   1.955   3.402   6.606 -0.1202 -0.0815  0.4465
 5600TIP3    H138359   1.996   3.370   6.526  1.3977  1.2662  0.6088
 5600TIP3    H238360   1.975   3.335   6.672 -0.1746 -0.5328  0.0093
 5601TIP3   OH238361   4.109   2.556   7.382 -0.5545  0.2975  0.1965
 5601TIP3    H138362   4.124   2.650   7.385  0.9215  0.0611  2.4623
 5601TIP3    H238363   4.196   2.517   7.394 -1.0326 -1.3904 -1.2668
 5602TIP3   OH238364   2.308   5.502   7.697  0.1052  0.1128 -0.5047
 5602TIP3    H138365   2.341   5.423   7.740 -2.1100  0.4091  2.0207
 5602TIP3    H238366   2.383   5.537   7.649  1.3799 -3.0303 -1.0087
 5603TIP3   OH238367   0.487   1.696   7.742 -0.2920  0.9996  0.2926
 5603TIP3    H138368   0.393   1.692   7.762 -0.2866 -0.7681  0.1456
 5603TIP3    H238369   0.502   1.622   7.682  1.1156  1.5360 -0.0587
 5604TIP3   OH238370   5.657   2.140   6.283  0.1987 -0.5565 -0.7037
 5604TIP3    H138371   5.595   2.212   6.297  1.8259  0.9786 -0.9943
 5604TIP3    H238372   5.603   2.068   6.250 -1.1925  1.3758 -3.0409
 5605TIP3   OH238373   0.894   6.744   7.299  0.5051 -0.1845  0.3139
 5605TIP3    H138374   0.829   6.677   7.320 -1.9358  2.0912  0.5524
 5605TIP3    H238375   0.887   6.755   7.204  0.0790  0.4764  0.4163
 5606TIP3   OH238376   2.906   5.373   1.002 -0.2400 -0.7716 -0.5658
 5606TIP3    H138377   2.858   5.291   0.989  0.9383 -1.4219 -0.9722
 5606TIP3    H238378   2.866   5.413   1.079 -0.7082 -1.8168 -0.2570
 5607TIP3   OH238379   0.496   3.264   0.232 -0.0798 -0.0915  0.8039
 5607TIP3    H138380   0.408   3.297   0.216 -0.9512 -1.5901  2.1731
 5607TIP3    H238381   0.484   3.170   0.249  1.7581 -0.3100  1.1553
 5608TIP3   OH238382   7.054   4.704   6.401 -0.2396 -0.2247 -0.2735
 5608TIP3    H138383   7.132   4.723   6.349  1.5056 -0.3080  2.1305
 5608TIP3    H238384   7.071   4.618   6.439 -2.2100 -0.9059 -0.8409
 5609TIP3   OH238385   3.388   4.447   6.708  0.0018  0.3349 -0.1538
 5609TIP3    H138386   3.428   4.409   6.786 -0.0201  1.5345  0.4644
 5609TIP3    H238387   3.305   4.400   6.698  0.2209 -0.1483  0.2734
 5610TIP3   OH238388   0.296   6.446   0.252 -0.3055  0.0399 -0.2616
 5610TIP3    H138389   0.388   6.426   0.266 -0.0170  1.4283  0.0564
 5610TIP3    H238390   0.258   6.365   0.220  1.4387 -0.0545 -2.3190
 5611TIP3   OH238391   6.840   4.774   1.485  0.2311 -0.3275 -0.0923
 5611TIP3    H138392   6.768   4.794   1.425  0.1300  0.3430  0.2488
 5611TIP3    H238393   6.809   4.698   1.535 -0.0092 -0.3905 -0.3362
 5612TIP3   OH238394   0.786   0.557   0.318  0.4128 -0.0889  0.1034
 5612TIP3    H138395   0.760   0.540   0.408 -2.1120 -0.5489 -0.6152
 5612TIP3    H238396   0.879   0.535   0.315  0.7919  0.7869  2.7518
 5613TIP3   OH238397   6.936   3.231   5.566  0.2769  0.1233  0.4636
 5613TIP3    H138398   6.879   3.300   5.602  0.3088  1.1326 -1.2846
 5613TIP3    H238399   6.900   3.215   5.479  1.1269 -1.1053  0.3305
 5614TIP3   OH238400   4.256   4.429   7.708  0.3475  0.2200  0.5255
 5614TIP3    H138401   4.314   4.488   7.660  0.4978  0.0333  0.4781
 5614TIP3    H238402   4.168   4.453   7.678  0.3908  0.5838  0.6884
 5615TIP3   OH238403   3.861   6.501   0.729 -0.5885 -0.3747  0.3663
 5615TIP3    H138404   3.868   6.555   0.808  0.7470 -1.1005  0.7766
 5615TIP3    H238405   3.902   6.418   0.753  0.4286 -0.4045 -1.2723
 5616TIP3   OH238406   6.940   6.711   7.085 -0.2218  0.2172  0.1074
 5616TIP3    H138407   6.907   6.639   7.140 -0.8076  0.7558  0.4753
 5616TIP3    H238408   6.916   6.685   6.996 -4.5977  1.9828  0.5440
 5617TIP3   OH238409   4.693   5.978   7.172  0.4666  0.0468 -0.0987
 5617TIP3    H138410   4.652   6.002   7.089 -0.7331 -0.0503  0.4403
 5617TIP3    H238411   4.633   6.011   7.239  1.0815 -0.4453  0.7222
 5618TIP3   OH238412   6.312   6.607   0.831  0.4537  0.7496 -0.1501
 5618TIP3    H138413   6.218   6.625   0.830  0.3213  0.3083  1.6666
 5618TIP3    H238414   6.352   6.688   0.861  0.5959  0.7127 -0.2397
 5619TIP3   OH238415   5.637   6.507   0.209  0.1684  0.0652 -0.4384
 5619TIP3    H138416   5.732   6.495   0.203  0.5253  1.8658  0.8443
 5619TIP3    H238417   5.625   6.602   0.215 -1.6756 -0.1577 -0.0691
 5620TIP3   OH238418   3.983   5.126   1.499 -0.0152 -0.3365  0.6393
 5620TIP3    H138419   3.931   5.051   1.527 -1.2432  0.1461 -0.2621
 5620TIP3    H238420   3.981   5.187   1.573 -0.3961 -0.4949  0.7573
 5621TIP3   OH238421   1.797   2.253   6.693  0.6018 -0.5075 -0.3413
 5621TIP3    H138422   1.734   2.207   6.748  0.1115 -0.6965 -1.0497
 5621TIP3    H238423   1.863   2.187   6.671  2.3483  0.1943  2.2203
 5622TIP3   OH238424   1.923   5.303   2.175 -0.2478  0.7452  0.3155
 5622TIP3    H138425   1.985   5.230   2.167 -2.0152 -0.7646 -0.2765
 5622TIP3    H238426   1.974   5.373   2.215  2.1100 -0.0761 -1.0212
 5623TIP3   OH238427   5.140   0.704   7.661 -0.4407  0.0721  0.4081
 5623TIP3    H138428   5.183   0.772   7.610  1.2498 -0.0599  1.5508
 5623TIP3    H238429   5.091   0.653   7.597  2.3408 -0.6883 -1.3070
 5624TIP3   OH238430   0.521   3.573   0.740 -0.4207 -0.7613 -0.5827
 5624TIP3    H138431   0.427   3.593   0.736 -0.5209 -1.2752 -0.9865
 5624TIP3    H238432   0.533   3.503   0.676 -0.0567 -1.8476  0.6251
 5625TIP3   OH238433   0.189   0.315   7.649 -0.4150  0.3643  0.0482
 5625TIP3    H138434   0.244   0.380   7.603 -2.1476  1.9630  0.1104
 5625TIP3    H238435   0.121   0.368   7.690 -0.9993 -1.4035  1.4261
 5626TIP3   OH238436   5.250   0.878   0.712 -0.1310 -0.5139  0.7429
 5626TIP3    H138437   5.199   0.940   0.764 -2.2294 -1.8614  0.4298
 5626TIP3    H238438   5.235   0.906   0.621 -1.2346 -1.5225  0.5909
 5627TIP3   OH238439   2.060   1.236   1.034  0.3783 -0.3043  0.3769
 5627TIP3    H138440   2.112   1.200   0.963  0.7464 -1.7460  1.3446
 5627TIP3    H238441   2.120   1.296   1.079  0.1450  0.6112 -0.4748
 5628TIP3   OH238442   0.904   0.365   1.746 -0.3552 -0.1412  0.0098
 5628TIP3    H138443   0.936   0.275   1.749 -0.0810 -0.0397  0.1416
 5628TIP3    H238444   0.912   0.396   1.836  0.0294  0.1834 -0.1361
 5629TIP3   OH238445   1.331   2.276   1.198 -0.5464  0.0145 -0.2628
 5629TIP3    H138446   1.308   2.214   1.129  0.1254 -2.0523  1.2535
 5629TIP3    H238447   1.258   2.271   1.260  1.2522 -2.4280  1.8552
 5630TIP3   OH238448   2.925   0.404   7.207 -0.3589 -0.8208  0.5557
 5630TIP3    H138449   2.931   0.418   7.301 -0.2662 -0.9751  0.5724
 5630TIP3    H238450   2.999   0.347   7.186  0.5561  0.4400  0.1635
 5631TIP3   OH238451   5.390   3.442   6.277  0.1822  0.2155 -0.3122
 5631TIP3    H138452   5.351   3.382   6.213  0.3541 -2.2468  1.7508
 5631TIP3    H238453   5.320   3.505   6.295 -1.8409 -2.2183  0.9411
 5632TIP3   OH238454   4.468   3.326   7.320 -0.2456 -0.0482 -0.3429
 5632TIP3    H138455   4.383   3.334   7.276  0.0610  0.9022 -0.7938
 5632TIP3    H238456   4.511   3.410   7.305  0.1861  0.0259  1.1392
 5633TIP3   OH238457   3.908   2.386   7.888 -0.0348  0.2710 -0.3321
 5633TIP3    H138458   3.874   2.475   7.880 -0.2190  0.2956  0.6009
 5633TIP3    H238459   3.911   2.354   7.798  1.8180  1.8621 -0.8982
 5634TIP3   OH238460   0.962   2.236   7.682  0.6203  0.0809 -0.6092
 5634TIP3    H138461   0.889   2.287   7.717 -0.1744 -1.3320 -0.1183
 5634TIP3    H238462   1.026   2.233   7.754 -0.0588 -0.9826 -0.0266
 5635TIP3   OH238463   7.023   2.271   5.965  0.2752  0.3999  0.5985
 5635TIP3    H138464   6.988   2.191   5.925  0.0992  0.8611 -0.1887
 5635TIP3    H238465   6.987   2.342   5.913  0.2614  1.0163  1.4227
 5636TIP3   OH238466   0.665   3.219   1.265 -0.0459  0.2595 -0.7925
 5636TIP3    H138467   0.620   3.144   1.304 -0.6595  0.9308 -0.1714
 5636TIP3    H238468   0.629   3.225   1.176 -1.0630  0.6734 -0.3643
 5637TIP3   OH238469   0.695   2.002   0.574  0.1155  0.0072  0.5824
 5637TIP3    H138470   0.602   1.981   0.569  0.4020 -1.2775  0.0729
 5637TIP3    H238471   0.698   2.096   0.590 -1.2813 -0.1435  1.9547
 5638TIP3   OH238472   2.909   0.149   5.382 -0.8478 -1.1780  0.0792
 5638TIP3    H138473   2.968   0.207   5.431 -0.5666 -0.7511 -0.7463
 5638TIP3    H238474   2.916   0.065   5.427 -1.3604 -0.5564  1.3807
 5639TIP3   OH238475   1.086   1.472   0.852 -0.0903  0.1858 -0.0822
 5639TIP3    H138476   1.109   1.512   0.936 -1.9314  1.7605 -0.2575
 5639TIP3    H238477   1.158   1.495   0.794 -0.2943  1.8545  0.2787
 5640TIP3   OH238478   6.739   0.225   6.680  0.1411 -0.1068  0.2035
 5640TIP3    H138479   6.689   0.192   6.755  0.8175  0.0005  0.7105
 5640TIP3    H238480   6.825   0.184   6.689  0.5985  0.8215  0.1476
 5641TIP3   OH238481   0.234   2.764   7.631  0.5976 -0.2860 -0.0150
 5641TIP3    H138482   0.272   2.837   7.580  0.3691  0.7780  1.2857
 5641TIP3    H238483   0.163   2.731   7.576 -0.3064  1.5037  0.0068
 5642TIP3   OH238484   3.776   2.358   0.955 -0.4845  0.0540  0.6535
 5642TIP3    H138485   3.754   2.343   0.863 -2.5502 -1.1286  1.2736
 5642TIP3    H238486   3.840   2.429   0.953 -1.2045  0.7327 -1.6285
 5643TIP3   OH238487   0.953   0.276   1.132 -0.8821 -0.0212  0.2998
 5643TIP3    H138488   1.000   0.259   1.213 -1.1557 -0.0845  0.4480
 5643TIP3    H238489   0.860   0.273   1.157 -1.0639 -2.1844 -0.3905
 5644TIP3   OH238490   1.615   1.878   0.321 -0.2328  0.3813  0.1826
 5644TIP3    H138491   1.624   1.874   0.226 -1.6469  0.1657  0.0455
 5644TIP3    H238492   1.525   1.905   0.336 -0.9511 -2.3704  1.4635
 5645TIP3   OH238493   2.347   4.522   1.933  0.0631  0.1280  1.3885
 5645TIP3    H138494   2.431   4.490   1.900  0.1477  0.4099  1.3282
 5645TIP3    H238495   2.284   4.454   1.907  0.0293  0.6160  0.1232
 5646TIP3   OH238496   4.117   3.621   1.038  0.1184 -0.0101 -0.2291
 5646TIP3    H138497   4.119   3.658   1.126 -0.5623  0.8560 -0.5757
 5646TIP3    H238498   4.196   3.655   0.996  1.3438 -1.7469  0.5511
 5647TIP3   OH238499   2.247   6.403   7.319  0.0748  0.2774  0.4683
 5647TIP3    H138500   2.170   6.357   7.352  0.6627 -0.2815  1.0899
 5647TIP3    H238501   2.212   6.484   7.283 -0.9165 -0.3831 -0.1202
 5648TIP3   OH238502   4.976   0.184   0.572 -0.3621  0.0546  0.1165
 5648TIP3    H138503   5.063   0.157   0.540 -0.8290  0.7595 -1.9418
 5648TIP3    H238504   4.989   0.273   0.604 -0.6113  0.8575 -1.8672
 5649TIP3   OH238505   1.500   3.051   1.802 -0.8156 -0.2653 -0.2622
 5649TIP3    H138506   1.500   3.103   1.882 -0.7178  0.1139 -0.5100
 5649TIP3    H238507   1.469   2.964   1.831  0.4002 -0.4973  0.4138
 5650TIP3   OH238508   1.239   7.142   1.391  0.1366 -0.0340  0.1622
 5650TIP3    H138509   1.192   7.089   1.326 -0.6668  2.2149 -1.2288
 5650TIP3    H238510   1.331   7.130   1.368 -0.0406 -0.6288 -0.2869
 5651TIP3   OH238511   6.833   5.250   0.284 -0.0788  0.3248 -0.5105
 5651TIP3    H138512   6.845   5.330   0.233 -0.7841 -0.2653 -1.6723
 5651TIP3    H238513   6.795   5.188   0.221 -1.6721 -0.2307  0.9199
 5652TIP3   OH238514   5.804   1.799   1.719 -0.3181  0.1968  0.1182
 5652TIP3    H138515   5.868   1.779   1.788  1.8823  0.6256 -1.6489
 5652TIP3    H238516   5.770   1.714   1.692 -1.1258  0.0180  1.6196
 5653TIP3   OH238517   0.715   0.343   7.999 -0.2212 -0.4561 -0.3486
 5653TIP3    H138518   0.804   0.375   8.015  0.3832 -0.5034 -3.0987
 5653TIP3    H238519   0.718   0.250   8.020 -0.1362 -0.1082  1.2605
 5654TIP3   OH238520   5.028   2.528   6.827  0.5125 -0.0481 -0.3479
 5654TIP3    H138521   5.078   2.575   6.894 -0.5945  2.5933 -1.2506
 5654TIP3    H238522   5.095   2.494   6.767  1.3792  0.4492  0.3100
 5655TIP3   OH238523   6.227   6.721   7.185 -0.5123  0.2334  0.4044
 5655TIP3    H138524   6.147   6.679   7.156 -0.5160  0.4515  0.0988
 5655TIP3    H238525   6.270   6.751   7.105 -2.0207  3.6082  0.6629
 5656TIP3   OH238526   1.499   3.639   7.351  0.0066 -0.3526  0.2893
 5656TIP3    H138527   1.498   3.595   7.265  0.7087 -3.1642  1.6129
 5656TIP3    H238528   1.412   3.622   7.387  0.8683 -2.3389  1.5523
 5657TIP3   OH238529   1.221   3.318   0.690 -0.0160 -0.2877 -0.1569
 5657TIP3    H138530   1.224   3.412   0.708  1.1103 -0.3261 -0.0591
 5657TIP3    H238531   1.231   3.278   0.777 -0.8111 -0.4997 -0.1617
 5658TIP3   OH238532   1.103   4.793   0.438  0.0199  0.5191  0.9520
 5658TIP3    H138533   1.063   4.781   0.351  1.2204  0.3048  0.4185
 5658TIP3    H238534   1.079   4.714   0.486 -0.3912  0.4991  0.7177
 5659TIP3   OH238535   4.195   6.159   0.296  0.3402  0.1628  0.2281
 5659TIP3    H138536   4.147   6.241   0.282  1.2205  0.6641  0.0482
 5659TIP3    H238537   4.275   6.169   0.245 -0.0854 -1.3320 -0.8061
 5660TIP3   OH238538   4.653   1.947   6.490 -0.5895  0.0923 -0.3123
 5660TIP3    H138539   4.599   2.021   6.462  0.9023  1.0854 -0.6826
 5660TIP3    H238540   4.607   1.910   6.565 -1.4720  1.2780 -0.2422
 5661TIP3   OH238541   7.066   4.479   1.227 -0.0356 -0.6184  0.0383
 5661TIP3    H138542   7.110   4.408   1.273 -1.8451 -0.0837  2.7650
 5661TIP3    H238543   7.071   4.553   1.287 -0.4047  0.8825 -1.6816
 5662TIP3   OH238544   3.673   0.038   1.867 -0.3943  0.5589  0.3265
 5662TIP3    H138545   3.608   0.106   1.850 -0.0151  0.4995 -1.6898
 5662TIP3    H238546   3.689   0.042   1.961 -3.6299  0.2598  1.0234
 5663TIP3   OH238547   5.858   2.475   0.789 -0.2527 -0.0768  0.4121
 5663TIP3    H138548   5.880   2.443   0.876  0.8704 -0.9116 -0.1492
 5663TIP3    H238549   5.782   2.424   0.762 -2.7538  2.4224  2.1357
 5664TIP3   OH238550   2.997   4.488   6.613  0.0107  0.4003  0.2020
 5664TIP3    H138551   2.982   4.570   6.659 -0.2646  1.8289 -2.2697
 5664TIP3    H238552   3.036   4.513   6.529  1.6940 -2.1440  0.1002
 5665TIP3   OH238553   7.050   5.418   7.699  0.1680  0.0062  0.0477
 5665TIP3    H138554   7.096   5.466   7.630 -0.6020  1.2956  0.3910
 5665TIP3    H238555   7.092   5.445   7.780 -0.4804  0.3771  0.2714
 5666TIP3   OH238556   2.492   3.594   7.725  0.2525 -0.4879 -0.5516
 5666TIP3    H138557   2.423   3.658   7.705 -0.1011 -0.4227  0.8260
 5666TIP3    H238558   2.533   3.627   7.804  0.6881 -1.4808 -0.3520
 5667TIP3   OH238559   0.144   4.128   1.094  0.1558  0.0427 -0.4406
 5667TIP3    H138560   0.237   4.104   1.100 -0.2354 -1.8512 -1.3677
 5667TIP3    H238561   0.097   4.050   1.122 -1.1824  0.6419 -0.9267
 5668TIP3   OH238562   5.140   0.985   1.189 -0.2359 -0.4066 -0.2909
 5668TIP3    H138563   5.089   1.057   1.226 -0.8212 -0.5275 -0.8477
 5668TIP3    H238564   5.150   0.923   1.262 -1.2117 -0.5554 -0.2713
 5669TIP3   OH238565   5.241   5.422   6.758 -0.0889  0.1497 -0.6329
 5669TIP3    H138566   5.159   5.471   6.748 -0.8713 -1.2580 -1.3958
 5669TIP3    H238567   5.253   5.379   6.673 -0.1802 -2.0790  0.4376
 5670TIP3   OH238568   6.844   7.047   1.282  0.2117 -0.1372 -0.6136
 5670TIP3    H138569   6.759   7.006   1.295 -0.3476  0.2201 -2.7328
 5670TIP3    H238570   6.908   6.979   1.306 -0.6807 -1.0141 -0.6685
 5671TIP3   OH238571   3.141   3.065   7.828 -0.7633 -0.2398 -0.2091
 5671TIP3    H138572   3.093   3.005   7.885 -2.4768  1.0812 -0.1785
 5671TIP3    H238573   3.159   3.141   7.882  1.2740 -0.6085 -0.2857
 5672TIP3   OH238574   5.306   5.136   2.204  0.5383 -0.5490 -0.0804
 5672TIP3    H138575   5.314   5.088   2.122 -0.5912  0.6386 -0.9465
 5672TIP3    H238576   5.392   5.176   2.218  0.9245 -1.2831 -0.3404
 5673TIP3   OH238577   0.975   2.536   7.587 -0.0433  0.1627 -0.0247
 5673TIP3    H138578   0.973   2.626   7.554 -1.8705 -0.5369 -2.0039
 5673TIP3    H238579   0.897   2.529   7.642  0.4135 -0.0643  0.6082
 5674TIP3   OH238580   4.246   2.434   1.081 -0.0130 -0.2990 -0.3730
 5674TIP3    H138581   4.224   2.347   1.048  2.5803 -0.5995 -1.5139
 5674TIP3    H238582   4.340   2.442   1.068 -0.3178  3.1522 -1.4515
 5675TIP3   OH238583   2.390   2.733   1.799 -0.0067  0.0469 -0.3667
 5675TIP3    H138584   2.453   2.803   1.782 -2.0624  1.8438 -0.9799
 5675TIP3    H238585   2.370   2.742   1.893 -2.5180  2.4120 -1.0017
 5676TIP3   OH238586   4.457   0.471   6.831  0.7022  0.1410  0.0564
 5676TIP3    H138587   4.399   0.546   6.837 -0.4668 -0.8326  1.7125
 5676TIP3    H238588   4.411   0.409   6.774  0.0130 -0.6561  1.4186
 5677TIP3   OH238589   2.668   4.254   0.856  0.0417  0.2696 -0.3650
 5677TIP3    H138590   2.720   4.238   0.777  0.1322  1.6055 -0.5941
 5677TIP3    H238591   2.733   4.274   0.924 -0.0003 -1.3915  0.2133
 5678TIP3   OH238592   4.472   5.530   0.129  0.9012  0.1426  0.1490
 5678TIP3    H138593   4.429   5.514   0.213  1.3056 -0.6278  0.2177
 5678TIP3    H238594   4.545   5.469   0.128  0.9677  0.2286 -0.7159
 5679TIP3   OH238595   5.039   4.312   0.956 -0.1504  0.1915 -0.0828
 5679TIP3    H138596   5.132   4.331   0.968 -0.0340  0.9096 -1.8535
 5679TIP3    H238597   5.002   4.316   1.045  1.9725 -3.0389  1.1358
 5680TIP3   OH238598   5.929   5.000   7.159  0.2704 -0.4300  0.4264
 5680TIP3    H138599   5.930   4.905   7.148  0.9944 -0.3842  0.0820
 5680TIP3    H238600   5.982   5.016   7.237  0.4283 -0.2782  0.2872
 5681TIP3   OH238601   2.133   4.957   1.047 -0.2584 -0.1762  0.1811
 5681TIP3    H138602   2.073   5.029   1.065  0.6519  0.3239  1.3705
 5681TIP3    H238603   2.209   4.975   1.102  0.5875 -1.2935 -0.5809
 5682TIP3   OH238604   0.880   1.438   6.070  0.7680 -0.0155  0.1169
 5682TIP3    H138605   0.903   1.468   5.982 -1.1194 -1.2804 -0.8865
 5682TIP3    H238606   0.933   1.491   6.129  1.6633  1.2614 -1.7656
 5683TIP3   OH238607   5.892   6.260   0.686  0.0833 -0.5722 -0.6654
 5683TIP3    H138608   5.864   6.314   0.760 -2.9261 -1.3937 -1.0994
 5683TIP3    H238609   5.988   6.260   0.692  0.0441  1.5200  1.6511
 5684TIP3   OH238610   2.557   5.194   1.442 -0.7022  0.7757 -0.4164
 5684TIP3    H138611   2.590   5.271   1.490 -2.2638  1.0343  0.2821
 5684TIP3    H238612   2.498   5.151   1.503  2.3218 -2.7620  0.3755
 5685TIP3   OH238613   1.808   3.449   7.743  0.0060 -0.1923 -0.3959
 5685TIP3    H138614   1.832   3.541   7.732 -1.6523  0.6197  2.0034
 5685TIP3    H238615   1.754   3.447   7.822 -0.4737 -3.1694 -0.6692
 5686TIP3   OH238616   3.812   0.387   5.950  0.4275  0.5639  0.0989
 5686TIP3    H138617   3.768   0.393   6.035  1.3529 -1.3498  0.7626
 5686TIP3    H238618   3.879   0.320   5.962  0.6746  0.3414 -2.1130
 5687TIP3   OH238619   2.817   1.404   7.355  0.7001 -0.3207  0.3288
 5687TIP3    H138620   2.847   1.351   7.429 -0.0746  1.6204  2.1453
 5687TIP3    H238621   2.724   1.419   7.372  0.5876  0.4485 -0.8602
 5688TIP3   OH238622   6.455   2.933   6.175  0.2215 -0.7009 -0.1532
 5688TIP3    H138623   6.456   2.890   6.090 -1.2104  1.1693 -1.1899
 5688TIP3    H238624   6.421   2.867   6.235  0.1449 -1.6740 -1.2362
 5689TIP3   OH238625   0.137   5.762   1.619  0.3054  0.3987 -0.3478
 5689TIP3    H138626   0.103   5.710   1.547  1.9023 -1.0132 -0.1297
 5689TIP3    H238627   0.232   5.754   1.613  0.4924  0.1479  1.9603
 5690TIP3   OH238628   6.628   5.127   6.686 -0.6010  0.2868  0.3144
 5690TIP3    H138629   6.537   5.116   6.714 -1.2969 -0.0966 -1.8805
 5690TIP3    H238630   6.621   5.176   6.604  1.1886  0.3246  0.1614
 5691TIP3   OH238631   3.882   2.505   6.781  0.2475  0.7784 -0.0878
 5691TIP3    H138632   3.977   2.513   6.787  0.3696 -1.4086  2.1529
 5691TIP3    H238633   3.866   2.485   6.688  2.0155  0.5073 -0.3790
 5692TIP3   OH238634   3.644   5.917   0.989 -0.1352  0.1145 -0.0525
 5692TIP3    H138635   3.554   5.950   0.990 -0.5371 -0.4317 -3.9354
 5692TIP3    H238636   3.637   5.827   1.019 -0.2011  1.0467  3.1048
 5693TIP3   OH238637   2.656   2.698   6.432  0.1719 -0.5442 -0.0935
 5693TIP3    H138638   2.740   2.740   6.414  0.4464 -0.9440  0.2087
 5693TIP3    H238639   2.658   2.618   6.379 -0.8059  0.3287 -1.5099
 5694TIP3   OH238640   0.950   5.270   7.081 -0.1403 -0.7303 -0.3774
 5694TIP3    H138641   0.903   5.332   7.136 -1.2598  0.3115 -2.4100
 5694TIP3    H238642   1.040   5.303   7.080 -0.6500  0.7377 -1.1598
 5695TIP3   OH238643   4.846   3.890   1.110 -0.1263 -0.0389 -0.0097
 5695TIP3    H138644   4.900   3.957   1.068  0.4459  0.6568  1.7308
 5695TIP3    H238645   4.906   3.847   1.171 -0.8141 -1.2984 -0.2017
 5696TIP3   OH238646   4.461   4.538   7.533 -0.3459 -0.2874 -0.4763
 5696TIP3    H138647   4.550   4.563   7.506 -1.1191  1.0397 -1.9398
 5696TIP3    H238648   4.454   4.445   7.512  0.3597 -0.1613 -1.2927
 5697TIP3   OH238649   4.425   3.873   0.333 -0.1998 -0.2895  0.3114
 5697TIP3    H138650   4.445   3.957   0.292 -2.0080  0.2166  0.3908
 5697TIP3    H238651   4.420   3.811   0.260 -0.3391 -0.0323  0.1044
 5698TIP3   OH238652   2.321   7.132   0.595 -0.3421  0.2502 -0.7014
 5698TIP3    H138653   2.319   7.113   0.502  2.0402 -0.8677 -0.5971
 5698TIP3    H238654   2.352   7.051   0.636 -2.7742  0.1953  1.2755
 5699TIP3   OH238655   3.239   4.686   2.026  0.0251  0.3358 -0.2330
 5699TIP3    H138656   3.271   4.612   2.078 -0.3350 -0.2680 -0.8592
 5699TIP3    H238657   3.251   4.762   2.083 -1.2646 -0.4279  1.1261
 5700TIP3   OH238658   2.875   4.294   1.040 -0.2595 -0.1755 -0.0673
 5700TIP3    H138659   2.969   4.279   1.033  0.0710  2.1163 -1.9372
 5700TIP3    H238660   2.864   4.340   1.123  0.2846 -0.3913  0.1238
 5701TIP3   OH238661   3.882   3.391   2.080 -0.1611 -0.2161 -0.3017
 5701TIP3    H138662   3.905   3.337   2.155  0.5485  1.7099  0.9273
 5701TIP3    H238663   3.803   3.350   2.045 -0.2858 -1.3921  1.2320
 5702TIP3   OH238664   6.702   0.269   1.389 -0.5693  0.2296  0.3238
 5702TIP3    H138665   6.716   0.314   1.472  0.8053  2.9141 -1.2441
 5702TIP3    H238666   6.666   0.336   1.331 -0.2537 -1.2043 -1.6166
 5703TIP3   OH238667   2.864   6.192   1.439 -0.5583  0.1473  0.1281
 5703TIP3    H138668   2.801   6.136   1.394 -1.3825  0.8709  0.3666
 5703TIP3    H238669   2.879   6.265   1.379 -0.6519  0.4419  0.4563
 5704TIP3   OH238670   3.221   2.613   0.075  0.2830 -0.3946 -0.1496
 5704TIP3    H138671   3.255   2.697   0.105 -1.1067 -0.5630  2.0963
 5704TIP3    H238672   3.288   2.581   0.014  1.3562  1.8120 -0.2311
 5705TIP3   OH238673   0.578   4.331   1.104  0.0867  0.7481  0.3473
 5705TIP3    H138674   0.563   4.239   1.126 -1.0238  1.1421  1.3018
 5705TIP3    H238675   0.596   4.330   1.009  0.0343 -0.4354  0.3335
 5706TIP3   OH238676   3.131   5.350   1.129 -0.1693 -0.5848  0.0797
 5706TIP3    H138677   3.051   5.360   1.077 -1.5182  0.8266  2.2953
 5706TIP3    H238678   3.120   5.267   1.174  0.3254 -1.0836 -0.6764
 5707TIP3   OH238679   3.518   0.999   7.337 -0.0592  0.3293  0.0047
 5707TIP3    H138680   3.546   0.942   7.265 -0.8556 -0.3177  0.1917
 5707TIP3    H238681   3.491   0.939   7.406  0.2260  0.9488  0.6703
 5708TIP3   OH238682   4.644   2.299   7.914 -0.1217  0.0228 -0.3378
 5708TIP3    H138683   4.702   2.289   7.838  2.2179 -0.3305  1.3720
 5708TIP3    H238684   4.652   2.391   7.939 -1.9934  0.4924 -1.2707
 5709TIP3   OH238685   4.422   2.796   6.653 -0.0661  0.2860  0.0814
 5709TIP3    H138686   4.396   2.720   6.704 -0.3116  0.0071 -0.4474
 5709TIP3    H238687   4.340   2.830   6.617  0.0696  0.6551  0.1221
 5710TIP3   OH238688   1.474   5.433   0.894 -0.6495  0.0347 -0.7735
 5710TIP3    H138689   1.424   5.400   0.969 -1.1876  0.1513 -1.0694
 5710TIP3    H238690   1.446   5.378   0.821 -0.7670  0.4628 -1.0568
 5711TIP3   OH238691   4.350   1.110   1.350 -0.0578  0.2292 -0.1204
 5711TIP3    H138692   4.376   1.186   1.402 -1.0105  1.1476 -0.9565
 5711TIP3    H238693   4.364   1.035   1.409  2.1456  0.8756  0.2710
 5712TIP3   OH238694   6.579   3.438   5.807 -0.3156  0.0178 -0.0352
 5712TIP3    H138695   6.523   3.366   5.779  0.5589 -0.4879 -0.5180
 5712TIP3    H238696   6.524   3.516   5.797 -1.8924 -0.7216  2.2088
 5713TIP3   OH238697   1.722   2.778   6.599 -0.2285 -1.0465  0.6003
 5713TIP3    H138698   1.646   2.803   6.650  1.4006  2.6775  1.5591
 5713TIP3    H238699   1.756   2.700   6.643 -1.2832 -0.4658  2.5649
 5714TIP3   OH238700   0.696   4.432   7.501  0.1006 -0.1657  0.0370
 5714TIP3    H138701   0.774   4.481   7.526 -0.9053  2.1949 -1.1193
 5714TIP3    H238702   0.623   4.483   7.537 -1.2151  1.3460 -4.1688
 5715TIP3   OH238703   6.358   0.483   1.385  0.1520  0.0464  0.4089
 5715TIP3    H138704   6.437   0.536   1.390 -0.0953  0.4251  0.3548
 5715TIP3    H238705   6.389   0.396   1.357  0.5703  0.1304  0.6006
 5716TIP3   OH238706   1.717   5.022   0.859 -0.3552 -0.2381  0.7170
 5716TIP3    H138707   1.706   5.030   0.954  0.6018 -0.3351  0.8489
 5716TIP3    H238708   1.733   5.111   0.829 -0.9233 -0.1725  0.6080
 5717TIP3   OH238709   2.479   4.854   0.499  0.3413 -0.2344 -0.5530
 5717TIP3    H138710   2.464   4.867   0.405 -0.7604  0.3170 -0.3117
 5717TIP3    H238711   2.522   4.935   0.527 -0.2305  0.0233 -0.4006
 5718TIP3   OH238712   4.458   5.150   8.031  0.6975  0.2229 -0.2753
 5718TIP3    H138713   4.402   5.176   8.105 -1.0144 -1.3026 -0.9606
 5718TIP3    H238714   4.534   5.109   8.072  0.7721  1.2335  0.6550
 5719TIP3   OH238715   6.965   5.297   1.111  0.0470 -0.4666 -0.1869
 5719TIP3    H138716   6.999   5.343   1.035  0.4671 -1.3237 -0.5250
 5719TIP3    H238717   7.043   5.265   1.157 -0.2402 -1.0063 -0.0646
 5720TIP3   OH238718   2.273   4.149   0.151 -0.2796  0.6649 -0.2636
 5720TIP3    H138719   2.357   4.194   0.142  0.4553 -0.1396  2.0885
 5720TIP3    H238720   2.293   4.057   0.133 -0.1757  0.1430  2.2167
 5721TIP3   OH238721   1.403   0.030   0.298 -0.2129 -0.0959 -0.3224
 5721TIP3    H138722   1.416   0.074   0.382  0.4127 -0.4323 -0.2386
 5721TIP3    H238723   1.474  -0.034   0.293 -1.6400 -1.7590 -0.0077
 5722TIP3   OH238724   0.755   3.617   6.565  0.4495  0.1961 -0.6254
 5722TIP3    H138725   0.834   3.639   6.614  0.1516  1.4917 -0.6793
 5722TIP3    H238726   0.684   3.659   6.614 -0.0484  0.1178 -1.2603
 5723TIP3   OH238727   3.355   3.546   6.989  0.5943  0.3988 -0.0128
 5723TIP3    H138728   3.450   3.548   6.991  0.6585  0.9322 -1.6057
 5723TIP3    H238729   3.329   3.638   6.976 -0.1453  0.2742  0.4875
 5724TIP3   OH238730   4.258   6.039   1.069  0.0864 -0.2416 -0.2963
 5724TIP3    H138731   4.332   6.012   1.015  0.9746 -0.0706  0.7831
 5724TIP3    H238732   4.185   5.986   1.038  1.1163 -1.8253 -0.1430
 5725TIP3   OH238733   2.612   0.767   1.295  0.1668  0.1836 -0.2403
 5725TIP3    H138734   2.643   0.818   1.369  0.6517 -0.4511  0.0048
 5725TIP3    H238735   2.677   0.698   1.284 -0.6554 -0.6027 -0.3232
 5726TIP3   OH238736   7.146   3.732   0.623 -0.1166  0.6693  0.5209
 5726TIP3    H138737   7.147   3.818   0.581  0.1708  1.0036  1.1906
 5726TIP3    H238738   7.078   3.739   0.690  0.3057  0.5679  0.9643
 5727TIP3   OH238739   0.819   5.045   7.014  0.0667  0.5057 -0.0310
 5727TIP3    H138740   0.824   5.003   7.100  1.5003  0.5617 -0.0676
 5727TIP3    H238741   0.861   5.131   7.027 -0.2718  0.7718 -0.6435
 5728TIP3   OH238742   5.829   2.375   6.300  0.1067 -0.0110  0.5207
 5728TIP3    H138743   5.817   2.280   6.302  0.9126 -0.1216  0.2154
 5728TIP3    H238744   5.782   2.406   6.377 -0.8896 -0.5682  0.1554
 5729TIP3   OH238745   4.351   0.265   6.484 -0.7102 -0.5807 -0.6193
 5729TIP3    H138746   4.435   0.291   6.522 -1.9569  2.1912  0.5312
 5729TIP3    H238747   4.326   0.339   6.428 -4.0001  0.4791  1.9324
 5730TIP3   OH238748   2.132   3.735   7.897  0.1593  0.2788 -0.2680
 5730TIP3    H138749   2.041   3.734   7.867  0.5270 -1.2310 -1.5145
 5730TIP3    H238750   2.133   3.674   7.970 -0.1091  1.5229  0.8109
 5731TIP3   OH238751   5.392   4.421   7.014  0.2855 -0.1750  0.9507
 5731TIP3    H138752   5.482   4.434   6.984  0.0158  0.3618  0.3474
 5731TIP3    H238753   5.338   4.453   6.941 -0.4158 -2.5038  0.3483
 5732TIP3   OH238754   3.008   5.324   7.378 -0.3218  0.0972  0.2837
 5732TIP3    H138755   3.022   5.408   7.333 -1.5242  0.4341  0.5054
 5732TIP3    H238756   3.085   5.314   7.433  1.3094 -0.4222 -1.9550
 5733TIP3   OH238757   3.061   5.152   0.331  0.4885  0.3958 -0.1798
 5733TIP3    H138758   3.086   5.244   0.326 -0.4639  0.7698  1.3140
 5733TIP3    H238759   3.100   5.120   0.412  0.8620 -0.5613 -0.7080
 5734TIP3   OH238760   2.152   5.151   6.577  0.0171  0.1546  0.4964
 5734TIP3    H138761   2.088   5.172   6.644 -0.0216 -0.0851  0.5357
 5734TIP3    H238762   2.123   5.068   6.541 -1.6051  1.6301 -1.8310
 5735TIP3   OH238763   3.455   1.370   6.773 -0.0343  0.2064  0.6268
 5735TIP3    H138764   3.406   1.451   6.768  0.5157  0.4737 -1.2690
 5735TIP3    H238765   3.454   1.335   6.684 -1.1750 -2.4478  1.5723
 5736TIP3   OH238766   3.780   6.920   7.315  0.0981  0.3534  0.2261
 5736TIP3    H138767   3.876   6.930   7.313  0.1562 -0.2791 -1.0354
 5736TIP3    H238768   3.765   6.833   7.277 -1.0039  0.6680 -0.0751
 5737TIP3   OH238769   5.305   4.853   7.555 -0.6487 -0.4270  0.4886
 5737TIP3    H138770   5.351   4.849   7.470 -2.1216 -2.1195 -0.2849
 5737TIP3    H238771   5.261   4.938   7.554 -1.2129 -0.7146 -0.7703
 5738TIP3   OH238772   2.385   1.487   6.569  0.6542  0.0462 -0.0227
 5738TIP3    H138773   2.473   1.512   6.596  0.2679  0.9689  0.3977
 5738TIP3    H238774   2.330   1.506   6.645 -0.2177  1.3508 -0.9435
 5739TIP3   OH238775   6.125   3.421   0.111 -0.5968  0.0531  0.0779
 5739TIP3    H138776   6.102   3.497   0.164  0.2402 -0.3520  1.0814
 5739TIP3    H238777   6.093   3.346   0.162 -0.4792 -0.3143 -0.3784
 5740TIP3   OH238778   5.896   3.152   1.946  0.1462 -0.2270 -0.8579
 5740TIP3    H138779   5.924   3.225   2.002  1.0863 -1.2377  0.0219
 5740TIP3    H238780   5.806   3.135   1.972 -0.1647  0.7397 -1.2262
 5741TIP3   OH238781   1.439   1.419   1.784 -0.1014 -0.4954 -0.2815
 5741TIP3    H138782   1.498   1.343   1.776  2.2761  1.1653  0.3980
 5741TIP3    H238783   1.437   1.437   1.878 -3.1286 -1.4597 -0.0550
 5742TIP3   OH238784   2.666   2.389   1.020 -0.2697  0.5364 -0.1192
 5742TIP3    H138785   2.755   2.360   1.038 -0.4197  0.6799  0.9174
 5742TIP3    H238786   2.614   2.354   1.092 -1.3860 -1.0402 -1.5989
 5743TIP3   OH238787   4.277   5.342   0.965  0.1840  0.3106 -0.5726
 5743TIP3    H138788   4.297   5.335   0.872  1.7193 -2.8502 -0.1072
 5743TIP3    H238789   4.359   5.369   1.006 -0.1048  0.3253  0.0174
 5744TIP3   OH238790   2.326   5.603   5.858  0.4576  0.4728  0.9336
 5744TIP3    H138791   2.411   5.611   5.901  1.6036 -1.6686 -0.7427
 5744TIP3    H238792   2.330   5.519   5.812 -1.4738  1.6147 -1.5693
 5745TIP3   OH238793   0.315   0.530   0.791 -0.1270  0.4101  0.5723
 5745TIP3    H138794   0.271   0.483   0.861 -0.2046  0.8827  0.8432
 5745TIP3    H238795   0.373   0.592   0.835  1.1155 -0.4604  0.2279
 5746TIP3   OH238796   6.325   2.325   1.260 -0.0747  0.1094 -0.1968
 5746TIP3    H138797   6.240   2.360   1.234  0.8685  1.7127 -1.2962
 5746TIP3    H238798   6.379   2.333   1.181  0.6854 -2.3491 -0.0120
 5747TIP3   OH238799   7.066   1.737   1.730 -0.2139 -0.0174 -0.2366
 5747TIP3    H138800   7.069   1.642   1.744  0.5598  0.0171 -0.1213
 5747TIP3    H238801   6.980   1.763   1.763 -0.3499 -0.6491 -0.0734
 5748TIP3   OH238802   3.948   3.649   2.098 -0.5955  0.7141  0.5004
 5748TIP3    H138803   3.949   3.554   2.094  0.8466  0.5799  2.4646
 5748TIP3    H238804   3.893   3.676   2.025 -0.6962 -1.5988 -0.3482
 5749TIP3   OH238805   4.365   3.085   1.391  0.3063  0.3437  0.6285
 5749TIP3    H138806   4.369   3.147   1.463  1.5373  0.5309  0.4111
 5749TIP3    H238807   4.350   3.139   1.313 -0.1321  0.2239  0.6262
 5750TIP3   OH238808   0.912   2.316   6.844 -0.5183 -0.4715 -0.0157
 5750TIP3    H138809   0.935   2.284   6.931 -0.5206  1.2297  0.6455
 5750TIP3    H238810   0.913   2.238   6.789 -1.9032 -1.8437  1.7605
 5751TIP3   OH238811   1.335   5.314   6.734 -0.1584 -0.0686 -0.3057
 5751TIP3    H138812   1.358   5.227   6.702 -2.1592 -0.6017 -0.4183
 5751TIP3    H238813   1.250   5.303   6.776  1.0217  1.2031  2.7159
 5752TIP3   OH238814   2.148   3.309   6.986 -0.7664  0.0372 -0.7586
 5752TIP3    H138815   2.083   3.287   6.918 -0.1307 -0.2939 -1.2676
 5752TIP3    H238816   2.153   3.230   7.040 -0.6411 -0.0078 -0.8364
 5753TIP3   OH238817   2.393   6.881   1.210 -0.3243  0.2311  0.7695
 5753TIP3    H138818   2.382   6.975   1.196  0.4783  0.4919  1.7929
 5753TIP3    H238819   2.309   6.852   1.245 -0.0587  0.8824  1.9753
 5754TIP3   OH238820   5.283   3.288   7.359  0.2078 -0.0627 -0.0118
 5754TIP3    H138821   5.238   3.344   7.296  0.7636 -0.3792 -0.7033
 5754TIP3    H238822   5.216   3.228   7.391 -0.2871  0.6940  0.3853
 5755TIP3   OH238823   2.094   4.130   1.252  0.2351 -0.1157  0.1034
 5755TIP3    H138824   2.094   4.210   1.198 -3.1858  0.3486  0.5606
 5755TIP3    H238825   2.048   4.155   1.332  2.2559 -1.6956  1.8830
 5756TIP3   OH238826   4.881   4.878   7.543  0.2140  0.3361  0.0647
 5756TIP3    H138827   4.830   4.904   7.620 -0.4704 -0.0937 -0.2398
 5756TIP3    H238828   4.900   4.961   7.498  1.0580  0.6459  0.9512
 5757TIP3   OH238829   4.823   6.535   6.636 -0.1674  0.1634 -0.0460
 5757TIP3    H138830   4.892   6.542   6.571  0.5543  3.7722  0.8675
 5757TIP3    H238831   4.865   6.557   6.719 -1.4274 -2.5914  1.4642
 5758TIP3   OH238832   2.179   3.541   7.490 -0.3686  0.1684 -0.1895
 5758TIP3    H138833   2.163   3.513   7.580  1.2690 -0.0553  0.0633
 5758TIP3    H238834   2.213   3.630   7.499  0.1849 -0.0042 -0.5508
 5759TIP3   OH238835   2.865   3.805   7.623 -0.2410 -0.6489  0.3910
 5759TIP3    H138836   2.789   3.754   7.597 -1.3533  0.2951  1.6580
 5759TIP3    H238837   2.936   3.740   7.631 -1.1607 -1.7049  0.2187
 5760TIP3   OH238838   3.199   5.864   0.020 -0.0748 -0.0328 -0.2344
 5760TIP3    H138839   3.134   5.927   0.051 -1.7277 -1.0648 -1.4202
 5760TIP3    H238840   3.227   5.898  -0.065 -0.6534 -0.6488 -0.6806
 5761TIP3   OH238841   0.207   2.882   1.593 -0.2541 -0.1696 -0.4184
 5761TIP3    H138842   0.230   2.797   1.555  0.0284 -0.4683  0.3915
 5761TIP3    H238843   0.133   2.863   1.650 -2.0724  0.6597 -2.4097
 5762TIP3   OH238844   2.330   6.525   6.903 -0.3176  0.3136  0.0449
 5762TIP3    H138845   2.249   6.520   6.955 -0.2476 -0.4141  0.1052
 5762TIP3    H238846   2.379   6.447   6.929  0.2086  0.5185 -0.3190
 5763TIP3   OH238847   4.275   0.655   0.217  0.0409  0.4214 -0.3611
 5763TIP3    H138848   4.234   0.573   0.191 -0.8756  0.7708 -0.0503
 5763TIP3    H238849   4.205   0.706   0.257  0.9244  0.7574  0.8429
 5764TIP3   OH238850   4.508   3.049   7.098  0.1190  0.1781  0.2198
 5764TIP3    H138851   4.562   2.970   7.109 -0.9273 -0.4921  0.6578
 5764TIP3    H238852   4.427   3.030   7.145 -0.2081  1.4729  0.2175
 5765TIP3   OH238853   6.747   3.567   0.373 -0.1370 -0.2577 -0.7024
 5765TIP3    H138854   6.796   3.574   0.455 -0.0413 -1.0143 -0.6876
 5765TIP3    H238855   6.812   3.536   0.309 -0.8642 -2.6648 -0.3674
 5766TIP3   OH238856   2.422   2.063   1.283 -0.5965 -0.2463 -0.5016
 5766TIP3    H138857   2.461   2.068   1.195 -3.1132 -0.8448 -1.7425
 5766TIP3    H238858   2.489   2.020   1.336  1.8878  2.0853 -1.4998
 5767TIP3   OH238859   0.507   6.074   7.712 -0.0396  0.0308 -0.5121
 5767TIP3    H138860   0.438   6.026   7.665  0.6278 -1.6673  0.1539
 5767TIP3    H238861   0.526   6.149   7.656 -1.2772 -0.3580 -1.5115
 5768TIP3   OH238862   6.087   2.126   6.354 -0.0184 -0.1162 -0.0344
 5768TIP3    H138863   6.056   2.110   6.265  0.9509 -2.2566 -0.0637
 5768TIP3    H238864   6.051   2.054   6.406 -1.0093  1.3878  1.4560
 5769TIP3   OH238865   6.825   3.215   0.631 -0.6688  0.0890  0.0648
 5769TIP3    H138866   6.773   3.208   0.711 -0.7348  2.4568  0.3064
 5769TIP3    H238867   6.875   3.296   0.643  1.8490 -1.2211 -0.8742
 5770TIP3   OH238868   6.398   0.732   7.206  0.0484  0.4903 -0.3812
 5770TIP3    H138869   6.370   0.804   7.149  0.3813  0.5739 -0.4407
 5770TIP3    H238870   6.413   0.659   7.146 -1.8348 -0.1260 -0.1711
 5771TIP3   OH238871   6.412   7.008   7.204 -0.6318  0.3154 -0.0192
 5771TIP3    H138872   6.503   7.031   7.224 -0.7221  1.2114 -0.5787
 5771TIP3    H238873   6.413   6.987   7.110 -0.6578 -1.5181  0.3565
 5772TIP3   OH238874   1.161   6.629   7.184  0.7905 -0.1105  0.0325
 5772TIP3    H138875   1.217   6.705   7.198 -0.8180  1.4166 -1.2480
 5772TIP3    H238876   1.128   6.607   7.271 -0.0831  1.8346  0.2505
 5773TIP3   OH238877   2.164   6.442   6.648  0.2700  0.2072  0.3360
 5773TIP3    H138878   2.219   6.449   6.726 -0.2939  0.7281  0.6975
 5773TIP3    H238879   2.153   6.532   6.618  1.3759 -0.0576 -1.0076
 5774TIP3   OH238880   3.665   0.388   1.978  0.2192  0.8664 -0.0125
 5774TIP3    H138881   3.597   0.348   1.925  0.3681 -3.1362  2.4621
 5774TIP3    H238882   3.624   0.405   2.063  1.6948  0.5163  0.8123
 5775TIP3   OH238883   0.537   1.585   1.068  0.3568 -0.3245 -0.8211
 5775TIP3    H138884   0.603   1.547   1.126 -0.8957 -0.8841  0.3116
 5775TIP3    H238885   0.586   1.643   1.010  1.8348 -0.7767 -0.0863
 5776TIP3   OH238886   4.997   0.063   1.011  0.0617  0.5294  0.0878
 5776TIP3    H138887   4.950   0.140   1.045  1.0980  0.2823  2.2843
 5776TIP3    H238888   5.089   0.082   1.030  0.4104 -0.8815 -0.1312
 5777TIP3   OH238889   6.152   6.138   7.724 -0.3302 -0.2544 -0.7639
 5777TIP3    H138890   6.212   6.064   7.726 -0.5646 -0.4380  0.3376
 5777TIP3    H238891   6.132   6.151   7.631  1.9715  0.3026 -1.2453
 5778TIP3   OH238892   6.627   6.309   1.835  0.0931 -0.1113  0.0421
 5778TIP3    H138893   6.619   6.387   1.891 -0.4880  0.1398 -0.3823
 5778TIP3    H238894   6.625   6.236   1.896  0.5803  0.2026  0.4417
 5779TIP3   OH238895   0.139   1.979   6.108 -0.5808 -0.3032  0.1391
 5779TIP3    H138896   0.185   1.895   6.106 -1.6114 -0.8927  0.3218
 5779TIP3    H238897   0.127   1.998   6.201  1.4264  1.0858  0.1693
 5780TIP3   OH238898   4.416   0.007   6.741  0.4879  0.4086  0.1738
 5780TIP3    H138899   4.353  -0.005   6.812  1.3755 -0.1543  0.8952
 5780TIP3    H238900   4.388   0.086   6.696 -0.4712  0.4088  0.7575
 5781TIP3   OH238901   6.702   3.011   1.832 -0.4353  0.0154  0.0789
 5781TIP3    H138902   6.644   3.086   1.819 -0.8311 -0.2072  0.5542
 5781TIP3    H238903   6.682   2.952   1.760 -0.4629  0.1477 -0.0223
 5782TIP3   OH238904   6.256   3.545   1.309 -0.4331  0.5634 -0.1769
 5782TIP3    H138905   6.244   3.457   1.274 -1.4252  0.8368 -0.5697
 5782TIP3    H238906   6.335   3.578   1.267  0.0732 -0.2143  0.1468
 5783TIP3   OH238907   1.891   6.224   6.123  0.1492  0.1313  0.2448
 5783TIP3    H138908   1.836   6.158   6.165 -0.1376  0.3138  0.1567
 5783TIP3    H238909   1.959   6.173   6.078 -0.6605 -0.1717 -0.6712
 5784TIP3   OH238910   4.457   3.540   0.447 -0.2626 -1.0861 -0.1381
 5784TIP3    H138911   4.383   3.596   0.470  0.0012 -1.0016  0.5076
 5784TIP3    H238912   4.428   3.452   0.470 -0.3874 -1.1228 -0.4379
 5785TIP3   OH238913   6.955   5.815   6.553  0.6388  0.0767  0.4251
 5785TIP3    H138914   6.924   5.824   6.463  0.8182  2.9162  0.5655
 5785TIP3    H238915   7.005   5.733   6.553  0.3095 -0.1840 -1.9395
 5786TIP3   OH238916   2.592   6.289   0.638  0.3640  0.7531 -0.3234
 5786TIP3    H138917   2.498   6.284   0.622  0.4713  1.4243 -1.2373
 5786TIP3    H238918   2.600   6.315   0.730 -0.3672  1.8402 -0.5528
 5787TIP3   OH238919   2.773   1.497   0.933  0.5891 -0.1267 -0.4182
 5787TIP3    H138920   2.728   1.447   0.865 -0.3289  1.4083 -0.9916
 5787TIP3    H238921   2.798   1.579   0.890  1.4911  0.1835  0.6551
 5788TIP3   OH238922   3.645   1.247   7.161 -0.4559 -0.1143  0.3478
 5788TIP3    H138923   3.605   1.168   7.126  2.1316 -0.2115 -2.8473
 5788TIP3    H238924   3.603   1.318   7.113  1.0450 -0.0303 -0.9248
 5789TIP3   OH238925   0.006   0.424   7.822 -0.1125  0.2974 -0.0003
 5789TIP3    H138926   0.040   0.505   7.862 -1.6930  0.9903  0.0132
 5789TIP3    H238927  -0.086   0.444   7.804 -0.3816 -1.3293 -0.5054
 5790TIP3   OH238928   4.578   5.230   6.614 -0.1272 -0.0808  0.3761
 5790TIP3    H138929   4.493   5.252   6.577 -0.2189  2.6924  1.9840
 5790TIP3    H238930   4.632   5.205   6.538 -2.1343 -1.2910 -0.7244
 5791TIP3   OH238931   6.660   2.419   6.801  0.9499  0.0884 -0.0720
 5791TIP3    H138932   6.603   2.437   6.876 -1.4919 -2.2938 -1.1691
 5791TIP3    H238933   6.675   2.325   6.804  1.8662  0.1319 -1.8644
 5792TIP3   OH238934   2.711   6.135   5.682  0.2653  0.4163 -0.1251
 5792TIP3    H138935   2.765   6.211   5.660  3.6141 -1.1693  1.7991
 5792TIP3    H238936   2.773   6.070   5.713 -2.6337 -2.4833  0.1158
 5793TIP3   OH238937   6.901   6.919   0.684  0.4932  0.0258 -0.1559
 5793TIP3    H138938   6.911   6.871   0.602  2.1505  0.1030 -0.0410
 5793TIP3    H238939   6.915   7.011   0.660  1.2317  0.0224  0.2309
 5794TIP3   OH238940   6.491   3.518   6.824 -0.0468 -0.2914  0.6126
 5794TIP3    H138941   6.437   3.439   6.836 -0.9844  0.2102 -0.1595
 5794TIP3    H238942   6.576   3.484   6.796  0.3404 -1.1380  2.6488
 5795TIP3   OH238943   0.322   2.467   5.967 -0.1468  0.1443  0.0867
 5795TIP3    H138944   0.273   2.508   6.038  1.2652 -0.9544  1.7764
 5795TIP3    H238945   0.329   2.375   5.991 -0.2315 -0.4298 -1.8689
 5796TIP3   OH238946   5.678   5.858   0.634  0.3687 -0.3981 -0.3965
 5796TIP3    H138947   5.682   5.787   0.571  0.4017  0.4869 -1.4319
 5796TIP3    H238948   5.624   5.925   0.591  0.3725  0.2236  0.5250
 5797TIP3   OH238949   4.079   7.003   5.879 -0.3383  0.3814  0.6664
 5797TIP3    H138950   3.992   7.028   5.850 -0.2715  0.8606  0.8637
 5797TIP3    H238951   4.105   7.072   5.940  0.1447  0.2025  0.6716
 5798TIP3   OH238952   1.033   4.124   6.511  0.0159  0.2808  0.6480
 5798TIP3    H138953   1.085   4.107   6.590  2.5744  1.1888 -0.7342
 5798TIP3    H238954   0.968   4.189   6.538 -0.0883 -0.4610  2.3022
 5799TIP3   OH238955   3.734   6.347   6.473 -0.4869 -0.3482  0.6986
 5799TIP3    H138956   3.807   6.312   6.524  0.2228  0.1440  0.0351
 5799TIP3    H238957   3.662   6.353   6.536  0.6495  1.1887  1.9075
 5800TIP3   OH238958   4.252   1.865   1.020 -0.5576  0.5443 -0.3835
 5800TIP3    H138959   4.270   1.794   1.081  0.5559  1.0140 -0.1372
 5800TIP3    H238960   4.296   1.840   0.940 -1.3188  0.3251 -0.7470
 5801TIP3   OH238961   6.078   1.080   0.897  0.1274  0.1564 -0.1818
 5801TIP3    H138962   6.011   1.145   0.917  0.8604  1.3973 -1.5330
 5801TIP3    H238963   6.032   0.996   0.900 -0.8794  0.7200  1.4480
 5802TIP3   OH238964   5.612   3.755   7.788  0.0741 -0.2965 -0.6856
 5802TIP3    H138965   5.674   3.685   7.810  1.0130  0.7794  0.1650
 5802TIP3    H238966   5.666   3.825   7.751 -0.6196  0.6546  0.0487
 5803TIP3   OH238967   5.571   3.042   0.095 -0.0110 -0.0607  0.0073
 5803TIP3    H138968   5.598   2.961   0.137 -0.8546 -0.4997 -0.2747
 5803TIP3    H238969   5.591   3.110   0.160  4.0262  0.0343 -1.0380
 5804TIP3   OH238970   3.516   4.024   5.670  0.7825 -0.1737  0.0690
 5804TIP3    H138971   3.526   4.007   5.763  1.0248  1.4782  0.3706
 5804TIP3    H238972   3.492   3.939   5.633 -0.2109 -0.6836  1.7569
 5805TIP3   OH238973   2.336   3.745   0.497  0.1151  0.6233 -0.1360
 5805TIP3    H138974   2.334   3.803   0.574  3.1744  1.7258 -0.7616
 5805TIP3    H238975   2.339   3.657   0.534 -3.5468  0.7469  0.8511
 5806TIP3   OH238976   5.178   2.817   6.256 -0.0797  0.5456  0.1360
 5806TIP3    H138977   5.120   2.785   6.187 -1.3658  1.1077  0.9272
 5806TIP3    H238978   5.213   2.899   6.221 -1.3273  1.2253  0.4290
 5807TIP3   OH238979   0.230   0.098   1.716  0.2228  0.4246  0.3336
 5807TIP3    H138980   0.178   0.022   1.738 -0.4303  0.4901 -0.8757
 5807TIP3    H238981   0.316   0.081   1.754 -0.2695 -0.3300  1.1345
 5808TIP3   OH238982   4.947   5.829   1.988  0.4030  0.0058  0.4321
 5808TIP3    H138983   4.919   5.853   2.076 -0.4439  0.5578  0.0292
 5808TIP3    H238984   4.999   5.750   2.000 -2.3206 -1.8092  1.1492
 5809TIP3   OH238985   3.437   1.980   5.983  0.7327  0.4177  0.2261
 5809TIP3    H138986   3.418   1.900   5.935 -0.3433  1.0689 -0.4745
 5809TIP3    H238987   3.459   1.951   6.072  0.3328 -0.6445 -0.0176
 5810TIP3   OH238988   3.953   3.609   0.792  0.3557  0.0315  0.3533
 5810TIP3    H138989   4.004   3.562   0.858 -0.0775 -0.0966  0.5975
 5810TIP3    H238990   4.019   3.660   0.744  0.7451 -0.3156  0.5082
 5811TIP3   OH238991   5.687   5.792   1.806  0.3266 -0.1885 -0.1935
 5811TIP3    H138992   5.776   5.763   1.786  0.0485 -0.7600 -0.6249
 5811TIP3    H238993   5.697   5.884   1.831  1.3448 -0.8715  2.1361
 5812TIP3   OH238994   6.628   0.159   6.965  0.0003  0.2677  0.0786
 5812TIP3    H138995   6.538   0.149   6.997  0.2366  0.2120  0.7356
 5812TIP3    H238996   6.657   0.243   7.001  0.0787  0.4789 -0.4651
 5813TIP3   OH238997   2.810   2.711   6.031 -0.2385  0.2439 -0.4579
 5813TIP3    H138998   2.835   2.797   5.999  0.0810  1.1917  2.1522
 5813TIP3    H238999   2.734   2.686   5.978 -0.5381  2.2730 -1.0359
 5814TIP3   OH239000   2.318   0.012   1.389  0.2186 -0.1104 -0.9477
 5814TIP3    H139001   2.271   0.037   1.469  0.7213 -2.3196  0.1253
 5814TIP3    H239002   2.253   0.017   1.320 -1.7824 -3.1624  0.5007
 5815TIP3   OH239003   3.295   5.621   6.606 -0.7241 -0.0881  0.6642
 5815TIP3    H139004   3.368   5.675   6.637  0.3999 -1.3095  0.2581
 5815TIP3    H239005   3.282   5.557   6.676 -0.7047 -0.5181  0.2804
 5816TIP3   OH239006   3.124   7.014   6.716 -0.0146 -0.1717 -0.6668
 5816TIP3    H139007   3.216   6.988   6.721  0.3469  0.6707 -2.2840
 5816TIP3    H239008   3.098   7.026   6.807  1.6548  0.1313 -0.1918
 5817TIP3   OH239009   6.771   6.001   7.651 -0.0328 -0.7967 -0.4366
 5817TIP3    H139010   6.767   6.084   7.604 -0.5591 -1.3540 -1.3945
 5817TIP3    H239011   6.755   5.934   7.584  1.3318 -1.7386  0.1312
 5818TIP3   OH239012   6.668   1.597   0.865 -0.3523 -0.6280  0.4774
 5818TIP3    H139013   6.618   1.664   0.819 -0.9608 -0.6263  1.1359
 5818TIP3    H239014   6.668   1.522   0.805 -0.1939 -0.2553  0.0053
 5819TIP3   OH239015   6.097   4.541   7.987 -0.2019 -0.3593 -0.4563
 5819TIP3    H139016   6.140   4.510   7.907 -0.8197 -4.3300  0.5444
 5819TIP3    H239017   6.007   4.508   7.980 -0.8263  0.9169  1.0384
 5820TIP3   OH239018   3.428   0.746   7.985  0.0996 -0.3859 -0.4755
 5820TIP3    H139019   3.494   0.757   8.054 -0.1924 -0.6623 -0.1473
 5820TIP3    H239020   3.362   0.689   8.024 -0.4834  0.1319 -0.6924
 5821TIP3   OH239021   0.210   5.123   7.337 -0.5237  0.2444  0.0215
 5821TIP3    H139022   0.303   5.102   7.335 -0.0818  2.0636 -0.7388
 5821TIP3    H239023   0.190   5.153   7.249 -2.3014 -1.7899 -0.3502
 5822TIP3   OH239024   5.497   5.261   1.746  0.3920  0.0468 -0.6679
 5822TIP3    H139025   5.403   5.274   1.759  0.7308  0.8897  1.4171
 5822TIP3    H239026   5.512   5.168   1.762  0.0316  0.0936 -0.0408
 5823TIP3   OH239027   3.251   5.023   0.510  0.2075  0.1235  0.1460
 5823TIP3    H139028   3.187   4.984   0.569 -0.8599  0.3131 -0.8503
 5823TIP3    H239029   3.270   4.954   0.446 -0.2919  0.6049 -0.5416
 5824TIP3   OH239030   2.554   2.133   7.252  0.1571  0.3118  0.2998
 5824TIP3    H139031   2.543   2.221   7.289 -3.0261  1.6246 -3.0606
 5824TIP3    H239032   2.601   2.148   7.170 -0.1481 -1.1775 -0.1667
 5825TIP3   OH239033   5.815   0.737   0.092 -0.2426 -0.0574 -0.2684
 5825TIP3    H139034   5.811   0.684   0.013  0.6899 -1.1519  0.3978
 5825TIP3    H239035   5.906   0.732   0.121 -0.5412  0.4204  0.8135
 5826TIP3   OH239036   7.051   5.493   0.450 -0.2223 -0.0253 -0.2926
 5826TIP3    H139037   7.134   5.459   0.417  0.4728 -0.4360  1.7780
 5826TIP3    H239038   7.006   5.526   0.372 -0.0215 -3.7057 -2.1746
 5827TIP3   OH239039   6.433   0.413   0.140  0.1660  0.6489  0.6255
 5827TIP3    H139040   6.497   0.484   0.128  1.1629 -0.1991  0.7562
 5827TIP3    H239041   6.456   0.349   0.073  0.7866 -0.5906  1.9566
 5828TIP3   OH239042   1.993   2.499   1.227  0.4359  0.3118 -0.4057
 5828TIP3    H139043   1.972   2.575   1.281 -0.2693 -0.4306  0.4007
 5828TIP3    H239044   1.917   2.488   1.170  0.7818  0.5399 -0.9189
 5829TIP3   OH239045   1.090   5.944   5.706  0.6418  0.6335 -0.6479
 5829TIP3    H139046   1.102   5.885   5.780  1.2442  0.7064 -0.6760
 5829TIP3    H239047   1.178   5.953   5.668  0.6544  1.9108 -0.3672
 5830TIP3   OH239048   4.427   6.033   0.799 -0.4663  0.1528 -0.3205
 5830TIP3    H139049   4.386   6.083   0.729 -2.2763 -0.1318  0.4758
 5830TIP3    H239050   4.416   5.942   0.773  2.0011  0.0638 -1.3189
 5831TIP3   OH239051   2.111   2.086   6.525  0.4401 -0.0758 -0.5499
 5831TIP3    H139052   2.063   2.043   6.596 -0.3732 -0.4187 -1.2869
 5831TIP3    H239053   2.042   2.122   6.469  1.0951  1.9430 -0.1213
 5832TIP3   OH239054   2.860   3.852   8.035  0.0869  0.5468 -0.1506
 5832TIP3    H139055   2.926   3.790   8.065 -0.9856 -0.0648  1.0099
 5832TIP3    H239056   2.876   3.931   8.088  0.3896  0.6925 -0.4513
 5833TIP3   OH239057   1.117   4.335   2.091  0.3708 -0.0956 -0.8191
 5833TIP3    H139058   1.098   4.345   1.998  0.1616  2.7422 -0.5360
 5833TIP3    H239059   1.048   4.383   2.136  2.3187  1.5501  0.6286
 5834TIP3   OH239060   0.920   1.668   0.345 -0.0300  0.8833 -0.0199
 5834TIP3    H139061   0.938   1.594   0.403 -0.3700  0.6297 -0.2325
 5834TIP3    H239062   0.901   1.741   0.404  1.9517  1.2489  0.2321
 5835TIP3   OH239063   3.396   0.758   0.947  0.5876 -0.1832 -0.0989
 5835TIP3    H139064   3.376   0.848   0.919 -1.2650 -0.5633 -0.0729
 5835TIP3    H239065   3.453   0.769   1.023 -0.1140  1.0043  0.2839
 5836TIP3   OH239066   6.278   0.879   1.815  0.0140 -0.2260 -0.1066
 5836TIP3    H139067   6.193   0.890   1.773  0.1255  1.8997  0.0886
 5836TIP3    H239068   6.296   0.964   1.855  2.4088 -0.4772 -0.4842
 5837TIP3   OH239069   4.087   6.872   0.650  0.1431  0.7755  0.1514
 5837TIP3    H139070   4.052   6.805   0.591 -1.0158  1.5832 -0.1125
 5837TIP3    H239071   4.175   6.840   0.672  0.9265  0.7771 -2.5731
 5838TIP3   OH239072   0.461   4.506   6.615 -0.1106  0.2258  0.1403
 5838TIP3    H139073   0.493   4.453   6.542 -0.3006  0.4499 -0.1048
 5838TIP3    H239074   0.471   4.597   6.586 -3.2503  0.3287 -0.9706
 5839TIP3   OH239075   5.364   6.275   6.911  0.3406  0.0477 -0.1101
 5839TIP3    H139076   5.386   6.288   6.818 -0.9892 -0.1157 -0.4615
 5839TIP3    H239077   5.447   6.248   6.951  1.2516  1.3933 -0.9792
 5840TIP3   OH239078   5.412   3.401   0.466 -0.1763 -0.1661 -0.6850
 5840TIP3    H139079   5.480   3.411   0.532 -0.1642  0.2478 -0.7560
 5840TIP3    H239080   5.331   3.394   0.516 -0.4146  2.1674 -0.6477
 5841TIP3   OH239081   4.893   2.329   6.958  0.0413  0.0805 -0.2015
 5841TIP3    H139082   4.849   2.285   6.885 -0.1770  0.8349 -0.5323
 5841TIP3    H239083   4.975   2.361   6.921 -0.8886  2.1093 -0.6630
 5842TIP3   OH239084   6.655   1.942   7.004 -0.8200 -0.2013  0.5724
 5842TIP3    H139085   6.727   1.881   6.994 -0.1965  0.5263  0.4920
 5842TIP3    H239086   6.656   1.965   7.097  0.1836  1.1284  0.2664
 5843TIP3   OH239087   1.971   3.721   0.727 -0.1240  0.2255  0.4482
 5843TIP3    H139088   2.052   3.771   0.732 -0.3591  0.8999 -1.4324
 5843TIP3    H239089   1.903   3.788   0.714 -0.4099 -0.4920 -2.4772
 5844TIP3   OH239090   4.107   1.035   0.796  0.3115 -0.0715  0.2263
 5844TIP3    H139091   4.041   0.966   0.810  0.9458 -0.9670 -0.9739
 5844TIP3    H239092   4.187   1.000   0.835  0.3593  0.4942  0.6341
 5845TIP3   OH239093   3.546   4.844   7.407  0.5111 -0.0417  0.0347
 5845TIP3    H139094   3.640   4.858   7.418  0.5103  0.6496 -0.8019
 5845TIP3    H239095   3.509   4.871   7.491  0.8090  2.2572 -0.5240
 5846TIP3   OH239096   0.287   0.400   7.306 -0.1735  0.0059 -0.2809
 5846TIP3    H139097   0.329   0.443   7.232 -1.6174 -0.6887 -1.5595
 5846TIP3    H239098   0.322   0.311   7.305 -2.4021 -0.9597 -2.1085
 5847TIP3   OH239099   4.511   6.623   1.602 -0.0425 -0.5757 -0.6170
 5847TIP3    H139100   4.424   6.660   1.588  0.4289  0.0309 -2.1372
 5847TIP3    H239101   4.544   6.668   1.680  0.2357  1.7888 -1.9914
 5848TIP3   OH239102   1.469   2.912   1.364  0.1462  0.2337  0.3290
 5848TIP3    H139103   1.396   2.900   1.425 -0.1952 -2.6540 -0.5224
 5848TIP3    H239104   1.543   2.935   1.421 -0.8510  0.7265  1.4809
 5849TIP3   OH239105   5.092   2.218   0.950  0.0091  0.1368 -0.5215
 5849TIP3    H139106   5.179   2.183   0.969 -0.1036  0.6145  1.0898
 5849TIP3    H239107   5.034   2.172   1.011 -0.8973 -0.2887 -1.6867
 5850TIP3   OH239108   4.555   6.983   7.581  0.0257 -0.3373  0.6801
 5850TIP3    H139109   4.639   6.992   7.535  0.2860 -0.7995  1.0629
 5850TIP3    H239110   4.555   6.894   7.614 -1.5451 -1.0709 -1.0973
 5851TIP3   OH239111   0.679   0.647   0.071 -0.2935  0.2189 -0.8705
 5851TIP3    H139112   0.739   0.592   0.021  0.6065  0.2743  0.1092
 5851TIP3    H239113   0.687   0.616   0.161  0.4803  2.1139 -0.2243
 5852TIP3   OH239114   4.339   0.965   7.842 -0.8553  0.3136 -0.2272
 5852TIP3    H139115   4.416   0.942   7.895 -0.7203  1.4062  0.0714
 5852TIP3    H239116   4.375   0.993   7.758 -0.9696  0.2131 -0.3103
 5853TIP3   OH239117   4.047   5.479   1.024  0.2099 -0.3119 -0.6839
 5853TIP3    H139118   4.056   5.536   1.100  1.7045 -3.0407  1.4005
 5853TIP3    H239119   4.128   5.429   1.022 -0.8707 -2.1596 -2.5189
 5854TIP3   OH239120   4.328   3.428   7.112  0.3745  0.3409  0.4527
 5854TIP3    H139121   4.373   3.508   7.084  2.1306  0.0739  2.3022
 5854TIP3    H239122   4.363   3.359   7.054  1.8019  0.2823  1.3352
 5855TIP3   OH239123   1.945   5.664   6.958  0.3530  0.0780 -0.1284
 5855TIP3    H139124   1.880   5.593   6.950  0.5988 -0.0673 -0.9375
 5855TIP3    H239125   2.015   5.638   6.899  1.3062  0.0797  0.9703
 5856TIP3   OH239126   2.077   6.057   0.520  0.4529  0.5323 -0.0201
 5856TIP3    H139127   2.083   6.052   0.615  2.9939  1.7104 -0.0265
 5856TIP3    H239128   2.067   6.150   0.501  0.7054  0.3879 -0.9323
 5857TIP3   OH239129   6.440   3.285   1.066  0.5232  0.2115 -0.1366
 5857TIP3    H139130   6.375   3.300   1.135  0.0913 -0.9639 -0.2666
 5857TIP3    H239131   6.463   3.192   1.074  1.7945  0.4779 -0.4420
 5858TIP3   OH239132   6.071   3.412   6.654 -0.3600  0.3440  0.0158
 5858TIP3    H139133   6.045   3.501   6.678  0.0979  0.2287  0.9914
 5858TIP3    H239134   6.016   3.391   6.579 -0.5889  1.3902 -0.1307
 5859TIP3   OH239135   5.002   0.451   0.627 -0.0269 -0.5437 -0.2216
 5859TIP3    H139136   4.981   0.528   0.573  0.1072 -1.8687 -2.2402
 5859TIP3    H239137   4.980   0.479   0.716 -0.8241  1.5296 -0.9928
 5860TIP3   OH239138   5.297   5.807   1.102 -0.2333 -0.0021 -0.1468
 5860TIP3    H139139   5.289   5.712   1.096  1.2137 -0.1048 -0.6638
 5860TIP3    H239140   5.253   5.829   1.185 -1.2640 -1.0084 -0.3936
 5861TIP3   OH239141   6.722   2.400   1.448  0.4487  0.2875 -0.3153
 5861TIP3    H139142   6.758   2.375   1.533  1.4579 -0.1613 -0.8578
 5861TIP3    H239143   6.792   2.452   1.407  0.0890  0.2507 -0.9878
 5862TIP3   OH239144   4.315   6.174   6.345 -0.3691 -0.6693  0.3938
 5862TIP3    H139145   4.273   6.097   6.383 -1.0151 -0.0404  0.9915
 5862TIP3    H239146   4.252   6.207   6.281 -0.7956  0.2271  1.2308
 5863TIP3   OH239147   2.611   1.473   7.788  0.3838  0.1173  0.4892
 5863TIP3    H139148   2.676   1.541   7.769  0.0711 -0.0105 -1.2746
 5863TIP3    H239149   2.526   1.517   7.779  0.1922 -0.2949  0.2193
 5864TIP3   OH239150   4.992   3.133   1.106 -0.2978  0.9801  0.1672
 5864TIP3    H139151   4.935   3.196   1.062  0.1278  0.1120 -1.7117
 5864TIP3    H239152   5.081   3.165   1.089 -0.0510 -0.4107 -1.3297
 5865TIP3   OH239153   5.746   3.903   1.750  0.4937  0.3388 -0.1865
 5865TIP3    H139154   5.665   3.854   1.738  0.1149  1.0746 -0.7390
 5865TIP3    H239155   5.815   3.836   1.752 -0.1694 -0.3376  0.9389
 5866TIP3   OH239156   2.210   6.811   0.658  0.4415  0.5347  0.2577
 5866TIP3    H139157   2.183   6.765   0.579  1.4025  0.6960 -0.1766
 5866TIP3    H239158   2.305   6.821   0.649  0.7942 -0.6249  2.0303
 5867TIP3   OH239159   4.139   0.696   0.727  0.4658 -0.2728  0.1524
 5867TIP3    H139160   4.095   0.676   0.810  2.3800 -1.3805  0.9674
 5867TIP3    H239161   4.196   0.770   0.747  0.6271 -0.2781 -0.2799
 5868TIP3   OH239162   0.169   1.638   7.739 -0.3436  0.0016 -0.5376
 5868TIP3    H139163   0.124   1.606   7.817 -0.7699  1.1091 -0.3112
 5868TIP3    H239164   0.209   1.560   7.700  0.3356 -0.4954  1.0730
 5869TIP3   OH239165   4.406   2.136   0.440  0.3569 -0.3149 -0.2033
 5869TIP3    H139166   4.485   2.131   0.494  0.8905  2.3499 -0.5766
 5869TIP3    H239167   4.334   2.140   0.503  0.8942  1.6011  0.3597
 5870TIP3   OH239168   2.067   3.626   6.508 -0.0114 -0.6513 -0.3489
 5870TIP3    H139169   2.155   3.608   6.477 -0.3774 -1.1829 -1.1104
 5870TIP3    H239170   2.040   3.545   6.552  0.2339 -0.1538  0.7664
 5871TIP3   OH239171   1.678   0.497   1.416 -0.5826 -0.2734  0.2790
 5871TIP3    H139172   1.765   0.474   1.382 -0.6341  1.5542 -1.1900
 5871TIP3    H239173   1.632   0.535   1.342 -3.1345 -2.3033  0.6933
 5872TIP3   OH239174   4.259   1.340   0.453 -0.4184  0.5442 -0.1177
 5872TIP3    H139175   4.252   1.316   0.545 -0.2167  0.7486 -0.0490
 5872TIP3    H239176   4.176   1.311   0.414 -0.6751  0.8306  0.2124
 5873TIP3   OH239177   0.498   3.107   0.539 -0.7857 -0.3256  0.3245
 5873TIP3    H139178   0.593   3.101   0.551 -0.8549  0.8804  1.7577
 5873TIP3    H239179   0.483   3.074   0.450  1.1006  0.4558 -0.3381
 5874TIP3   OH239180   3.440   4.285   6.915 -0.5629  0.1204 -0.4910
 5874TIP3    H139181   3.389   4.241   6.983  0.5085 -0.8943 -0.3086
 5874TIP3    H239182   3.531   4.272   6.941 -0.1068  4.3020  0.7360
 5875TIP3   OH239183   3.363   6.764   0.986  0.2731 -0.6279  0.4750
 5875TIP3    H139184   3.301   6.727   1.049  0.3218 -0.8133  0.4145
 5875TIP3    H239185   3.353   6.710   0.908  1.1268 -1.1978  0.7505
 5876TIP3   OH239186   5.130   3.780   8.035 -0.6838 -0.3132  0.8725
 5876TIP3    H139187   5.224   3.797   8.029 -0.9601  0.8928 -0.7658
 5876TIP3    H239188   5.105   3.813   8.121  0.8112 -3.1635  2.5377
 5877TIP3   OH239189   2.734   4.859   0.037  0.5648  0.1668  0.2287
 5877TIP3    H139190   2.665   4.923   0.022  1.0021  0.6897  0.4176
 5877TIP3    H239191   2.709   4.815   0.118  1.0555  1.1750  0.9436
 5878TIP3   OH239192   6.384   2.979   0.249  0.3695 -0.3997 -0.1849
 5878TIP3    H139193   6.378   2.929   0.331  0.2102 -0.1536 -0.0478
 5878TIP3    H239194   6.477   2.998   0.240  0.6208 -1.7720 -0.8653
 5879TIP3   OH239195   5.928   0.674   1.197 -0.2127 -0.0266 -0.1682
 5879TIP3    H139196   6.013   0.676   1.241 -0.2013  2.0895 -0.1599
 5879TIP3    H239197   5.908   0.581   1.188  1.7008 -0.5738  0.5820
 5880TIP3   OH239198   1.204   3.173   5.886  0.1808 -0.6953  0.0747
 5880TIP3    H139199   1.156   3.197   5.807  1.4495  2.0269  0.0234
 5880TIP3    H239200   1.295   3.192   5.866  0.7038 -1.2410  1.7402
 5881TIP3   OH239201   2.022   1.134   7.777 -0.3806  0.1459  0.5570
 5881TIP3    H139202   1.953   1.197   7.797 -1.8410 -1.2903  0.3096
 5881TIP3    H239203   2.033   1.140   7.682 -1.1458 -0.5394  0.4104
 5882TIP3   OH239204   2.907   2.001   1.365  0.1775 -0.2276 -0.0060
 5882TIP3    H139205   2.987   1.962   1.330  1.7568  0.6867  2.3509
 5882TIP3    H239206   2.924   2.013   1.458 -2.2411  1.2084  0.3514
 5883TIP3   OH239207   0.448   2.211   0.810 -0.1911 -0.1180  0.3750
 5883TIP3    H139208   0.489   2.295   0.788  1.3878 -0.8147  0.5249
 5883TIP3    H239209   0.374   2.235   0.866  0.6092  1.1494  0.9580
 5884TIP3   OH239210   5.401   0.369   6.782 -0.2516 -0.0847  0.2192
 5884TIP3    H139211   5.457   0.354   6.706  0.8717 -1.5453  1.2563
 5884TIP3    H239212   5.382   0.463   6.781  1.7640  0.3602 -0.5118
 5885TIP3   OH239213   3.066   5.398   0.082  0.0556  0.1229  0.0432
 5885TIP3    H139214   3.061   5.347   0.001 -0.4124  1.5313 -0.8443
 5885TIP3    H239215   3.154   5.381   0.116  1.1827  1.4094 -2.0749
 5886TIP3   OH239216   4.100   1.834   2.031  0.4654  0.0272  0.2690
 5886TIP3    H139217   4.080   1.922   1.999  0.6154 -0.6012 -1.6862
 5886TIP3    H239218   4.125   1.786   1.953  1.4407 -1.4775  1.4649
 5887TIP3   OH239219   5.653   4.298   0.175 -0.6050 -0.0342  0.4608
 5887TIP3    H139220   5.716   4.306   0.104  1.2042  0.9244  2.0964
 5887TIP3    H239221   5.656   4.205   0.199  0.6789  0.1057  0.9137
 5888TIP3   OH239222   1.730   4.159   0.712  0.1242 -0.4112  0.0816
 5888TIP3    H139223   1.781   4.225   0.758  1.2627 -1.1508 -0.0628
 5888TIP3    H239224   1.704   4.201   0.630 -2.4683  1.1379  1.5704
 5889TIP3   OH239225   6.802   3.466   5.636  0.0604  0.2505  0.2551
 5889TIP3    H139226   6.719   3.459   5.684  0.9477 -0.8770  1.7192
 5889TIP3    H239227   6.853   3.530   5.686  0.4356  0.2272 -0.0940
 5890TIP3   OH239228   5.927   3.364   7.665  0.4938  0.0118  0.3791
 5890TIP3    H139229   5.844   3.317   7.664  0.0708  0.7151  1.2885
 5890TIP3    H239230   5.943   3.383   7.757  1.5559  0.0922  0.1951
 5891TIP3   OH239231   5.085   3.942   0.707 -0.4118  0.3014  0.3532
 5891TIP3    H139232   5.029   3.994   0.650 -0.1219  1.6412  1.2480
 5891TIP3    H239233   5.071   3.978   0.794  3.3263  2.1401  0.3932
 5892TIP3   OH239234   4.840   3.508   7.870 -0.2439 -0.2147  0.1112
 5892TIP3    H139235   4.747   3.525   7.887 -0.2813 -0.9510  0.6943
 5892TIP3    H239236   4.882   3.515   7.955  0.6879  2.6442 -0.4790
 5893TIP3   OH239237   6.705   3.279   1.240 -0.4989 -0.1882  0.3742
 5893TIP3    H139238   6.738   3.209   1.296  2.5931  0.4442 -0.4892
 5893TIP3    H239239   6.631   3.316   1.289  0.6556 -1.1025  2.9613
 5894TIP3   OH239240   5.537   6.684   7.941 -0.7365 -0.0710 -0.5243
 5894TIP3    H139241   5.631   6.703   7.945 -0.8068  0.6305 -1.7333
 5894TIP3    H239242   5.497   6.766   7.912 -1.4563 -0.9773 -2.2679
 5895TIP3   OH239243   6.173   3.873   6.667 -0.7124  0.7262  0.5358
 5895TIP3    H139244   6.195   3.845   6.579 -0.9238  0.3570  0.5993
 5895TIP3    H239245   6.246   3.929   6.694  0.8281 -1.4846  1.2303
 5896TIP3   OH239246   4.442   4.619   1.590  1.1097  0.2167  0.0958
 5896TIP3    H139247   4.485   4.591   1.670 -0.8645 -1.1367  0.7647
 5896TIP3    H239248   4.402   4.703   1.612  0.2867 -0.3130  0.6700
 5897TIP3   OH239249   3.858   5.990   1.298  0.3658  0.1545 -0.1128
 5897TIP3    H139250   3.951   5.991   1.275 -0.0062 -0.7861 -1.9199
 5897TIP3    H239251   3.844   5.903   1.335  0.1106  0.0919 -0.3553
 5898TIP3   OH239252   3.589   4.424   5.880  0.4060  0.1545  0.7655
 5898TIP3    H139253   3.535   4.500   5.858 -0.8494 -0.4691  1.5376
 5898TIP3    H239254   3.638   4.405   5.801  0.0471  1.2239  0.2775
 5899TIP3   OH239255   5.720   2.780   6.779  0.2034 -0.4777 -0.1016
 5899TIP3    H139256   5.758   2.721   6.844  0.6265 -1.7421 -1.4602
 5899TIP3    H239257   5.702   2.860   6.828  0.1042 -1.5296  1.6763
 5900TIP3   OH239258   1.170   3.113   6.977 -0.3969 -0.1122 -0.2245
 5900TIP3    H139259   1.233   3.173   6.937 -1.3726  0.8439 -0.3738
 5900TIP3    H239260   1.120   3.168   7.037  0.9189 -1.4660  2.2701
 5901TIP3   OH239261   3.716   5.106   7.561 -0.2633  0.0749 -0.4545
 5901TIP3    H139262   3.652   5.068   7.621 -0.6270  3.1480  1.3040
 5901TIP3    H239263   3.668   5.175   7.516  1.7840  2.9138  1.3709
 5902TIP3   OH239264   4.303   2.848   5.807 -0.3219 -0.0472 -0.3049
 5902TIP3    H139265   4.240   2.807   5.747 -1.7015  0.5091  0.7160
 5902TIP3    H239266   4.386   2.804   5.787 -0.8614 -0.3316 -2.1588
 5903TIP3   OH239267   2.885   4.250   6.990 -0.5027  0.1021  0.1709
 5903TIP3    H139268   2.889   4.199   7.071  0.2206 -0.8318 -0.4349
 5903TIP3    H239269   2.833   4.327   7.013  0.5576  0.3802  1.8071
 5904TIP3   OH239270   4.895   5.191   0.369 -0.1298  0.0373  0.1985
 5904TIP3    H139271   4.935   5.229   0.447  1.7305 -0.4729 -0.4451
 5904TIP3    H239272   4.962   5.132   0.334 -2.7187 -3.7454  0.9864
 5905TIP3   OH239273   4.316   1.802   6.494 -0.7099  0.0046 -0.3937
 5905TIP3    H139274   4.236   1.790   6.547 -1.5309 -3.2211 -2.1020
 5905TIP3    H239275   4.386   1.766   6.548 -0.6499  1.2131  0.3837
 5906TIP3   OH239276   6.769   0.773   6.333  0.7228  0.0458 -0.3356
 5906TIP3    H139277   6.742   0.865   6.327  1.4585  0.3742  0.9889
 5906TIP3    H239278   6.716   0.728   6.267 -0.3782  1.2526 -0.3088
 5907TIP3   OH239279   6.818   0.609   1.144 -0.6122 -0.2590 -0.2302
 5907TIP3    H139280   6.775   0.532   1.108 -2.9764 -0.1112  1.9923
 5907TIP3    H239281   6.879   0.574   1.209 -1.8206 -0.2994  0.9126
 5908TIP3   OH239282   3.800   6.268   6.780 -0.0290 -0.1095 -0.5923
 5908TIP3    H139283   3.737   6.258   6.852 -1.1138  1.8395 -1.1864
 5908TIP3    H239284   3.779   6.196   6.720 -0.4737 -0.5577  0.0839
 5909TIP3   OH239285   1.168   2.793   6.637  0.2739  0.2443 -0.1338
 5909TIP3    H139286   1.186   2.885   6.616 -0.5034  0.3569 -0.3662
 5909TIP3    H239287   1.117   2.762   6.562  0.2580 -0.2873  0.0981
 5910TIP3   OH239288   6.913   5.894   1.121  1.0301  0.5000  0.4135
 5910TIP3    H139289   6.929   5.954   1.194 -0.5541 -0.2208  1.4076
 5910TIP3    H239290   6.837   5.843   1.148  0.5139  0.0637 -1.6846
 5911TIP3   OH239291   4.233   5.142   7.631  0.0008  0.2203 -0.3441
 5911TIP3    H139292   4.138   5.150   7.640 -0.1859 -1.1081 -0.8484
 5911TIP3    H239293   4.268   5.219   7.675 -1.2554 -0.0462  1.2111
 5912TIP3   OH239294   4.948   4.374   7.059 -0.5212  0.2234 -0.4598
 5912TIP3    H139295   4.958   4.308   6.991 -0.5037  1.1902 -1.4106
 5912TIP3    H239296   5.031   4.372   7.106  0.0490  0.6124 -1.4326
 5913TIP3   OH239297   6.273   2.048   0.180 -0.3886 -0.0321  0.5465
 5913TIP3    H139298   6.258   2.101   0.259  0.0851 -0.0258  0.6370
 5913TIP3    H239299   6.212   1.976   0.188  0.9728 -1.0961  1.9153
 5914TIP3   OH239300   6.485   3.958   6.173 -1.0241 -0.2657 -0.6021
 5914TIP3    H139301   6.564   3.903   6.178  0.4073  1.7955  1.5692
 5914TIP3    H239302   6.454   3.947   6.083  1.4049 -1.6000 -1.3765
 5915TIP3   OH239303   4.101   0.269   0.142 -0.1138  0.2840 -0.4522
 5915TIP3    H139304   4.139   0.183   0.123  1.8913  1.2253 -0.8953
 5915TIP3    H239305   4.147   0.298   0.220 -1.3306  0.6630  0.1484
 5916TIP3   OH239306   6.848   5.482   0.152 -0.4619  0.2259 -0.0185
 5916TIP3    H139307   6.861   5.575   0.171 -2.4053  0.6677 -0.5745
 5916TIP3    H239308   6.756   5.476   0.125  0.3733 -1.3623 -2.9543
 5917TIP3   OH239309   1.863   5.615   0.325 -0.1174  0.7362 -0.2999
 5917TIP3    H139310   1.955   5.642   0.324  0.5547 -1.3116  1.2408
 5917TIP3    H239311   1.862   5.531   0.370 -2.5980  0.0278 -1.4613
 5918TIP3   OH239312   1.236   3.596   7.459  0.6934 -0.0571 -0.1565
 5918TIP3    H139313   1.201   3.668   7.512  2.8294 -0.1399  1.5082
 5918TIP3    H239314   1.163   3.535   7.451 -0.9410  1.8660 -0.9455
 5919TIP3   OH239315   2.257   0.797   6.737  0.2039 -0.2357 -0.5509
 5919TIP3    H139316   2.266   0.807   6.642  4.0159  1.7296 -0.2005
 5919TIP3    H239317   2.347   0.783   6.767 -1.1958 -4.1269  2.5746
 5920TIP3   OH239318   3.159   1.591   1.181 -0.0036  0.5960  0.6434
 5920TIP3    H139319   3.067   1.612   1.193  0.2286  0.8279  2.2853
 5920TIP3    H239320   3.167   1.570   1.088 -1.8320 -0.0905  0.6054
 5921TIP3   OH239321   5.527   6.860   6.684  0.4950  0.2424 -0.0376
 5921TIP3    H139322   5.507   6.868   6.591  1.9920 -1.7769 -0.6132
 5921TIP3    H239323   5.486   6.937   6.724 -2.1333  0.0096 -2.0000
 5922TIP3   OH239324   0.428   0.491   7.574 -0.2808 -0.3319  0.2790
 5922TIP3    H139325   0.521   0.500   7.555  0.0214 -0.0468  1.7321
 5922TIP3    H239326   0.386   0.562   7.526  0.6357  1.3916  1.8734
 5923TIP3   OH239327   0.676   3.016   1.703 -0.4941 -0.9136  0.3691
 5923TIP3    H139328   0.620   2.989   1.776 -1.9959  2.2363  0.5304
 5923TIP3    H239329   0.617   3.020   1.627  0.1582 -0.3613 -0.1239
 5924TIP3   OH239330   4.911   5.783   6.627  0.4781 -0.2841 -0.3376
 5924TIP3    H139331   4.963   5.844   6.575 -1.4924  0.3567 -1.6940
 5924TIP3    H239332   4.903   5.705   6.572 -1.2833  0.2414 -0.8838
 5925TIP3   OH239333   5.146   3.437   7.129 -0.1102  0.2552  0.1468
 5925TIP3    H139334   5.171   3.509   7.071 -1.3128  0.6550  0.0871
 5925TIP3    H239335   5.050   3.441   7.132 -0.1303 -0.5425  1.1751
 5926TIP3   OH239336   5.506   5.284   0.302 -0.3682 -0.1539 -0.5733
 5926TIP3    H139337   5.440   5.339   0.260  1.3897  1.0119 -1.9534
 5926TIP3    H239338   5.563   5.346   0.348  1.2760 -0.8234 -1.6195
 5927TIP3   OH239339   4.546   5.620   7.901 -0.2148 -0.0071 -0.3611
 5927TIP3    H139340   4.552   5.618   7.997 -0.3669 -2.4547 -0.3286
 5927TIP3    H239341   4.459   5.657   7.883 -0.6708 -0.5995  0.5161
 5928TIP3   OH239342   1.493   4.303   7.193  0.6882  0.4598  0.1796
 5928TIP3    H139343   1.585   4.324   7.176  0.4808  0.9726 -0.3427
 5928TIP3    H239344   1.447   4.386   7.180 -0.1185 -0.2103 -1.6366
 5929TIP3   OH239345   4.488   1.796   7.117  0.3929  0.0499 -0.0706
 5929TIP3    H139346   4.395   1.783   7.137  0.0016 -0.7121 -2.1181
 5929TIP3    H239347   4.518   1.859   7.182 -1.3978 -0.1558  1.0280
 5930TIP3   OH239348   4.050   0.550   7.237  0.9144  0.3916  0.3030
 5930TIP3    H139349   4.065   0.512   7.150  0.2526 -1.5535  0.9791
 5930TIP3    H239350   4.018   0.639   7.219 -0.7655 -0.4950 -1.5362
 5931TIP3   OH239351   1.774   5.372   0.239 -0.4843 -0.4411 -0.1847
 5931TIP3    H139352   1.701   5.325   0.200  0.0732 -1.0035 -0.5793
 5931TIP3    H239353   1.755   5.464   0.223 -0.9983 -0.5939 -0.4734
 5932TIP3   OH239354   6.203   3.598   5.405  0.4250 -0.4191  0.1750
 5932TIP3    H139355   6.118   3.600   5.360  1.2305 -2.7661 -1.6987
 5932TIP3    H239356   6.231   3.506   5.398  3.2232  0.3301  0.4771
 5933TIP3   OH239357   5.728   6.895   1.415 -0.1069  0.2048 -0.5339
 5933TIP3    H139358   5.675   6.879   1.337 -0.8035  1.7559 -0.4070
 5933TIP3    H239359   5.744   6.989   1.415 -1.4653  0.5262  1.9975
 5934TIP3   OH239360   4.999   1.591   1.858  0.5443 -0.1186 -0.7470
 5934TIP3    H139361   4.907   1.583   1.881  0.6465 -2.8705 -0.8979
 5934TIP3    H239362   5.000   1.608   1.764  0.1773  0.2353 -0.6839
 5935TIP3   OH239363   0.900   1.045   5.593  0.0611  0.5064  0.7155
 5935TIP3    H139364   0.956   0.969   5.580 -0.3602  0.3878 -0.4964
 5935TIP3    H239365   0.960   1.118   5.603  0.5496  0.8390 -3.1860
 5936TIP3   OH239366   1.722   0.348   1.806 -0.3185  0.7246  0.2744
 5936TIP3    H139367   1.701   0.439   1.786 -1.9568  0.7965  2.0501
 5936TIP3    H239368   1.637   0.303   1.803  0.6196 -1.1267 -2.1041
 5937TIP3   OH239369   6.426   3.155   6.327  0.0477 -0.1048 -0.0162
 5937TIP3    H139370   6.358   3.158   6.395  0.3838  0.9744  0.2993
 5937TIP3    H239371   6.432   3.063   6.302 -0.6539 -0.3911  0.8373
 5938TIP3   OH239372   4.616   0.470   1.464 -0.0807 -0.4891 -0.3271
 5938TIP3    H139373   4.698   0.513   1.487 -0.4612 -0.1742  0.4933
 5938TIP3    H239374   4.550   0.540   1.470 -0.6738 -1.1172  0.8219
 5939TIP3   OH239375   2.242   5.232   0.388 -0.8752  0.1121  0.0496
 5939TIP3    H139376   2.169   5.282   0.426 -0.6048  0.7260 -0.2166
 5939TIP3    H239377   2.303   5.219   0.460 -1.3016 -0.5207  0.3060
 5940TIP3   OH239378   0.311   0.236   5.805  0.2645 -0.0854 -0.6564
 5940TIP3    H139379   0.335   0.144   5.819  1.4876  0.3201  0.1992
 5940TIP3    H239380   0.354   0.260   5.723  2.8512  0.5822  0.7751
 5941TIP3   OH239381   6.295   5.387   1.747  0.6831  0.0302 -0.4430
 5941TIP3    H139382   6.386   5.412   1.732  0.8836 -0.3325  0.1346
 5941TIP3    H239383   6.300   5.299   1.783  0.0989  0.0078 -0.4048
 5942TIP3   OH239384   3.980   3.860   7.477  0.0464 -0.6424  1.2733
 5942TIP3    H139385   3.925   3.937   7.464  0.5747 -0.3147  0.9427
 5942TIP3    H239386   4.057   3.876   7.422  0.7435 -0.8261  2.1756
 5943TIP3   OH239387   3.709   4.444   1.701 -0.6778  0.4230 -0.1180
 5943TIP3    H139388   3.722   4.486   1.786  1.8501  0.0555 -0.2392
 5943TIP3    H239389   3.647   4.374   1.718  0.2929 -0.0867  1.6149
 5944TIP3   OH239390   0.490   2.462   0.895 -0.7033  0.0397  0.3691
 5944TIP3    H139391   0.569   2.498   0.854 -1.6263  0.7198 -0.8468
 5944TIP3    H239392   0.507   2.470   0.989  1.3101 -1.2629  0.1799
 5945TIP3   OH239393   5.221   6.425   7.054 -0.1166 -0.1118 -0.3587
 5945TIP3    H139394   5.281   6.367   7.008 -0.1761 -0.0914 -0.4627
 5945TIP3    H239395   5.249   6.513   7.029 -1.0027 -0.1159 -1.4613
 5946TIP3   OH239396   1.568   7.007   0.544 -0.7079  0.1664 -0.3983
 5946TIP3    H139397   1.512   6.983   0.470  1.4046  0.8649 -2.3400
 5946TIP3    H239398   1.653   6.968   0.524  0.1300  0.9865  1.3036
 5947TIP3   OH239399   0.003   5.075   0.577 -0.4600 -0.1095  0.5842
 5947TIP3    H139400  -0.067   5.135   0.604 -1.0388  0.5329 -2.0791
 5947TIP3    H239401   0.083   5.127   0.581 -0.4712 -0.1336  1.3106
 5948TIP3   OH239402   1.880   1.935   5.919  0.1199  0.4379 -0.1663
 5948TIP3    H139403   1.813   1.958   5.854  0.2058 -1.1167 -0.8476
 5948TIP3    H239404   1.857   1.846   5.946  1.3837  0.2229  0.2579
 5949TIP3   OH239405   6.344   4.337   7.541 -0.6295  0.2800  0.0091
 5949TIP3    H139406   6.305   4.323   7.455  1.2345  1.2684 -1.0648
 5949TIP3    H239407   6.399   4.260   7.555 -1.7938 -0.4343  0.8874
 5950TIP3   OH239408   0.416   1.364   1.595  0.0579  0.0376  0.2151
 5950TIP3    H139409   0.357   1.404   1.660 -0.2002 -0.4389  0.2794
 5950TIP3    H239410   0.504   1.389   1.624 -0.1325  1.7864 -0.5532
 5951TIP3   OH239411   1.828   5.826   7.253  0.3041 -0.1355 -0.0296
 5951TIP3    H139412   1.832   5.887   7.326 -0.9122 -0.7478  0.5707
 5951TIP3    H239413   1.762   5.862   7.194  0.3598 -0.3087 -0.2014
 5952TIP3   OH239414   2.848   1.523   0.207 -0.3220  0.1183  0.3092
 5952TIP3    H139415   2.823   1.583   0.137  1.7903  1.6979  0.7890
 5952TIP3    H239416   2.835   1.436   0.170 -4.0426  0.7193 -0.2372
 5953TIP3   OH239417   5.841   0.074   1.840 -0.5947  0.4161  0.2581
 5953TIP3    H139418   5.825   0.158   1.883 -0.7243  0.6136 -0.1697
 5953TIP3    H239419   5.934   0.058   1.854 -0.3255  1.1637 -0.5768
 5954TIP3   OH239420   4.888   7.121   0.774 -0.0116 -0.7731  0.5120
 5954TIP3    H139421   4.921   7.183   0.840  0.8193  0.3388 -0.8668
 5954TIP3    H239422   4.847   7.051   0.825 -0.5044  0.6385  2.1652
 5955TIP3   OH239423   0.174   2.379   7.910  0.2158 -0.0074 -0.2760
 5955TIP3    H139424   0.246   2.331   7.952 -1.2396 -0.4568  1.8642
 5955TIP3    H239425   0.215   2.458   7.875  1.8350 -0.4992  0.4156
 5956TIP3   OH239426   0.675   0.056   0.005 -0.0581 -0.2732 -0.2444
 5956TIP3    H139427   0.681   0.046   0.100 -0.1322  0.2835 -0.1781
 5956TIP3    H239428   0.763   0.036  -0.027 -0.4090 -2.0002 -0.2109
 5957TIP3   OH239429   4.673   6.514   7.488  0.2094  0.4910 -0.5401
 5957TIP3    H139430   4.750   6.564   7.517 -0.1295  1.4800 -1.2580
 5957TIP3    H239431   4.683   6.428   7.528  1.8416  0.5056 -0.8476
 5958TIP3   OH239432   3.734   3.594   5.665 -0.1516 -0.5352 -0.0410
 5958TIP3    H139433   3.730   3.501   5.642  0.2197 -1.1642  2.1925
 5958TIP3    H239434   3.819   3.624   5.630  0.0354 -1.2189 -0.1815
 5959TIP3   OH239435   6.808   5.789   1.699  0.0223  0.3598  0.3401
 5959TIP3    H139436   6.746   5.720   1.721  1.4395 -0.8699  0.5875
 5959TIP3    H239437   6.871   5.748   1.639  0.0340  1.8597 -0.7527
 5960TIP3   OH239438   3.514   3.592   1.979  0.0745 -0.8889  0.1031
 5960TIP3    H139439   3.573   3.528   1.939 -0.3283 -0.0908 -1.8850
 5960TIP3    H239440   3.499   3.657   1.910 -0.3904  0.7825  1.6992
 5961TIP3   OH239441   4.581   6.249   6.344  0.1052  0.0925  0.0720
 5961TIP3    H139442   4.609   6.260   6.435 -2.2001  3.6795  0.5748
 5961TIP3    H239443   4.495   6.207   6.350 -0.3405  0.9106 -0.3488
 5962TIP3   OH239444   2.055   6.638   6.892  0.1699  0.2995 -0.1421
 5962TIP3    H139445   2.051   6.730   6.865 -0.9650 -0.3205 -2.3732
 5962TIP3    H239446   1.994   6.594   6.833 -0.5167 -1.6698  1.9160
 5963TIP3   OH239447   5.834   2.234   0.150 -0.4498 -0.3092  0.5234
 5963TIP3    H139448   5.775   2.166   0.118  0.4889 -0.0312 -1.9963
 5963TIP3    H239449   5.776   2.299   0.189 -1.7470 -0.5446 -0.9201
 5964TIP3   OH239450   6.783   3.869   6.864  0.0805  0.3817  0.0109
 5964TIP3    H139451   6.705   3.842   6.815  0.1334 -0.0990  0.1842
 5964TIP3    H239452   6.819   3.787   6.899 -0.0697  0.7277  1.0282
 5965TIP3   OH239453   6.715   5.027   7.649 -0.6363  0.0663 -0.2637
 5965TIP3    H139454   6.742   5.117   7.633 -2.4041  0.5471 -0.8202
 5965TIP3    H239455   6.687   5.026   7.741 -2.2075  0.5603 -0.7077
 5966TIP3   OH239456   2.574   0.755   1.027 -0.0728 -0.2801 -0.2028
 5966TIP3    H139457   2.523   0.675   1.017 -0.7154  0.2770 -1.8614
 5966TIP3    H239458   2.573   0.773   1.121 -0.7644 -1.6639  0.0818
 5967TIP3   OH239459   2.983   3.816   0.997 -0.2058 -0.2347 -0.5174
 5967TIP3    H139460   2.946   3.866   0.925  1.5767  1.5535 -0.2781
 5967TIP3    H239461   3.017   3.883   1.057 -1.6894 -1.6394  2.0552
 5968TIP3   OH239462   1.348   1.270   0.220 -0.0760 -0.1999 -0.3741
 5968TIP3    H139463   1.393   1.292   0.138  0.6767  2.5540  0.6745
 5968TIP3    H239464   1.418   1.266   0.285 -0.9601  0.8160  0.6781
 5969TIP3   OH239465   3.465   4.915   0.248  0.2959  0.2413 -0.1479
 5969TIP3    H139466   3.428   4.848   0.305  0.2474 -0.9307 -1.5169
 5969TIP3    H239467   3.554   4.929   0.282  0.1343 -0.1269  0.4501
 5970TIP3   OH239468   1.407   5.060   6.207 -0.2949 -0.1595 -0.1124
 5970TIP3    H139469   1.480   5.011   6.244 -0.9372 -1.0129  0.0409
 5970TIP3    H239470   1.447   5.111   6.136  0.8191  1.0101  1.2982
 5971TIP3   OH239471   3.566   1.289   5.452 -0.2463 -0.4476  0.0847
 5971TIP3    H139472   3.600   1.297   5.541 -0.7398  0.1546  0.2277
 5971TIP3    H239473   3.557   1.379   5.422 -0.4431 -0.6386 -0.4356
 5972TIP3   OH239474   4.070   6.962   7.235 -0.4923  0.1485 -0.5662
 5972TIP3    H139475   4.046   7.030   7.298 -0.7807  0.8503 -1.3936
 5972TIP3    H239476   4.158   6.987   7.206 -1.1331  0.9925 -1.8888
 5973TIP3   OH239477   5.802   5.101   5.572  0.2386 -0.2021 -0.1846
 5973TIP3    H139478   5.860   5.133   5.641  0.4363 -3.6875  1.4753
 5973TIP3    H239479   5.853   5.036   5.524 -1.2476 -0.9811 -0.8084
 5974TIP3   OH239480   3.179   3.849   6.395  0.1645 -0.3220 -0.3969
 5974TIP3    H139481   3.108   3.793   6.364  0.2998 -0.4318 -0.5093
 5974TIP3    H239482   3.159   3.863   6.488 -0.7073  0.7319 -0.7340
 5975TIP3   OH239483   5.457   0.454   0.913  0.0536 -0.6605  0.7884
 5975TIP3    H139484   5.443   0.505   0.993  0.6915 -1.1940  1.2540
 5975TIP3    H239485   5.382   0.476   0.857  2.4798  4.6026 -1.1341
 5976TIP3   OH239486   1.853   5.093   5.888 -0.8490 -0.0104 -0.4184
 5976TIP3    H139487   1.911   5.018   5.883 -0.8840 -0.0717  0.0904
 5976TIP3    H239488   1.777   5.068   5.835 -0.8284 -0.3032 -0.3106
 5977TIP3   OH239489   1.535   5.554   7.197 -0.5733 -0.3137 -0.4452
 5977TIP3    H139490   1.507   5.646   7.193  1.3792  0.3372 -0.1887
 5977TIP3    H239491   1.560   5.532   7.108 -1.6447 -0.8139 -0.6298
 5978TIP3   OH239492   1.942   4.452   6.476 -0.0118 -0.0690 -0.8812
 5978TIP3    H139493   1.926   4.402   6.556  1.2417 -0.3312 -0.7732
 5978TIP3    H239494   1.891   4.407   6.409  0.2479 -0.8609 -0.5624
 5979TIP3   OH239495   3.842   1.223   1.116 -0.1531 -0.1370  0.2769
 5979TIP3    H139496   3.769   1.163   1.104 -1.2549  0.6764  2.4584
 5979TIP3    H239497   3.911   1.170   1.155  0.1857 -0.7261 -1.0570
 5980TIP3   OH239498   3.667   3.947   1.028 -0.4089 -0.3701  0.0106
 5980TIP3    H139499   3.661   3.955   0.933 -0.4360  0.6443  0.0903
 5980TIP3    H239500   3.708   4.028   1.057 -0.5592 -0.5892  0.8875
 5981TIP3   OH239501   1.124   4.351   7.133 -1.1665 -0.2946  0.1240
 5981TIP3    H139502   1.135   4.278   7.072  0.2793  0.0431 -0.0507
 5981TIP3    H239503   1.051   4.402   7.097  0.8357  0.9473 -2.4154
 5982TIP3   OH239504   2.912   7.081   1.401 -0.1938  0.0251 -0.0405
 5982TIP3    H139505   2.909   7.173   1.376 -0.0495  0.3013  0.8982
 5982TIP3    H239506   2.933   7.083   1.495  3.7561 -1.0174 -0.7069
 5983TIP3   OH239507   0.943   3.708   7.340  0.0680  0.0993 -0.1480
 5983TIP3    H139508   0.968   3.724   7.431  0.7959 -0.9115 -0.1570
 5983TIP3    H239509   0.924   3.795   7.305 -2.4045  0.3350  1.5650
 5984TIP3   OH239510   6.546   3.509   6.188  0.1646  0.5048  0.3248
 5984TIP3    H139511   6.482   3.480   6.122  0.5181 -2.6732  1.2112
 5984TIP3    H239512   6.494   3.523   6.267  0.0510  2.1566 -0.0034
 5985TIP3   OH239513   2.227   1.617   7.486  0.3003  0.0338  0.6199
 5985TIP3    H139514   2.234   1.706   7.453  1.1119  0.2999  1.4483
 5985TIP3    H239515   2.241   1.561   7.410 -0.9191  0.5938 -0.0414
 5986TIP3   OH239516   0.004   2.830   6.968  0.1195  0.0426 -0.2543
 5986TIP3    H139517   0.015   2.787   6.883  0.3286 -0.3759 -0.0186
 5986TIP3    H239518  -0.047   2.909   6.948 -2.9039 -1.7594 -0.3142
 5987TIP3   OH239519   5.757   5.018   6.282  0.0887  0.5872  0.2475
 5987TIP3    H139520   5.807   5.039   6.203 -0.8802  2.7029  0.1216
 5987TIP3    H239521   5.761   4.923   6.289  0.4354  0.3715 -2.1668
 5988TIP3   OH239522   4.459   3.417   6.694 -0.6165  0.0061  0.3371
 5988TIP3    H139523   4.473   3.381   6.782  0.5377 -1.2472 -0.3135
 5988TIP3    H239524   4.447   3.340   6.638  0.5686  0.6609 -0.8965
 5989TIP3   OH239525   5.571   4.634   7.272  0.3018  0.0425  0.0080
 5989TIP3    H139526   5.526   4.610   7.353  0.7319  1.5809  0.7289
 5989TIP3    H239527   5.659   4.595   7.281  0.6661  1.0091  0.7210
 5990TIP3   OH239528   6.243   5.532   0.180 -0.7122 -0.3341  0.0936
 5990TIP3    H139529   6.249   5.612   0.128 -1.5047  0.3662  1.0406
 5990TIP3    H239530   6.223   5.562   0.269  1.0659 -1.4628  0.9396
 5991TIP3   OH239531   5.522   4.642   7.757  0.3079  0.4053 -0.4491
 5991TIP3    H139532   5.617   4.638   7.743 -0.0284 -3.4912 -3.7727
 5991TIP3    H239533   5.486   4.652   7.669 -2.3278 -1.0411  0.3692
 5992TIP3   OH239534   6.976   0.256   6.445  0.4286  0.3192 -0.1912
 5992TIP3    H139535   6.886   0.226   6.457  0.4872 -0.8470 -2.2998
 5992TIP3    H239536   6.968   0.337   6.394  0.5283  1.2783  1.2498
 5993TIP3   OH239537   4.912   5.210   7.569 -0.1020 -0.0936 -0.3443
 5993TIP3    H139538   4.915   5.304   7.551  2.5687 -0.0450 -0.0940
 5993TIP3    H239539   4.842   5.200   7.634 -0.7427  1.6513 -0.7174
 5994TIP3   OH239540   4.636   5.671   6.868 -0.2965 -0.0752 -0.4235
 5994TIP3    H139541   4.647   5.610   6.940 -0.2168  1.0505  0.5569
 5994TIP3    H239542   4.633   5.616   6.790 -4.0930 -1.6916  0.6577
 5995TIP3   OH239543   3.393   2.938   1.375 -0.0089 -0.3473 -0.1018
 5995TIP3    H139544   3.341   2.979   1.306 -0.4516 -2.1983 -0.9270
 5995TIP3    H239545   3.353   2.968   1.457 -1.8090 -0.9705 -0.7105
 5996TIP3   OH239546   3.942   5.236   7.353 -0.3180  0.0426  0.0898
 5996TIP3    H139547   3.934   5.208   7.262 -0.0346 -0.1537  0.1244
 5996TIP3    H239548   3.858   5.276   7.374 -1.3278 -2.1478  0.5109
 5997TIP3   OH239549   2.508   6.488   7.331 -0.5139 -0.1819  0.6437
 5997TIP3    H139550   2.487   6.491   7.425 -0.3750 -2.7743  0.8169
 5997TIP3    H239551   2.429   6.453   7.290  0.6550 -2.6611  0.3337
 5998TIP3   OH239552   4.113   6.549   6.823 -0.8521  0.0004  0.1709
 5998TIP3    H139553   4.195   6.509   6.852  0.0234  0.8004 -1.0870
 5998TIP3    H239554   4.110   6.634   6.867 -1.2319 -0.2103  0.5567
 5999TIP3   OH239555   1.213   2.467   2.284 -0.2920 -0.2241 -0.3221
 5999TIP3    H139556   1.189   2.455   2.376 -3.5260 -1.8907 -1.2412
 5999TIP3    H239557   1.220   2.378   2.249  0.9111  0.3841 -1.7065
 6000TIP3   OH239558   0.157   3.009   5.950 -0.8559  0.1869 -0.5779
 6000TIP3    H139559   0.246   2.989   5.922 -0.5830  2.4695 -1.5944
 6000TIP3    H239560   0.109   3.024   5.868 -2.1060 -0.7023 -0.0355
 6001TIP3   OH239561   7.138   1.799   6.338  0.0798 -0.8810 -0.3958
 6001TIP3    H139562   7.133   1.879   6.285 -0.0521 -0.9668 -0.5133
 6001TIP3    H239563   7.049   1.765   6.339 -0.1447 -0.3104  0.7778
 6002TIP3   OH239564   1.515   4.646   1.002  0.1586  0.0576 -0.3265
 6002TIP3    H139565   1.441   4.586   1.006 -0.0210  0.2082 -1.0905
 6002TIP3    H239566   1.484   4.719   0.949  1.2444 -0.4739 -1.7822
 6003TIP3   OH239567   1.943   0.342   7.849  0.3879 -0.4610 -0.5620
 6003TIP3    H139568   1.894   0.274   7.804  0.9968 -0.4834 -1.2158
 6003TIP3    H239569   1.985   0.392   7.779 -1.9239  2.1065 -0.2762
 6004TIP3   OH239570   2.084   4.036   1.578  0.1603  0.2526  0.1382
 6004TIP3    H139571   2.049   4.044   1.666 -0.4177  1.7774 -0.2089
 6004TIP3    H239572   2.062   4.118   1.535 -0.0034 -0.6496 -1.5987
 6005TIP3   OH239573   6.115   2.330   1.626  0.0051  0.3005  0.2031
 6005TIP3    H139574   6.169   2.343   1.703 -0.4651  2.6071  0.2140
 6005TIP3    H239575   6.055   2.405   1.626 -2.0978 -1.2789 -0.7063
 6006TIP3   OH239576   4.746   4.446   7.199  0.0042 -0.5171  0.4637
 6006TIP3    H139577   4.804   4.503   7.249 -0.4353 -0.2664  0.6934
 6006TIP3    H239578   4.802   4.409   7.131  0.2687  0.2812  0.2376
 6007TIP3   OH239579   3.358   0.194   7.581  0.1203 -0.1843  0.2686
 6007TIP3    H139580   3.379   0.161   7.493 -2.0229 -0.5012 -0.1896
 6007TIP3    H239581   3.344   0.116   7.633 -1.0068 -0.0221  0.2341
 6008TIP3   OH239582   6.525   1.911   0.231  0.3244 -0.5603 -0.5117
 6008TIP3    H139583   6.528   1.826   0.274 -0.0505 -0.5573 -0.4718
 6008TIP3    H239584   6.432   1.923   0.208  0.5235 -0.5873 -1.3722
 6009TIP3   OH239585   0.193   3.054   7.472 -0.1974 -0.0407  0.3249
 6009TIP3    H139586   0.138   3.086   7.401 -0.2589 -0.6900  0.0749
 6009TIP3    H239587   0.258   3.123   7.485 -1.9629  1.5024  1.6703
 6010TIP3   OH239588   1.030   4.847   6.431 -0.0763  0.0205  0.0277
 6010TIP3    H139589   0.953   4.903   6.420 -0.9962 -0.8507  1.6660
 6010TIP3    H239590   1.086   4.868   6.356 -1.9825  0.5282 -1.3108
 6011TIP3   OH239591   4.854   0.276   6.199 -0.0194 -0.2793 -0.0933
 6011TIP3    H139592   4.899   0.213   6.143  0.0534  0.4808 -0.9247
 6011TIP3    H239593   4.912   0.352   6.200 -1.4607  0.9202 -1.5998
 6012TIP3   OH239594   4.155   2.334   0.759 -0.2576 -0.1083 -0.4055
 6012TIP3    H139595   4.241   2.359   0.791  0.1253 -0.6519 -0.9820
 6012TIP3    H239596   4.172   2.261   0.699 -1.2604 -1.3144  0.7288
 6013TIP3   OH239597   6.283   0.153   7.694 -0.0347  0.2227 -0.0001
 6013TIP3    H139598   6.195   0.141   7.660  0.1016  2.3900 -1.2753
 6013TIP3    H239599   6.284   0.103   7.776 -2.5964  0.5747  0.3235
 6014TIP3   OH239600   3.555   4.591   7.455 -0.1193  0.0325 -0.1997
 6014TIP3    H139601   3.556   4.680   7.419  0.4608  0.1590  0.1101
 6014TIP3    H239602   3.592   4.537   7.384  0.9928  0.2770  0.1778
 6015TIP3   OH239603   1.102   3.575   1.332 -0.0424  0.4739 -0.3631
 6015TIP3    H139604   1.039   3.512   1.297  0.5197  0.2030 -0.9241
 6015TIP3    H239605   1.059   3.614   1.407 -0.7318  0.0271 -0.5205
 6016TIP3   OH239606   3.756   5.070   1.276  0.1460  0.1269  0.0675
 6016TIP3    H139607   3.777   5.129   1.348 -0.6964 -1.0424  1.3114
 6016TIP3    H239608   3.662   5.082   1.260 -0.0077 -0.7626  0.2438
 6017TIP3   OH239609   3.764   5.477   7.390 -0.4521  0.0172  0.3764
 6017TIP3    H139610   3.792   5.554   7.439  0.7913 -1.3439  1.9420
 6017TIP3    H239611   3.804   5.487   7.304 -0.4884  1.2051  0.4759
 6018TIP3   OH239612   5.293   4.306   6.647  0.4022  0.3745  0.4353
 6018TIP3    H139613   5.272   4.391   6.686 -0.3027 -0.1202  1.1756
 6018TIP3    H239614   5.388   4.297   6.659  0.4508  0.9689  0.5309
 6019TIP3   OH239615   3.932   1.764   0.128  0.7224  0.1408 -1.1304
 6019TIP3    H139616   3.856   1.818   0.152  1.0859 -0.0455  0.5918
 6019TIP3    H239617   3.893   1.685   0.091  0.1544  0.9202 -2.2910
 6020TIP3   OH239618   6.435   5.060   7.611 -0.4331 -0.0843  0.5871
 6020TIP3    H139619   6.526   5.034   7.596 -0.6040 -0.3998  0.0840
 6020TIP3    H239620   6.384   4.981   7.595 -0.8195  0.1545  0.6266
 6021TIP3   OH239621   1.731   2.265   7.415  0.2013  0.5065  0.3736
 6021TIP3    H139622   1.723   2.170   7.430 -0.1066  0.5893  0.7494
 6021TIP3    H239623   1.802   2.273   7.351 -0.8012 -0.0730 -0.8580
 6022TIP3   OH239624   4.643   5.276   7.061 -0.4507 -0.5204  0.0670
 6022TIP3    H139625   4.682   5.197   7.097  1.6045  0.5912  0.4184
 6022TIP3    H239626   4.717   5.333   7.043 -1.6648  0.3634 -2.6061
 6023TIP3   OH239627   0.797   3.703   1.344  0.3433 -0.2588 -0.3024
 6023TIP3    H139628   0.836   3.648   1.412 -1.0470  0.2573  0.9451
 6023TIP3    H239629   0.834   3.790   1.359 -0.6521  0.0585  0.3935
 6024TIP3   OH239630   0.411   0.500   1.090  0.5453  0.0715 -0.7595
 6024TIP3    H139631   0.450   0.559   1.026  1.1921  1.2911  0.7062
 6024TIP3    H239632   0.388   0.556   1.164  1.6563 -1.5500  0.9047
 6025TIP3   OH239633   0.373   5.553   6.855  0.3154  0.4011  0.1832
 6025TIP3    H139634   0.417   5.490   6.798  2.3297  1.0506  0.9213
 6025TIP3    H239635   0.339   5.619   6.796  1.0173  0.2687 -0.3834
 6026TIP3   OH239636   3.563   5.784   0.233 -0.0431  0.3654 -0.3254
 6026TIP3    H139637   3.604   5.792   0.319  2.4156 -1.8577 -1.1429
 6026TIP3    H239638   3.496   5.852   0.231  1.1839  1.8050  2.5626
 6027TIP3   OH239639   0.275   2.894   2.271  0.1664  0.3067  0.3172
 6027TIP3    H139640   0.191   2.902   2.227 -0.3451 -1.2993  0.9197
 6027TIP3    H239641   0.290   2.800   2.275  1.7549  0.5545  0.6844
 6028TIP3   OH239642   4.327   5.764   0.120  0.3109  0.0265  0.1733
 6028TIP3    H139643   4.255   5.707   0.091 -0.6256  0.1963  2.0565
 6028TIP3    H239644   4.401   5.705   0.131 -0.3610 -0.6758  1.0649
 6029TIP3   OH239645   1.501   3.219   7.970 -0.6211  0.4192 -0.4569
 6029TIP3    H139646   1.570   3.196   7.907 -1.0670 -0.7131 -0.5493
 6029TIP3    H239647   1.523   3.171   8.049 -0.1889  1.6662  0.2169
 6030TIP3   OH239648   7.104   5.060   0.892 -0.1681  0.3254 -0.0680
 6030TIP3    H139649   7.076   5.150   0.906 -1.3918 -0.1168  0.5158
 6030TIP3    H239650   7.197   5.066   0.872 -0.6880  1.9441 -2.4667
 6031TIP3   OH239651   4.931   5.862   2.280 -0.0319 -0.2763 -1.0562
 6031TIP3    H139652   4.986   5.838   2.354 -1.1936 -1.3113 -0.4915
 6031TIP3    H239653   4.923   5.957   2.285  0.6525 -0.2488 -0.4007
 6032TIP3   OH239654   3.193   2.617   1.967 -0.5745  0.3953  0.0187
 6032TIP3    H139655   3.166   2.656   1.884 -1.2295  0.1098  0.0950
 6032TIP3    H239656   3.253   2.546   1.943  0.4423  1.2675 -0.1312
 6033TIP3   OH239657   4.885   5.982   7.511  0.8787 -0.1485  0.1033
 6033TIP3    H139658   4.960   5.948   7.560 -0.1791  0.3158  2.1248
 6033TIP3    H239659   4.823   5.909   7.508  0.4389  0.2023  0.5438
 6034TIP3   OH239660   6.722   0.452   1.618  0.3696 -0.4977  0.0697
 6034TIP3    H139661   6.748   0.417   1.703 -1.2443 -2.4518 -0.1689
 6034TIP3    H239662   6.771   0.534   1.610 -0.4965  0.5264  3.5253
 6035TIP3   OH239663   2.392   6.006   1.396  0.3136  0.7639  0.6166
 6035TIP3    H139664   2.445   6.076   1.358 -0.8542  1.6955  0.6585
 6035TIP3    H239665   2.329   6.051   1.452 -1.3000 -0.1923 -0.3450
 6036TIP3   OH239666   2.685   2.617   1.439  0.4801  0.1234 -0.4655
 6036TIP3    H139667   2.689   2.643   1.347  2.8051  0.8014 -0.2331
 6036TIP3    H239668   2.667   2.523   1.437 -2.0923  0.5401 -1.4790
 6037TIP3   OH239669   6.494   0.609   6.943 -0.0949  0.2193  0.2503
 6037TIP3    H139670   6.567   0.575   6.892  1.1260  0.9116  1.4627
 6037TIP3    H239671   6.435   0.646   6.878 -0.6088 -2.4813 -0.9642
 6038TIP3   OH239672   4.924   0.691   7.905  0.1786  0.4943 -0.1590
 6038TIP3    H139673   5.000   0.638   7.880 -0.0566  1.0510 -2.2508
 6038TIP3    H239674   4.893   0.728   7.822 -2.3266  0.3633  0.6500
 6039TIP3   OH239675   5.209   7.021   7.652 -0.2355  0.1070 -0.2386
 6039TIP3    H139676   5.177   7.069   7.728  1.8502 -0.4413  1.0890
 6039TIP3    H239677   5.160   6.938   7.654 -1.7851  0.9607 -0.8649
 6040TIP3   OH239678   5.326   1.333   0.584  0.0480  0.1180 -0.2789
 6040TIP3    H139679   5.271   1.340   0.507  0.4916  0.0619 -0.6042
 6040TIP3    H239680   5.366   1.247   0.578 -0.9677 -0.4537  0.7291
 6041TIP3   OH239681   7.131   0.425   7.334 -0.3346  0.1907  0.1295
 6041TIP3    H139682   7.213   0.380   7.312 -0.6413 -0.7723  0.8922
 6041TIP3    H239683   7.137   0.510   7.289  2.1042  1.1075  1.9500
 6042TIP3   OH239684   2.992   3.331   6.644 -0.1626  0.1189 -0.0260
 6042TIP3    H139685   2.962   3.275   6.573  2.1636 -0.9003 -0.2961
 6042TIP3    H239686   3.082   3.353   6.621 -0.5617  2.9573  0.7378
 6043TIP3   OH239687   1.292   0.674   7.251 -0.0876 -0.0587 -0.2609
 6043TIP3    H139688   1.380   0.710   7.254  0.3767 -1.1848  1.6814
 6043TIP3    H239689   1.292   0.606   7.319 -1.6329 -1.9841 -2.0294
 6044TIP3   OH239690   3.669   5.996   0.440  0.0750 -0.1607 -0.1022
 6044TIP3    H139691   3.748   6.030   0.482 -0.4686  1.5422 -0.3808
 6044TIP3    H239692   3.603   5.997   0.510 -0.0900 -0.1401 -0.2598
 6045TIP3   OH239693   0.407   5.801   1.580  0.0921 -0.3773  0.3141
 6045TIP3    H139694   0.427   5.785   1.487  0.5281  0.4937  0.2497
 6045TIP3    H239695   0.446   5.727   1.626  0.4683 -0.4678 -0.1414
 6046TIP3   OH239696   6.737   4.094   7.466  0.8402  0.2040  0.2546
 6046TIP3    H139697   6.657   4.065   7.510  1.1841  0.2602  0.9360
 6046TIP3    H239698   6.792   4.016   7.463  1.1549  0.4000  0.7046
 6047TIP3   OH239699   5.078   3.591   2.090  0.4616  0.1877  0.1143
 6047TIP3    H139700   5.058   3.667   2.036  2.4926 -0.4673 -1.6797
 6047TIP3    H239701   5.004   3.531   2.076  0.6744  0.2666 -1.5226
 6048TIP3   OH239702   6.039   0.715   0.430 -0.3231  0.4523  0.4615
 6048TIP3    H139703   6.056   0.794   0.480 -0.7340  0.7481  0.1451
 6048TIP3    H239704   6.063   0.737   0.340  0.9031 -0.2394  0.5909
 6049TIP3   OH239705   5.876   5.265   7.988  0.2392  0.1094 -0.2864
 6049TIP3    H139706   5.949   5.326   7.983  1.4081 -1.1660  0.6862
 6049TIP3    H239707   5.825   5.294   8.063 -1.0223  1.7390 -1.6709
 6050TIP3   OH239708   3.192   1.789   1.465 -0.0982  0.0662  0.3325
 6050TIP3    H139709   3.260   1.796   1.532 -0.1560  0.0270  0.3952
 6050TIP3    H239710   3.110   1.797   1.513 -0.1322  0.5436  0.2057
 6051TIP3   OH239711   1.037   3.731   6.676  0.3234 -0.3596  0.4538
 6051TIP3    H139712   1.131   3.749   6.680  0.2796 -0.2433  1.0082
 6051TIP3    H239713   0.996   3.812   6.707  0.0108 -0.1091 -0.5597
 6052TIP3   OH239714   6.044   0.153   6.145 -0.0844  0.3662  0.2643
 6052TIP3    H139715   6.063   0.102   6.066 -1.4277 -3.0754  1.9352
 6052TIP3    H239716   5.948   0.154   6.151 -0.0321  1.4246  1.3491
 6053TIP3   OH239717   5.542   2.342   1.432  0.1361 -0.1174 -0.2532
 6053TIP3    H139718   5.461   2.371   1.475  0.1568 -0.1077 -0.2207
 6053TIP3    H239719   5.590   2.424   1.415 -0.1579 -0.0710 -0.8676
 6054TIP3   OH239720   3.051   3.958   1.229  0.0113 -0.2419  0.1484
 6054TIP3    H139721   3.046   4.010   1.309  0.9985 -0.6974  0.5130
 6054TIP3    H239722   3.043   3.868   1.259 -2.6254 -0.3368 -0.5562
 6055TIP3   OH239723   0.651   3.894   0.856 -0.0682 -0.8248  0.0828
 6055TIP3    H139724   0.718   3.828   0.839  0.0595 -0.7620  0.3476
 6055TIP3    H239725   0.700   3.975   0.874 -0.2247 -0.2865 -1.6855
 6056TIP3   OH239726   3.841   0.174   0.447  0.1395 -0.2384 -0.2404
 6056TIP3    H139727   3.828   0.141   0.358  1.1327  2.1576 -1.3573
 6056TIP3    H239728   3.928   0.214   0.445 -0.9145  2.3263  0.9456
 6057TIP3   OH239729   6.285   0.446   7.423  0.0760 -0.2681 -0.2017
 6057TIP3    H139730   6.211   0.451   7.484  0.6552  1.1380  0.4317
 6057TIP3    H239731   6.353   0.400   7.472  0.5798  0.9592  0.2897
 6058TIP3   OH239732   5.343   2.319   0.638  0.4734  0.0846 -0.6375
 6058TIP3    H139733   5.255   2.334   0.672  0.4046 -1.4569 -0.0524
 6058TIP3    H239734   5.344   2.364   0.553 -1.6849 -1.8169 -1.7765
 6059TIP3   OH239735   5.361   7.123   2.040  0.8127  0.5901 -0.3322
 6059TIP3    H139736   5.397   7.181   1.973 -0.2133  2.3533  0.5522
 6059TIP3    H239737   5.270   7.110   2.014  1.3223 -1.7591 -1.1992
 6060TIP3   OH239738   6.918   4.647   0.199  0.3226 -0.6995 -0.7500
 6060TIP3    H139739   6.995   4.658   0.254 -0.6218 -0.5348  0.6168
 6060TIP3    H239740   6.906   4.731   0.155  0.2473 -0.3336 -0.0367
 6061TIP3   OH239741   0.778   4.342   6.551 -0.9722  0.2764 -0.0730
 6061TIP3    H139742   0.753   4.434   6.552  0.5233  0.7204 -0.8074
 6061TIP3    H239743   0.745   4.307   6.634 -2.1507  1.3002 -0.0936
 6062TIP3   OH239744   2.300   5.913   7.833  0.3995  0.2560  0.0053
 6062TIP3    H139745   2.361   5.975   7.791  0.9465 -0.0020  0.4160
 6062TIP3    H239746   2.356   5.856   7.885 -0.3421  1.2838  2.0532
 6063TIP3   OH239747   4.471   0.886   7.373 -0.0617  0.3392 -0.2558
 6063TIP3    H139748   4.463   0.844   7.459  1.0016 -1.8732 -1.1609
 6063TIP3    H239749   4.413   0.834   7.317  1.2841  0.0379 -1.4164
 6064TIP3   OH239750   3.211   1.138   5.865 -0.8631 -0.1487  0.3325
 6064TIP3    H139751   3.215   1.204   5.797  0.1554 -0.5861 -0.0498
 6064TIP3    H239752   3.271   1.069   5.836  1.5015  0.6975  2.7352
 6065TIP3   OH239753   5.804   4.228   1.795  0.2010 -0.2494  0.1007
 6065TIP3    H139754   5.737   4.257   1.858 -0.3649  1.3664 -1.1356
 6065TIP3    H239755   5.886   4.232   1.843 -0.1513  1.4395  0.6553
 6066TIP3   OH239756   1.647   1.786   7.852 -0.0586 -0.3423  0.5425
 6066TIP3    H139757   1.617   1.779   7.942 -0.9032  0.5291  0.3484
 6066TIP3    H239758   1.739   1.760   7.855  0.1350  0.3992  1.7810
 6067TIP3   OH239759   0.665   2.586   7.943 -0.3184  0.6800  0.0150
 6067TIP3    H139760   0.627   2.629   8.019 -1.4097  1.1126 -0.7556
 6067TIP3    H239761   0.709   2.656   7.895 -1.1236  0.7591 -0.6419
 6068TIP3   OH239762   3.891   3.816   0.098  0.1434 -0.2556  0.3105
 6068TIP3    H139763   3.855   3.904   0.111  1.0343 -0.0009  1.1681
 6068TIP3    H239764   3.976   3.831   0.058 -0.1336 -0.7940 -0.5140
 6069TIP3   OH239765   1.388   6.967   6.838  0.9084  0.4414 -0.3484
 6069TIP3    H139766   1.379   6.887   6.787 -2.0685  0.9495 -0.7691
 6069TIP3    H239767   1.445   6.942   6.912  4.4892 -0.5710 -3.1411
 6070TIP3   OH239768   2.391   5.882   6.517 -0.2365 -0.2395  0.1896
 6070TIP3    H139769   2.297   5.864   6.523 -0.4088  0.6240  0.2516
 6070TIP3    H239770   2.405   5.910   6.427 -0.0878 -0.1238  0.2477
 6071TIP3   OH239771   6.322   6.956   1.202 -0.2733  0.3812  0.1574
 6071TIP3    H139772   6.330   7.031   1.261 -1.4713  0.5144  0.1818
 6071TIP3    H239773   6.229   6.934   1.204  0.0949 -1.3305  0.4198
 6072TIP3   OH239774   0.237   3.418   5.575  0.2404  0.0269 -0.5735
 6072TIP3    H139775   0.228   3.326   5.551 -1.5013 -0.6350  2.0782
 6072TIP3    H239776   0.312   3.420   5.635  1.4964  0.7457 -2.1031
 6073TIP3   OH239777   2.385   4.203   7.083 -0.4440 -0.2174  0.0576
 6073TIP3    H139778   2.383   4.118   7.039  3.5288 -0.9611  0.9430
 6073TIP3    H239779   2.325   4.193   7.157 -0.8112 -1.8791 -0.4324
 6074TIP3   OH239780   1.174   1.168   1.905 -0.2518  0.1870  0.1173
 6074TIP3    H139781   1.126   1.175   1.823 -1.3311 -1.4521  0.5622
 6074TIP3    H239782   1.171   1.075   1.927  1.4010  0.3442  1.2125
 6075TIP3   OH239783   5.762   0.848   1.346 -0.3928 -0.0703 -0.5379
 6075TIP3    H139784   5.763   0.784   1.417  1.3866  0.5364  0.0421
 6075TIP3    H239785   5.834   0.820   1.289 -0.8319  0.3252 -1.2921
 6076TIP3   OH239786   2.650   6.883   7.173  0.3026  0.5534  0.9187
 6076TIP3    H139787   2.689   6.872   7.259  3.0594  0.6545 -0.2107
 6076TIP3    H239788   2.644   6.794   7.138  1.3578  0.6831  0.3721
 6077TIP3   OH239789   2.920   2.255   1.083  0.6264  0.0776 -0.2494
 6077TIP3    H139790   2.925   2.287   1.173 -0.7393  1.3900 -0.5961
 6077TIP3    H239791   3.009   2.228   1.062  1.5491  2.2417  0.6194
 6078TIP3   OH239792   2.138   6.945   6.552  1.1049  0.2166  0.5826
 6078TIP3    H139793   2.102   6.988   6.475  0.0088 -2.8751 -0.7931
 6078TIP3    H239794   2.224   6.914   6.524  0.5784 -1.1866  0.4158
 6079TIP3   OH239795   0.311   2.264   7.578 -0.5440 -0.0142 -0.0595
 6079TIP3    H139796   0.284   2.205   7.508 -0.7004 -0.3350  0.2699
 6079TIP3    H239797   0.244   2.333   7.578 -0.4597  0.0697 -0.3228
 6080TIP3   OH239798   2.887   1.276   1.022 -0.0922  0.1425 -0.5466
 6080TIP3    H139799   2.976   1.271   0.988  0.2548  0.9988  0.1808
 6080TIP3    H239800   2.861   1.367   1.011 -0.6496  0.0358 -0.2080
 6081TIP3   OH239801   5.405   5.359   6.141  0.1233 -0.0932 -0.0696
 6081TIP3    H139802   5.312   5.347   6.122  0.1276  0.5457 -0.5170
 6081TIP3    H239803   5.440   5.270   6.148 -0.8435 -0.3730  1.7721
 6082TIP3   OH239804   3.534   5.659   0.713 -0.5443 -0.3734 -0.3249
 6082TIP3    H139805   3.626   5.684   0.724 -0.7607 -0.1965  1.2541
 6082TIP3    H239806   3.524   5.580   0.766 -1.4726  0.0150  0.1002
 6083TIP3   OH239807   4.790   5.608   6.398  0.4354 -0.3669  0.0696
 6083TIP3    H139808   4.838   5.537   6.441 -0.3904  1.3942  4.4843
 6083TIP3    H239809   4.698   5.588   6.415 -0.0244 -0.0843 -1.9213
 6084TIP3   OH239810   0.965   1.012   0.922  0.3032 -0.1861  0.4761
 6084TIP3    H139811   0.965   1.079   0.853  1.6213  0.0232  0.6517
 6084TIP3    H239812   1.050   0.969   0.913 -0.1702 -1.2510  0.9435
 6085TIP3   OH239813   3.401   0.122   0.658 -0.2347  0.6995 -0.1544
 6085TIP3    H139814   3.363   0.087   0.577 -1.2283  0.6409  0.3280
 6085TIP3    H239815   3.444   0.203   0.630 -1.8445  1.4718 -0.5164
 6086TIP3   OH239816   2.242   4.681   0.743  0.2238  0.3379 -0.0996
 6086TIP3    H139817   2.244   4.646   0.654 -0.1465 -0.6357  0.2590
 6086TIP3    H239818   2.306   4.628   0.791 -0.2521  0.2281  0.4249
 6087TIP3   OH239819   0.571   2.126   1.063  0.1708  0.5889  0.0698
 6087TIP3    H139820   0.578   2.168   0.978  0.3578  0.6609  0.1195
 6087TIP3    H239821   0.653   2.077   1.072 -1.3618 -2.5681 -1.4592
 6088TIP3   OH239822   4.291   6.709   0.068  0.2472 -0.5613  0.3331
 6088TIP3    H139823   4.201   6.715   0.099 -0.5681  1.5050 -2.0867
 6088TIP3    H239824   4.341   6.768   0.125  0.0649 -1.4802  1.4858
 6089TIP3   OH239825   4.453   2.335   0.851 -0.0073 -0.2182  0.5657
 6089TIP3    H139826   4.467   2.351   0.757 -1.4170  0.3425  0.4261
 6089TIP3    H239827   4.522   2.272   0.875  1.2278  0.6623 -0.5208
 6090TIP3   OH239828   5.358   7.014   7.108  0.1165  0.0760  0.1230
 6090TIP3    H139829   5.345   7.057   7.192  0.8256  2.2626 -0.8112
 6090TIP3    H239830   5.277   6.966   7.092  1.0602 -3.0038  3.3793
 6091TIP3   OH239831   3.804   2.851   7.163  1.0875  0.2618  0.1192
 6091TIP3    H139832   3.867   2.923   7.163 -0.1862  1.4134  0.7278
 6091TIP3    H239833   3.822   2.803   7.082  1.0763  2.0741 -1.0161
 6092TIP3   OH239834   5.226   4.606   1.109  0.1127 -0.5291 -0.0843
 6092TIP3    H139835   5.210   4.575   1.198  0.4621 -0.8987 -0.1457
 6092TIP3    H239836   5.168   4.681   1.098  0.6758  0.0511  0.7514
 6093TIP3   OH239837   1.462   3.466   0.982 -0.2620 -0.3686 -0.7241
 6093TIP3    H139838   1.556   3.456   0.970  0.0500  2.0487 -0.8058
 6093TIP3    H239839   1.451   3.557   1.008 -2.5832 -0.6325 -0.5882
 6094TIP3   OH239840   0.558   5.262   7.726  0.1805 -0.6492 -0.1707
 6094TIP3    H139841   0.510   5.334   7.768 -2.4568 -2.6580  0.4626
 6094TIP3    H239842   0.520   5.256   7.638  1.5450 -0.2872 -0.8152
 6095TIP3   OH239843   2.922   5.963   5.753 -0.5046  0.0365 -0.1977
 6095TIP3    H139844   2.968   5.882   5.729  1.1979 -0.1213  3.0468
 6095TIP3    H239845   2.984   6.033   5.736  0.3854  0.0030  2.4351
 6096TIP3   OH239846   1.041   4.330   7.637  0.0062  0.1645  0.3540
 6096TIP3    H139847   0.989   4.410   7.628 -0.4070 -0.1710 -0.3805
 6096TIP3    H239848   1.089   4.323   7.554 -1.8089 -1.5995 -0.6475
 6097TIP3   OH239849   6.911   1.915   0.331  0.3431 -0.2668 -0.0552
 6097TIP3    H139850   6.902   1.990   0.272 -1.8420 -0.4665 -0.0416
 6097TIP3    H239851   7.005   1.906   0.344  0.6669  2.4575 -0.0632
 6098TIP3   OH239852   3.699   4.215   6.064 -0.2702 -0.3902 -0.1240
 6098TIP3    H139853   3.786   4.254   6.064 -0.6772  0.6014  1.4065
 6098TIP3    H239854   3.645   4.277   6.014 -0.9094  1.1308  2.2797
 6099TIP3   OH239855   1.204   1.441   1.975  0.4254 -0.2216 -0.1011
 6099TIP3    H139856   1.158   1.358   1.961  0.6243 -0.3441 -0.0376
 6099TIP3    H239857   1.207   1.482   1.889 -0.4295  0.1197  0.0156
 6100TIP3   OH239858   0.919   2.666   0.611  0.5433  0.3127 -0.6937
 6100TIP3    H139859   1.009   2.635   0.607  0.2978 -0.4074 -0.8143
 6100TIP3    H239860   0.916   2.740   0.549  0.8531 -0.1790 -1.3007
 6101TIP3   OH239861   1.845   1.122   1.651  0.6612 -0.2744  0.1260
 6101TIP3    H139862   1.824   1.114   1.558  0.9789 -1.4896  0.1422
 6101TIP3    H239863   1.935   1.090   1.659  0.7065 -0.0062  0.8218
 6102TIP3   OH239864   0.020   1.751   0.112 -0.6818 -0.2802 -0.0631
 6102TIP3    H139865  -0.069   1.721   0.130 -0.6319  0.0494  0.7372
 6102TIP3    H239866   0.041   1.713   0.026 -1.2834 -1.0434  0.1183
 6103TIP3   OH239867   3.166   4.696   0.942 -0.3762 -0.7284  0.2444
 6103TIP3    H139868   3.261   4.697   0.928 -0.1027 -2.4370  1.6598
 6103TIP3    H239869   3.135   4.622   0.889 -1.4245  1.5076 -2.5278
 6104TIP3   OH239870   3.614   4.521   7.194 -0.5471 -0.3216  0.1748
 6104TIP3    H139871   3.600   4.432   7.160 -0.1834 -0.3066 -0.0247
 6104TIP3    H239872   3.552   4.575   7.145  0.8226 -0.0972 -1.4153
 6105TIP3   OH239873   4.665   6.249   6.994 -0.9246 -0.1445 -0.8973
 6105TIP3    H139874   4.723   6.196   6.940 -0.7188  0.4156 -1.2382
 6105TIP3    H239875   4.706   6.248   7.081 -0.4576  0.1609 -1.1129
 6106TIP3   OH239876   0.290   4.801   1.079 -0.0106 -0.6040  0.4121
 6106TIP3    H139877   0.308   4.750   1.000  0.7438 -0.3422  0.4165
 6106TIP3    H239878   0.301   4.892   1.052  1.5651 -0.5624  1.1447
 6107TIP3   OH239879   0.267   3.695   0.620 -0.4361  0.2802 -0.0745
 6107TIP3    H139880   0.271   3.656   0.532  0.0663  0.4899 -0.1501
 6107TIP3    H239881   0.174   3.701   0.640 -0.7129 -4.7518  1.6075
 6108TIP3   OH239882   1.773   3.833   1.234 -0.3036 -0.4208  0.4816
 6108TIP3    H139883   1.830   3.838   1.311  0.5858  1.7147 -0.2458
 6108TIP3    H239884   1.768   3.740   1.215  2.1932 -0.7684  1.1591
 6109TIP3   OH239885   2.813   4.479   2.042 -0.3311 -0.0699 -0.4417
 6109TIP3    H139886   2.779   4.394   2.015 -0.9824  0.2287 -0.5898
 6109TIP3    H239887   2.741   4.518   2.093  0.5277 -0.2536  0.9746
 6110TIP3   OH239888   2.194   5.495   1.666  0.0816 -0.3658  0.1247
 6110TIP3    H139889   2.267   5.466   1.720  1.3124  1.8433 -0.2203
 6110TIP3    H239890   2.141   5.550   1.723  0.3692  0.4746 -0.3960
 6111TIP3   OH239891   5.845   6.608   2.249 -0.0566 -0.0801  0.2220
 6111TIP3    H139892   5.787   6.534   2.233  0.7249 -0.6072 -0.2480
 6111TIP3    H239893   5.805   6.681   2.201  1.0726 -1.0914 -2.4369
 6112TIP3   OH239894   6.999   2.877   0.249  0.9138  0.1206  0.3236
 6112TIP3    H139895   6.966   2.862   0.160  1.8101 -0.5723  0.1011
 6112TIP3    H239896   7.049   2.958   0.243  1.7999 -0.4422 -0.0399
 6113TIP3   OH239897   6.733   0.037   0.180 -0.7658  0.3115 -0.1619
 6113TIP3    H139898   6.735  -0.059   0.181 -0.5464  0.3148 -0.2152
 6113TIP3    H239899   6.654   0.058   0.131  0.1550  0.1402 -1.8019
 6114TIP3   OH239900   2.835   5.126   1.605  0.4179 -1.0038  0.8216
 6114TIP3    H139901   2.830   5.197   1.669  1.2818  0.5340 -0.7098
 6114TIP3    H239902   2.744   5.108   1.581  0.2157  1.4834 -0.6571
 6115TIP3   OH239903   6.446   3.115   7.636  0.4043  0.2835 -0.2072
 6115TIP3    H139904   6.495   3.112   7.719 -0.3368 -0.7427  0.2096
 6115TIP3    H239905   6.473   3.198   7.596  0.9847  0.6690  0.9251
 6116TIP3   OH239906   2.861   2.790   1.567  0.4887 -0.1311 -0.5614
 6116TIP3    H139907   2.811   2.804   1.647  0.6151  2.1727 -0.8085
 6116TIP3    H239908   2.811   2.724   1.518 -0.1380 -0.8069  0.9277
 6117TIP3   OH239909   2.266   0.823   7.178  0.4122 -0.2487 -0.9164
 6117TIP3    H139910   2.248   0.893   7.240 -1.5928 -1.2456 -0.3011
 6117TIP3    H239911   2.321   0.864   7.111 -0.5916  1.8744 -0.5363
 6118TIP3   OH239912   4.473   4.287   0.020  0.0713 -0.0018  0.0991
 6118TIP3    H139913   4.499   4.368   0.064  0.5288 -0.5080  0.7883
 6118TIP3    H239914   4.492   4.302  -0.072  1.8183  0.0727  0.4219
 6119TIP3   OH239915   4.818   0.731   5.938  0.2859  0.2003 -0.0107
 6119TIP3    H139916   4.904   0.765   5.915  0.1505  0.5408 -0.0185
 6119TIP3    H239917   4.763   0.754   5.863 -0.1735  1.3511  0.6599
 6120TIP3   OH239918   4.836   0.673   6.534 -0.5799 -0.6645 -0.2171
 6120TIP3    H139919   4.798   0.683   6.621  0.1589  0.4600 -0.0068
 6120TIP3    H239920   4.858   0.580   6.528 -0.3633 -0.7033  0.9117
 6121TIP3   OH239921   2.018   4.447   7.080 -0.3630 -0.2789 -0.8540
 6121TIP3    H139922   2.106   4.443   7.044 -0.0818 -1.1395 -0.0871
 6121TIP3    H239923   1.968   4.498   7.015  0.8584  0.8941 -0.9172
 6122TIP3   OH239924   6.827   3.637   7.138  0.1132 -0.2122 -0.4085
 6122TIP3    H139925   6.766   3.680   7.198  0.3105 -0.9686  0.3451
 6122TIP3    H239926   6.891   3.705   7.116  0.9573 -0.3441  1.5051
 6123TIP3   OH239927   6.102   6.544   2.335  0.1376  0.5310  0.2525
 6123TIP3    H139928   6.058   6.466   2.370  0.6192 -0.4714 -1.3163
 6123TIP3    H239929   6.030   6.604   2.316 -0.4311 -0.3701 -0.5417
 6124TIP3   OH239930   4.671   2.337   6.474 -0.0108  0.2919  0.0746
 6124TIP3    H139931   4.735   2.336   6.403 -0.2014  0.2436 -0.0977
 6124TIP3    H239932   4.610   2.407   6.451 -0.5842 -0.3056 -0.2688
 6125TIP3   OH239933   6.493   0.753   1.118  0.0090 -0.0498  0.3124
 6125TIP3    H139934   6.536   0.674   1.087 -0.8301  0.0670 -1.2310
 6125TIP3    H239935   6.548   0.825   1.087 -0.7454  0.0612 -0.8112
 6126TIP3   OH239936   2.176   2.609   1.000  0.1019  0.0776 -0.0031
 6126TIP3    H139937   2.196   2.702   1.015  0.8806 -0.1199  0.1641
 6126TIP3    H239938   2.126   2.583   1.077  1.1473 -0.0291  0.6503
 6127TIP3   OH239939   5.853   2.855   2.015 -0.1419 -0.5276  0.5347
 6127TIP3    H139940   5.812   2.816   1.938 -0.4321  1.6190 -0.4513
 6127TIP3    H239941   5.788   2.917   2.047  1.1470  0.7469  0.7382
 6128TIP3   OH239942   0.532   5.459   0.648  0.0062  0.1110  0.1806
 6128TIP3    H139943   0.582   5.392   0.602 -1.4516 -0.6372 -0.3724
 6128TIP3    H239944   0.542   5.438   0.741  2.7779  1.4940  0.2912
 6129TIP3   OH239945   1.400   4.981   1.152 -0.6697 -0.2394 -0.5121
 6129TIP3    H139946   1.406   4.917   1.223 -0.0378  1.1517  0.7429
 6129TIP3    H239947   1.420   4.931   1.073 -1.7215 -1.9104  0.2127
 6130TIP3   OH239948   4.934   1.148   0.519 -0.0333  0.2633  0.7391
 6130TIP3    H139949   4.870   1.196   0.467  1.1088  1.1208  0.0736
 6130TIP3    H239950   4.994   1.214   0.552  0.2670 -0.4698  1.7273
 6131TIP3   OH239951   4.696   0.175   0.698 -0.0732 -0.3323  0.0480
 6131TIP3    H139952   4.666   0.110   0.760  0.2439 -0.0959  0.4530
 6131TIP3    H239953   4.787   0.151   0.679  0.4078  0.6066  1.0410
 6132TIP3   OH239954   3.281   1.227   6.930  0.2172 -0.2949  0.7278
 6132TIP3    H139955   3.359   1.262   6.887  0.9375 -1.0409  1.4008
 6132TIP3    H239956   3.220   1.212   6.858  0.7930  0.0340  0.1541
 6133TIP3   OH239957   0.208   1.809   1.409  0.0876 -0.3000 -0.4288
 6133TIP3    H139958   0.293   1.781   1.374  1.3392  1.1735  1.2564
 6133TIP3    H239959   0.229   1.878   1.472 -2.1764 -1.4027  1.7165
 6134TIP3   OH239960   5.327   0.336   1.456  0.0922  0.4028 -0.0105
 6134TIP3    H139961   5.270   0.259   1.454  0.7412 -0.0768 -0.2927
 6134TIP3    H239962   5.415   0.301   1.469  0.2929  1.1614  0.8408
 6135TIP3   OH239963   6.492   1.329   5.858 -0.1270  0.5903  0.8950
 6135TIP3    H139964   6.486   1.319   5.953  0.8687 -0.3655  0.8726
 6135TIP3    H239965   6.529   1.416   5.845 -0.3906  0.7778  1.3749
 6136TIP3   OH239966   7.131   4.524   7.190 -0.1232 -0.2301 -0.0439
 6136TIP3    H139967   7.103   4.446   7.237 -2.2658  0.4646 -0.0627
 6136TIP3    H239968   7.125   4.594   7.255  0.2480  0.1810 -0.4431
 6137TIP3   OH239969   6.233   5.892   0.746 -0.1216  0.1721  0.2500
 6137TIP3    H139970   6.168   5.827   0.771  0.8959 -0.2821  1.9154
 6137TIP3    H239971   6.299   5.887   0.816  1.2594  1.2021 -0.9303
 6138TIP3   OH239972   5.075   1.146   6.988 -0.0767 -0.4425 -0.1213
 6138TIP3    H139973   5.029   1.149   7.072 -0.1606 -0.2777 -0.1722
 6138TIP3    H239974   5.118   1.231   6.981  2.6862 -1.5877  1.2788
 6139TIP3   OH239975   0.067   1.520   7.985 -0.1981  0.3402 -0.1302
 6139TIP3    H139976  -0.015   1.544   8.030  0.9783  2.2390  1.1539
 6139TIP3    H239977   0.064   1.425   7.979 -2.6507  0.3660 -0.4363
 6140TIP3   OH239978   0.871   7.082   7.277 -0.4784  0.3959  0.5669
 6140TIP3    H139979   0.829   7.134   7.345  0.2725  1.4449  0.2635
 6140TIP3    H239980   0.922   7.016   7.324 -0.8292  0.4174  0.9823
 6141TIP3   OH239981   1.095   0.254   7.768 -0.5311 -0.0910  0.6000
 6141TIP3    H139982   1.139   0.275   7.850  1.1880 -2.3555  0.3743
 6141TIP3    H239983   1.156   0.281   7.700 -0.5687 -0.9655  0.1952
 6142TIP3   OH239984   3.892   0.826   0.872 -0.0033 -0.0310 -0.1759
 6142TIP3    H139985   3.871   0.816   0.965 -1.7469 -2.1097 -0.7197
 6142TIP3    H239986   3.847   0.906   0.846 -1.0597 -0.4282  0.3830
 6143TIP3   OH239987   0.838   6.007   7.435 -0.1328 -0.3215  0.0927
 6143TIP3    H139988   0.765   5.952   7.409 -0.6734  0.2846  0.3147
 6143TIP3    H239989   0.833   6.083   7.377 -1.0723  0.8206  1.6210
 6144TIP3   OH239990   1.505   5.895   7.580 -0.3711  0.1048 -0.2004
 6144TIP3    H139991   1.544   5.809   7.598  2.0217  1.0366 -0.6522
 6144TIP3    H239992   1.449   5.912   7.656 -2.2720 -2.5329 -0.8511
 6145TIP3   OH239993   2.083   4.097   7.512  0.2748  0.0805 -0.0545
 6145TIP3    H139994   1.994   4.088   7.545  0.0637  2.1339  0.0307
 6145TIP3    H239995   2.121   4.167   7.564  1.4436  0.2607 -1.1125
 6146TIP3   OH239996   2.319   1.132   7.828  0.1904 -0.2644  0.0626
 6146TIP3    H139997   2.250   1.195   7.805 -0.6321 -1.6050 -1.3263
 6146TIP3    H239998   2.278   1.076   7.895  0.8942  0.5833  1.2401
 6147TIP3   OH239999   6.938   6.633   6.118 -0.9422 -0.4061  0.1035
 6147TIP3    H140000   6.964   6.623   6.027  1.8906 -0.7056  0.8689
 6147TIP3    H240001   6.877   6.707   6.118  0.1376  0.5473 -1.8337
 6148TIP3   OH240002   2.680   6.579   0.036 -0.0071  0.1645 -0.3940
 6148TIP3    H140003   2.764   6.582  -0.008  1.5743  0.5885  2.4148
 6148TIP3    H240004   2.698   6.607   0.126 -2.9151 -0.9414  0.6855
 6149TIP3   OH240005   5.894   2.971   0.712  0.1838  0.4481  0.3786
 6149TIP3    H140006   5.858   2.892   0.751 -0.4266  0.0355 -0.9444
 6149TIP3    H240007   5.905   3.032   0.785 -1.8010  0.0696  1.0484
 6150TIP3   OH240008   5.036   5.352   0.873  0.3654 -1.3661 -0.1093
 6150TIP3    H140009   5.127   5.379   0.887  0.8339 -1.8366 -1.9435
 6150TIP3    H240010   5.008   5.319   0.958  1.7617 -0.8128  0.6115
 6151TIP3   OH240011   3.421   6.174   1.120 -0.2302  0.6361  0.2742
 6151TIP3    H140012   3.473   6.105   1.161  1.4282  0.8457 -1.3267
 6151TIP3    H240013   3.399   6.139   1.033  1.4554  2.3964 -0.9528
 6152TIP3   OH240014   6.019   2.052   1.249 -0.1284  0.6097 -0.6648
 6152TIP3    H140015   6.064   2.065   1.166 -0.4366  1.8416 -0.6563
 6152TIP3    H240016   5.966   1.973   1.236  0.5812  0.2358 -1.2986
 6153TIP3   OH240017   1.995   2.528   0.341 -0.3055 -0.0308  0.5765
 6153TIP3    H140018   1.958   2.585   0.408  0.9511  0.2752  1.0189
 6153TIP3    H240019   1.987   2.440   0.377 -1.2971 -0.0561  0.3327
 6154TIP3   OH240020   4.806   0.372   6.572  0.8417  0.5862 -0.2626
 6154TIP3    H140021   4.897   0.353   6.549  0.8630  0.4850 -0.0951
 6154TIP3    H240022   4.789   0.319   6.650  0.5134  0.3012 -0.5255
 6155TIP3   OH240023   0.017   0.029   7.241  0.2672 -0.9032 -0.4082
 6155TIP3    H140024   0.079   0.101   7.248  0.0735 -0.7616 -0.1238
 6155TIP3    H240025   0.054  -0.029   7.174  1.0630 -1.1809  0.2608
 6156TIP3   OH240026   0.328   5.107   0.290 -0.0738  0.0477 -0.8004
 6156TIP3    H140027   0.285   5.052   0.355  0.7171  0.2905 -0.0480
 6156TIP3    H240028   0.256   5.156   0.250 -0.7015 -0.9600 -0.9502
 6157TIP3   OH240029   6.228   6.118   7.133  0.2871 -0.3889  0.2311
 6157TIP3    H140030   6.161   6.185   7.141  0.1692 -0.3609 -0.8704
 6157TIP3    H240031   6.283   6.147   7.060 -0.3219 -1.9338 -0.9188
 6158TIP3   OH240032   5.813   6.754   1.119  0.3780 -0.1530 -0.4663
 6158TIP3    H140033   5.890   6.698   1.107  1.0976  0.8815 -0.7520
 6158TIP3    H240034   5.849   6.840   1.139 -0.7158 -0.1276  1.6919
 6159TIP3   OH240035   3.406   6.437   1.137  0.2272  0.1683 -0.4647
 6159TIP3    H140036   3.406   6.343   1.123  2.0701  0.1211 -0.4637
 6159TIP3    H240037   3.487   6.454   1.185 -1.3665  1.4672  1.9445
 6160TIP3   OH240038   0.184   0.837   1.917  0.4660  0.0457 -0.2933
 6160TIP3    H140039   0.135   0.882   1.848  0.8574 -1.9806 -2.0271
 6160TIP3    H240040   0.129   0.842   1.994  0.0712  2.5509 -0.6766
 6161TIP3   OH240041   6.117   1.326   7.052  0.5356 -0.2811 -0.1476
 6161TIP3    H140042   6.132   1.246   7.102 -0.2267  0.5332  1.4524
 6161TIP3    H240043   6.203   1.367   7.045  0.6854 -0.5151  0.3030
 6162TIP3   OH240044   0.411   6.631   6.260  0.1851 -0.8145  0.1141
 6162TIP3    H140045   0.435   6.587   6.179  0.6691 -1.4831  0.6151
 6162TIP3    H240046   0.315   6.632   6.259  0.0703 -3.4859  0.8953
 6163TIP3   OH240047   0.381   5.147   1.315  0.3752 -0.2217 -0.1562
 6163TIP3    H140048   0.412   5.236   1.301  0.1138 -0.1745 -0.4523
 6163TIP3    H240049   0.452   5.091   1.282  1.2621 -0.1575  1.5340
 6164TIP3   OH240050   4.095   3.372   7.555 -1.1412 -0.1806 -0.4212
 6164TIP3    H140051   4.131   3.374   7.643 -1.9843 -0.5948 -0.0480
 6164TIP3    H240052   4.087   3.464   7.530 -0.9134 -0.0615 -0.0593
 6165TIP3   OH240053   1.740   3.138   6.691 -0.7381  0.6503  0.1498
 6165TIP3    H140054   1.730   3.044   6.700  0.4731  0.6566  2.3060
 6165TIP3    H240055   1.669   3.175   6.743 -1.0501  0.9551 -0.4742
 6166TIP3   OH240056   5.331   4.317   1.287 -1.7139  0.0821 -1.0208
 6166TIP3    H140057   5.324   4.336   1.380 -1.8460 -1.6472 -0.6393
 6166TIP3    H240058   5.414   4.355   1.260 -0.5223 -1.3876  0.3751
 6167TIP3   OH240059   4.238   3.910   7.382  0.3730 -0.0859 -0.2046
 6167TIP3    H140060   4.321   3.869   7.405 -0.5989 -1.1915  1.6088
 6167TIP3    H240061   4.261   3.999   7.356  2.0680 -0.1473  0.9648
 6168TIP3   OH240062   1.052   0.204   6.891  0.3665  0.3513 -0.1052
 6168TIP3    H140063   0.976   0.235   6.842  0.4564  2.2451  0.8588
 6168TIP3    H240064   1.020   0.126   6.936 -0.2292 -0.3765 -1.7221
 6169TIP3   OH240065   2.239   2.713   7.172  0.5470  0.0950  0.2119
 6169TIP3    H140066   2.287   2.765   7.107 -1.4672 -0.8517 -2.1891
 6169TIP3    H240067   2.184   2.776   7.218  1.7088  0.7160  0.8105
 6170TIP3   OH240068   5.664   3.061   6.864  0.0816 -0.0034  0.3999
 6170TIP3    H140069   5.629   3.094   6.782  1.2191  1.3234  0.4206
 6170TIP3    H240070   5.745   3.110   6.878 -0.3491  0.1896  2.5741
 6171TIP3   OH240071   0.637   2.983   7.782 -0.4272  0.6155 -0.4178
 6171TIP3    H140072   0.683   3.035   7.848  0.0190  0.9592 -0.9865
 6171TIP3    H240073   0.548   2.974   7.816 -0.4433  1.5432 -0.1940
 6172TIP3   OH240074   5.876   7.029   6.985  0.4887 -0.2990 -0.0199
 6172TIP3    H140075   5.928   6.982   7.051 -0.9233 -2.0612 -0.0845
 6172TIP3    H240076   5.786   7.020   7.015  0.0676  1.4535 -0.6649
 6173TIP3   OH240077   4.200   0.250   0.789  0.1403 -0.5981 -0.2846
 6173TIP3    H140078   4.259   0.176   0.785 -0.3333 -1.1947  2.0057
 6173TIP3    H240079   4.121   0.221   0.743 -0.7083 -2.2755  2.0341
 6174TIP3   OH240080   2.727   4.260   0.580  0.3773  0.4179 -0.0140
 6174TIP3    H140081   2.693   4.175   0.553  1.1174 -0.1709  0.8371
 6174TIP3    H240082   2.677   4.323   0.529 -0.2657 -0.5196 -0.5794
 6175TIP3   OH240083   1.907   6.287   6.997  0.6253  0.0423  0.5657
 6175TIP3    H140084   1.824   6.314   6.957 -0.6753 -2.7773  1.0829
 6175TIP3    H240085   1.885   6.270   7.088  0.5919 -4.6519 -0.0958
 6176TIP3   OH240086   2.396   4.953   0.269 -0.4411 -0.2252  0.7458
 6176TIP3    H140087   2.448   5.019   0.223 -1.2272 -0.6172 -0.7975
 6176TIP3    H240088   2.318   5.000   0.297 -0.8910 -0.4056 -0.1444
 6177TIP3   OH240089   6.588   6.659   6.952 -0.2847  0.2282  0.0169
 6177TIP3    H140090   6.581   6.752   6.973  1.2586  0.3493  0.1198
 6177TIP3    H240091   6.510   6.640   6.899 -0.9463  1.4163  0.5394
 6178TIP3   OH240092   6.298   1.179   1.527  0.1294  0.8346  0.1889
 6178TIP3    H140093   6.309   1.269   1.556  0.0941  1.3121 -1.1909
 6178TIP3    H240094   6.301   1.184   1.431  0.4046 -0.6651  0.0937
 6179TIP3   OH240095   3.741   4.283   7.893 -0.6266  0.5345  0.2921
 6179TIP3    H140096   3.676   4.334   7.942 -0.7897  0.8605 -0.2604
 6179TIP3    H240097   3.692   4.245   7.820 -0.5004 -0.4087  0.6904
 6180TIP3   OH240098   3.040   2.124   7.662  0.5118  0.4302 -0.6959
 6180TIP3    H140099   3.051   2.029   7.673  2.2519  0.5888 -0.7419
 6180TIP3    H240100   3.026   2.156   7.751 -0.5157  0.0871 -0.7287
 6181TIP3   OH240101   3.885   2.124   0.285 -0.0435  0.3833 -0.5510
 6181TIP3    H140102   3.881   2.125   0.190  1.1586  1.2644 -0.6118
 6181TIP3    H240103   3.975   2.148   0.306 -0.3713  0.5204  0.8172
 6182TIP3   OH240104   7.087   3.420   0.135  0.1047  0.1182 -0.6903
 6182TIP3    H140105   7.177   3.397   0.158  0.1268  1.3636  0.5239
 6182TIP3    H240106   7.096   3.488   0.068  0.0375 -0.5993 -1.4522
 6183TIP3   OH240107   3.278   2.650   7.253 -0.8762  0.6472 -0.2488
 6183TIP3    H140108   3.374   2.640   7.248 -0.9189  0.6008 -1.3763
 6183TIP3    H240109   3.263   2.743   7.236 -1.0026  0.7800  0.5754
 6184TIP3   OH240110   4.965   1.807   6.732 -0.2081  0.2075  0.0476
 6184TIP3    H140111   5.044   1.821   6.680 -0.8993 -1.1974 -1.4875
 6184TIP3    H240112   4.974   1.718   6.766 -0.8580  0.2500  0.3518
 6185TIP3   OH240113   2.342   2.058   7.535  0.2577 -0.1682 -0.4217
 6185TIP3    H140114   2.424   2.105   7.549  0.7233 -0.9744 -0.3299
 6185TIP3    H240115   2.359   1.970   7.571 -1.1879  0.1340  1.1286
 6186TIP3   OH240116   6.813   5.283   7.552  0.0224  0.3019  0.0545
 6186TIP3    H140117   6.831   5.359   7.498 -0.5152  1.1076  0.9626
 6186TIP3    H240118   6.811   5.317   7.642 -0.9867 -0.6293  0.4125
 6187TIP3   OH240119   2.687   3.594   0.849 -0.7316 -0.5291  0.0367
 6187TIP3    H140120   2.639   3.663   0.895 -0.9495  0.4082 -1.5332
 6187TIP3    H240121   2.636   3.578   0.770  0.5106 -0.9106 -0.7097
 6188TIP3   OH240122   1.918   2.649   8.000 -0.1856  0.1414 -0.5956
 6188TIP3    H140123   1.998   2.598   7.983  0.3639  0.6018  0.4882
 6188TIP3    H240124   1.949   2.738   8.013 -0.5462 -0.0626  2.2320
 6189TIP3   OH240125   6.535   4.352   0.044 -0.2861 -0.0215 -0.4441
 6189TIP3    H140126   6.610   4.295   0.060 -1.3749 -1.3779  0.0228
 6189TIP3    H240127   6.552   4.430   0.097  1.1969  0.0864 -1.0383
 6190TIP3   OH240128   0.173   2.937   1.234 -0.0891  0.2915  0.6432
 6190TIP3    H140129   0.259   2.950   1.275  0.6863  2.0347 -1.3324
 6190TIP3    H240130   0.166   3.010   1.172 -2.6112 -0.3527  0.0882
 6191TIP3   OH240131   0.446   3.575   6.860  0.2293 -0.1521 -0.1642
 6191TIP3    H140132   0.507   3.525   6.914 -0.9616  0.1026  1.5354
 6191TIP3    H240133   0.436   3.658   6.907  0.0028  0.5464 -1.4134
 6192TIP3   OH240134   2.815   1.768   6.701  0.4228  0.1067  0.8851
 6192TIP3    H140135   2.761   1.845   6.681 -0.6156 -0.5996  0.8818
 6192TIP3    H240136   2.883   1.768   6.634 -1.4242 -0.7364 -1.0826
 6193TIP3   OH240137   3.193   3.626   0.072  0.0766  0.2971  0.3894
 6193TIP3    H140138   3.205   3.643  -0.022 -0.5223  1.8036  0.5433
 6193TIP3    H240139   3.100   3.603   0.080  0.4287 -1.2036  0.4656
 6194TIP3   OH240140   2.054   3.074   0.132 -0.3898  0.1679 -0.0973
 6194TIP3    H140141   2.103   3.106   0.056 -0.8524  0.5471 -0.2402
 6194TIP3    H240142   2.097   3.113   0.207 -0.1875  0.1250 -0.1904
 6195TIP3   OH240143   5.646   3.352   1.352  0.6242 -0.1704 -0.3173
 6195TIP3    H140144   5.554   3.367   1.327  0.0986 -0.4054  1.3603
 6195TIP3    H240145   5.671   3.274   1.302 -1.9866 -3.7693  3.3362
 6196TIP3   OH240146   6.568   1.335   6.599 -0.4545 -0.6138  0.4666
 6196TIP3    H140147   6.570   1.251   6.554 -0.1672  0.2040 -1.1188
 6196TIP3    H240148   6.477   1.346   6.627 -1.0241 -0.4510 -1.3399
 6197TIP3   OH240149   4.698   0.747   1.369 -0.8656 -0.1134  0.0361
 6197TIP3    H140150   4.734   0.694   1.440 -0.3467 -0.7155 -0.6552
 6197TIP3    H240151   4.729   0.835   1.386 -0.4251 -0.3253  0.3447
 6198TIP3   OH240152   4.056   6.631   1.437  0.5699 -0.1397  0.0585
 6198TIP3    H140153   4.041   6.714   1.482 -2.9108  0.3320 -1.6423
 6198TIP3    H240154   4.017   6.564   1.494  0.4589 -0.1844 -0.0697
 6199TIP3   OH240155   1.905   6.004   7.021 -0.2258  0.1554  0.1481
 6199TIP3    H140156   1.820   5.984   6.981  0.0623 -0.1112 -0.3318
 6199TIP3    H240157   1.926   6.092   6.990 -0.5982  0.4615  0.7393
 6200TIP3   OH240158   5.361   6.152   1.859 -0.2622  0.1877  0.7317
 6200TIP3    H140159   5.426   6.196   1.915 -0.0853  0.7728  0.0768
 6200TIP3    H240160   5.306   6.223   1.826 -1.3398 -0.3197  1.3871
 6201TIP3   OH240161   7.052   6.089   1.365  0.3573 -0.1536  0.6728
 6201TIP3    H140162   7.113   6.015   1.357  2.6891  1.6971  0.0748
 6201TIP3    H240163   6.976   6.052   1.409  1.1769 -3.0246 -0.0471
 6202TIP3   OH240164   3.595   0.330   1.415 -0.0260  0.0186 -0.5394
 6202TIP3    H140165   3.611   0.423   1.431  0.0149  0.0143 -0.5577
 6202TIP3    H240166   3.682   0.290   1.411  0.0464  0.2500 -2.1990
 6203TIP3   OH240167   5.185   5.107   7.555 -0.2935 -0.7051  0.1988
 6203TIP3    H140168   5.251   5.170   7.585  0.2773 -0.1799 -1.9950
 6203TIP3    H240169   5.102   5.146   7.582  0.1917 -1.0853  2.4692
 6204TIP3   OH240170   3.251   1.904   2.132  0.0336 -0.5512 -0.0975
 6204TIP3    H140171   3.314   1.959   2.178 -1.0730  0.5158  0.1948
 6204TIP3    H240172   3.305   1.842   2.082  1.2836 -0.1862  0.7471
 6205TIP3   OH240173   4.420   1.001   0.200 -0.3575  0.0529 -0.8120
 6205TIP3    H140174   4.349   0.995   0.265  1.0129  1.2091  0.8660
 6205TIP3    H240175   4.456   1.089   0.213  2.5911 -1.1482 -0.2939
 6206TIP3   OH240176   2.813   1.682   7.492 -0.1092 -0.6986  0.3372
 6206TIP3    H140177   2.827   1.618   7.421 -2.2437 -1.1984  0.2938
 6206TIP3    H240178   2.746   1.741   7.457  2.2364  2.0557  0.1313
 6207TIP3   OH240179   5.455   4.045   1.331  0.1820 -0.0996  0.1463
 6207TIP3    H140180   5.400   4.055   1.253  0.8808  1.1778 -0.2158
 6207TIP3    H240181   5.529   4.104   1.316 -0.3475  1.2457  2.3817
 6208TIP3   OH240182   1.998   3.188   6.781 -0.7331 -0.4405  0.1712
 6208TIP3    H140183   2.053   3.130   6.728 -0.7470 -1.5497  1.3030
 6208TIP3    H240184   1.909   3.167   6.756 -0.7101 -0.2861 -0.0386
 6209TIP3   OH240185   2.153   4.339   7.644 -0.8733 -0.0870  0.3796
 6209TIP3    H140186   2.077   4.393   7.663 -0.6751  0.4418 -0.2752
 6209TIP3    H240187   2.197   4.384   7.572  0.6117  0.1686  1.3970
 6210TIP3   OH240188   3.044   4.746   1.812  0.1066  0.4371  0.0039
 6210TIP3    H140189   3.079   4.677   1.869 -0.8039  1.2567  1.6383
 6210TIP3    H240190   3.116   4.810   1.806  0.6530 -0.2450 -0.8259
 6211TIP3   OH240191   1.995   1.537   0.519 -0.2307 -0.1696 -0.4252
 6211TIP3    H140192   1.996   1.623   0.561 -0.5916 -1.3829  2.2473
 6211TIP3    H240193   2.073   1.536   0.464  1.2109  0.9734  1.4681
 6212TIP3   OH240194   1.887   3.875   5.920 -0.5165  0.6261  0.7576
 6212TIP3    H140195   1.873   3.836   6.006  1.0262 -2.6286 -0.2607
 6212TIP3    H240196   1.978   3.904   5.921 -0.0647 -0.6267 -0.0733
 6213TIP3   OH240197   5.662   5.784   7.205  0.6393 -0.4800 -0.4106
 6213TIP3    H140198   5.750   5.792   7.168  0.6790 -0.6874 -0.3635
 6213TIP3    H240199   5.633   5.697   7.178  1.1281 -1.1144  1.0268
 6214TIP3   OH240200   3.501   1.582   5.860 -0.6076  0.2533  0.4189
 6214TIP3    H140201   3.506   1.603   5.953 -0.7145  0.6447  0.3360
 6214TIP3    H240202   3.438   1.644   5.824 -2.0606 -1.1521  0.4372
 6215TIP3   OH240203   6.584   2.947   7.331 -0.0584 -0.1660 -0.1057
 6215TIP3    H140204   6.618   2.957   7.420  1.9793 -1.5943 -0.6429
 6215TIP3    H240205   6.662   2.933   7.277 -0.7648  4.3736 -2.8226
 6216TIP3   OH240206   6.227   6.024   0.122 -0.4489 -0.2746 -0.4016
 6216TIP3    H140207   6.228   6.095   0.058 -2.3846 -0.2036 -0.4190
 6216TIP3    H240208   6.245   6.067   0.206 -0.1455 -0.0155 -0.5963
 6217TIP3   OH240209   4.383   0.182   1.191 -0.3796  0.5904 -0.2510
 6217TIP3    H140210   4.377   0.190   1.286 -0.2264  3.3418 -0.3719
 6217TIP3    H240211   4.331   0.256   1.158 -0.1716 -0.1172 -2.2930
 6218TIP3   OH240212   4.261   5.443   1.476 -0.5974 -0.5906  0.1623
 6218TIP3    H140213   4.189   5.435   1.414 -1.2934 -0.3207  0.9290
 6218TIP3    H240214   4.297   5.354   1.483 -0.9386 -0.7507 -0.1212
 6219TIP3   OH240215   2.939   3.482   1.806  0.0696  0.0333  0.0325
 6219TIP3    H140216   2.977   3.439   1.882  1.3187  0.0357 -0.5619
 6219TIP3    H240217   3.005   3.546   1.779  0.2499 -0.8719 -1.8337
 6220TIP3   OH240218   1.788   1.181   8.036  0.0258 -0.0657 -0.0695
 6220TIP3    H140219   1.806   1.241   8.108 -0.6849 -0.1079  0.1564
 6220TIP3    H240220   1.797   1.094   8.074 -1.4689 -0.0959  0.2960
 6221TIP3   OH240221   2.710   7.043   0.731  0.5396 -0.3542  0.1608
 6221TIP3    H140222   2.736   7.054   0.822 -0.1969  1.0178  0.2358
 6221TIP3    H240223   2.773   7.095   0.682  1.2775 -1.5415 -0.1885
 6222TIP3   OH240224   0.931   0.010   7.021 -0.6631  0.1497  1.0768
 6222TIP3    H140225   0.892  -0.001   7.107  0.0137 -1.1161  1.2420
 6222TIP3    H240226   0.892  -0.060   6.968 -0.4320  0.3872  0.5881
 6223TIP3   OH240227   5.996   1.612   1.511 -0.2924  0.2364  0.0725
 6223TIP3    H140228   6.083   1.590   1.545  1.0240  2.3145 -1.6773
 6223TIP3    H240229   5.936   1.592   1.583  1.5173 -1.8583  1.1120
 6224TIP3   OH240230   3.184   4.668   6.446 -0.1458 -0.3707 -0.1708
 6224TIP3    H140231   3.274   4.692   6.426  0.0139 -0.2810  0.6066
 6224TIP3    H240232   3.132   4.744   6.418  0.0715 -0.2254 -0.1840
 6225TIP3   OH240233   3.484   2.824   6.281 -0.2872 -0.2262 -0.3571
 6225TIP3    H140234   3.471   2.790   6.193 -0.2987  1.2910 -0.9773
 6225TIP3    H240235   3.429   2.902   6.285  0.7661  0.5023  0.5008
 6226TIP3   OH240236   5.109   4.614   0.037 -0.2105 -0.4189 -0.1763
 6226TIP3    H140237   5.098   4.543   0.100  2.0226  0.8344  1.7534
 6226TIP3    H240238   5.160   4.575  -0.035 -1.0204 -1.3216 -0.2901
 6227TIP3   OH240239   6.400   0.425   6.288  0.0397  0.3989  0.1837
 6227TIP3    H140240   6.397   0.515   6.318  2.6124  0.7466 -0.4028
 6227TIP3    H240241   6.484   0.392   6.318  0.1875 -1.0472 -1.6220
 6228TIP3   OH240242   6.466   5.173   0.260  0.5033 -0.3218 -0.0068
 6228TIP3    H140243   6.478   5.261   0.225 -1.3439  0.3035  0.8245
 6228TIP3    H240244   6.377   5.149   0.236  0.5301 -1.4273  0.9141
 6229TIP3   OH240245   0.618   5.966   0.173  0.1175 -0.0316 -0.0197
 6229TIP3    H140246   0.639   5.951   0.081 -0.1034  0.2466 -0.1152
 6229TIP3    H240247   0.656   6.052   0.193  1.2410 -0.6157  0.4828
 6230TIP3   OH240248   3.047   0.735   0.714  0.2036 -0.3759  0.2860
 6230TIP3    H140249   2.967   0.683   0.706  0.9937 -1.5438 -0.4308
 6230TIP3    H240250   3.066   0.734   0.808 -0.0318 -1.0355  0.3360
 6231TIP3   OH240251   5.851   1.161   7.221  0.2506  0.3079  0.2811
 6231TIP3    H140252   5.876   1.248   7.251  1.9585 -1.1164  3.4193
 6231TIP3    H240253   5.910   1.144   7.147 -0.7638  2.0801 -1.0311
 6232TIP3   OH240254   1.116   5.422   0.256 -0.0509 -0.1822  0.6459
 6232TIP3    H140255   1.065   5.493   0.295 -0.7627  0.3614 -1.1484
 6232TIP3    H240256   1.140   5.455   0.169  1.2140 -1.4336  0.4802
 6233TIP3   OH240257   5.199   5.364   7.876  0.4244 -1.2784 -0.4397
 6233TIP3    H140258   5.208   5.443   7.929  0.5526 -0.7053 -1.2831
 6233TIP3    H240259   5.116   5.325   7.904  0.3536 -0.8367 -0.0229
 6234TIP3   OH240260   0.099   5.790   7.689  0.0703 -0.0968 -0.1567
 6234TIP3    H140261   0.055   5.763   7.770  2.4618  1.4463  1.7904
 6234TIP3    H240262   0.162   5.721   7.670 -0.0074 -0.1260 -0.3148
 6235TIP3   OH240263   3.966   4.343   7.443 -0.3742  0.2321  0.2584
 6235TIP3    H140264   3.963   4.405   7.370  1.8297  1.9553  1.4887
 6235TIP3    H240265   3.971   4.399   7.521 -1.9378 -1.5505  1.7157
 6236TIP3   OH240266   6.245   1.813   6.261  0.2056 -0.1419  0.0862
 6236TIP3    H140267   6.156   1.788   6.287  0.2584 -0.3901  0.0347
 6236TIP3    H240268   6.256   1.776   6.174  0.3231 -0.0210  0.0492
 6237TIP3   OH240269   1.109   3.926   6.126 -0.1540 -0.2681  0.4742
 6237TIP3    H140270   1.147   3.982   6.059 -0.2476  0.4417  1.0034
 6237TIP3    H240271   1.114   3.838   6.090 -0.0378  0.0866 -0.3819
 6238TIP3   OH240272   3.650   6.401   7.234  0.2665 -0.0421  0.3256
 6238TIP3    H140273   3.574   6.363   7.278  0.0726  0.5587  0.5199
 6238TIP3    H240274   3.718   6.334   7.242 -0.6693 -1.2582 -1.1926
 6239TIP3   OH240275   3.475   3.784   1.757 -0.5550  0.1760 -0.5013
 6239TIP3    H140276   3.497   3.875   1.776  1.1176  0.1471 -1.9878
 6239TIP3    H240277   3.414   3.789   1.683 -0.4522  0.0910 -0.5920
 6240TIP3   OH240278   0.293   0.360   0.558 -0.4739  0.1350 -0.1391
 6240TIP3    H140279   0.288   0.421   0.632  1.1361 -0.0421  0.1478
 6240TIP3    H240280   0.369   0.305   0.577  0.4260  0.5524 -2.2678
 6241TIP3   OH240281   6.730   3.736   6.430  0.4550  0.3908 -0.2283
 6241TIP3    H140282   6.673   3.662   6.447  0.2952  0.7569  0.8558
 6241TIP3    H240283   6.800   3.700   6.375 -1.0477  0.0567 -2.0269
 6242TIP3   OH240284   3.467   1.571   0.491  0.2182 -0.2146  0.1818
 6242TIP3    H140285   3.466   1.631   0.565 -0.7762  0.1258 -0.0878
 6242TIP3    H240286   3.544   1.596   0.440 -0.6339  1.4404 -0.3895
 6243TIP3   OH240287   2.696   3.792   1.835  0.4972  0.6509  0.2614
 6243TIP3    H140288   2.722   3.782   1.744 -1.1540 -0.3475 -0.1444
 6243TIP3    H240289   2.774   3.826   1.879  0.8813  2.6869 -1.8006
 6244TIP3   OH240290   3.865   0.155   6.215  0.6669 -0.2716 -0.0977
 6244TIP3    H140291   3.826   0.079   6.173  0.5452  1.7227 -4.1157
 6244TIP3    H240292   3.796   0.222   6.215  1.8518  1.0148 -0.3491
 6245TIP3   OH240293   6.987   1.060   0.820 -0.2682 -0.0965 -0.3636
 6245TIP3    H140294   7.032   0.985   0.857 -0.0764 -1.5400 -3.2755
 6245TIP3    H240295   7.057   1.119   0.791 -0.2566 -1.0065 -2.2853
 6246TIP3   OH240296   1.498   6.370   7.475  0.2549  0.0474  0.7631
 6246TIP3    H140297   1.522   6.289   7.429  2.0277  0.7210  0.4070
 6246TIP3    H240298   1.437   6.342   7.543 -0.5519 -1.3295 -0.4580
 6247TIP3   OH240299   5.504   6.191   7.270 -0.5143 -0.7052 -0.1166
 6247TIP3    H140300   5.531   6.235   7.351 -2.1169  0.1787 -0.0208
 6247TIP3    H240301   5.422   6.147   7.293  0.1663 -2.3307 -0.6930
 6248TIP3   OH240302   1.152   4.068   7.240 -0.0829 -0.1824  0.0198
 6248TIP3    H140303   1.069   4.022   7.239  0.3744 -1.0234 -0.1529
 6248TIP3    H240304   1.173   4.084   7.148  1.1101 -2.1542 -0.0929
 6249TIP3   OH240305   0.438   0.869   5.511  0.1431 -0.5179  0.4114
 6249TIP3    H140306   0.441   0.963   5.528  1.7788 -0.6344  0.9313
 6249TIP3    H240307   0.511   0.853   5.451 -0.2665 -1.4355  0.1381
 6250TIP3   OH240308   1.323   2.715   7.274 -0.0803 -0.2075  0.0979
 6250TIP3    H140309   1.361   2.688   7.190 -0.1243 -2.5666  0.7874
 6250TIP3    H240310   1.281   2.799   7.254 -1.1062 -1.2264 -2.5619
 6251TIP3   OH240311   3.535   1.632   6.172  0.1566  0.5080 -0.4357
 6251TIP3    H140312   3.596   1.593   6.234 -0.9908  0.8649  0.9851
 6251TIP3    H240313   3.498   1.707   6.219  0.6666  1.9957 -2.2782
 6252TIP3   OH240314   1.627   1.788   1.155 -0.0650 -0.1670  0.4275
 6252TIP3    H140315   1.660   1.875   1.133 -1.0376  0.0263 -0.3251
 6252TIP3    H240316   1.699   1.729   1.132 -0.4658  0.1646 -1.9923
 6253TIP3   OH240317   4.095   2.951   1.363  0.1418  0.3973  0.1248
 6253TIP3    H140318   4.073   2.924   1.274  0.7631 -1.3759  0.4775
 6253TIP3    H240319   4.188   2.973   1.359  0.0438  0.8298  0.2201
 6254TIP3   OH240320   3.717   5.058   6.024  0.1021 -0.5245  0.3774
 6254TIP3    H140321   3.703   5.141   6.069 -1.0026 -0.5858  0.1785
 6254TIP3    H240322   3.750   5.082   5.938  0.8076 -0.3417  0.6956
 6255TIP3   OH240323   5.872   1.795   7.166 -0.4073  0.3123  0.2032
 6255TIP3    H140324   5.811   1.721   7.159  0.2624 -0.1591 -0.8740
 6255TIP3    H240325   5.858   1.829   7.255 -1.0019 -0.8599  0.5797
 6256TIP3   OH240326   7.134   3.109   6.637 -0.0414  0.1250 -0.0435
 6256TIP3    H140327   7.073   3.084   6.707 -0.6099  1.6674  0.0460
 6256TIP3    H240328   7.158   3.026   6.595  0.4137 -0.8422  2.0418
 6257TIP3   OH240329   7.010   5.413   7.986  0.1897 -0.4080  0.2395
 6257TIP3    H140330   7.066   5.339   8.011 -0.3270 -0.1966  2.2409
 6257TIP3    H240331   6.968   5.439   8.068  0.3372  2.0933 -0.4192
 6258TIP3   OH240332   5.018   0.395   7.799 -0.3580  0.1180  0.3187
 6258TIP3    H140333   5.043   0.353   7.717 -0.3721 -1.2183  0.9645
 6258TIP3    H240334   4.925   0.416   7.788 -0.8796 -1.8295  0.6692
 6259TIP3   OH240335   0.223   5.414   1.624 -0.4540 -0.5453 -0.1011
 6259TIP3    H140336   0.272   5.379   1.550 -3.0048  2.2192 -3.4520
 6259TIP3    H240337   0.280   5.483   1.660 -0.1427 -0.2402 -1.1504
 6260TIP3   OH240338   0.001   5.436   6.877 -0.6439 -0.2855  0.0119
 6260TIP3    H140339  -0.051   5.485   6.941 -0.7585 -1.1034  0.5497
 6260TIP3    H240340   0.061   5.502   6.840 -2.6850  0.9247 -1.3502
 6261TIP3   OH240341   2.822   7.079   0.980 -0.0178  0.4059  0.1328
 6261TIP3    H140342   2.874   7.158   0.999  1.6249 -0.7365  0.6008
 6261TIP3    H240343   2.793   7.048   1.066 -0.3556  0.2945 -0.0201
 6262TIP3   OH240344   1.309   5.369   7.816  0.1587  0.5792 -0.9511
 6262TIP3    H140345   1.254   5.309   7.864  0.5610 -0.6005 -1.9193
 6262TIP3    H240346   1.267   5.378   7.730  0.5326  1.0549 -1.0928
 6263TIP3   OH240347   4.164   0.575   6.797  0.9770  0.2480 -0.1836
 6263TIP3    H140348   4.125   0.537   6.875  0.4916  0.5725 -0.2657
 6263TIP3    H240349   4.209   0.654   6.828  0.5025  0.5608 -0.2758
 6264TIP3   OH240350   1.916   0.289   6.737  0.3280  0.8007  0.2818
 6264TIP3    H140351   1.944   0.328   6.820  0.4608 -1.5722  1.4414
 6264TIP3    H240352   1.826   0.260   6.752 -0.2725  1.8634 -1.0193
 6265TIP3   OH240353   5.865   4.358   0.830 -0.5917 -0.7845 -0.2516
 6265TIP3    H140354   5.917   4.353   0.911  0.9822  1.9125 -0.9832
 6265TIP3    H240355   5.826   4.445   0.831 -0.7182 -0.7673 -2.2721
 6266TIP3   OH240356   6.286   0.157   1.410  0.4985  0.0317  0.0256
 6266TIP3    H140357   6.306   0.125   1.498 -0.2968 -0.7262 -0.0606
 6266TIP3    H240358   6.371   0.162   1.366  0.9249  0.6279  0.9036
 6267TIP3   OH240359   2.984   4.268   7.646 -0.9235  0.2111 -0.7273
 6267TIP3    H140360   3.016   4.338   7.589  0.6597 -1.0543 -1.5037
 6267TIP3    H240361   3.018   4.290   7.732  2.5195 -1.1366 -1.5328
 6268TIP3   OH240362   2.818   6.138   1.823  0.1481  0.3688  0.5369
 6268TIP3    H140363   2.768   6.153   1.742  0.9412 -0.9874 -0.2293
 6268TIP3    H240364   2.753   6.148   1.893 -0.7279  0.7490 -0.2974
 6269TIP3   OH240365   0.175   4.538   1.137 -0.3924 -0.3131 -0.0029
 6269TIP3    H140366   0.169   4.633   1.128  1.2816 -0.1146  0.5646
 6269TIP3    H240367   0.091   4.506   1.107 -0.8115  1.3163 -0.6902
 6270TIP3   OH240368   2.545   0.345   7.312  0.5317  0.1219  0.2635
 6270TIP3    H140369   2.608   0.277   7.337  0.7577  0.5191  0.8074
 6270TIP3    H240370   2.587   0.427   7.340  0.2698  0.4878 -0.3983
 6271TIP3   OH240371   1.169   1.273   6.711  0.7529  0.3058  0.4714
 6271TIP3    H140372   1.096   1.334   6.704  0.5986  0.1840  0.9923
 6271TIP3    H240373   1.228   1.314   6.775  2.0765  1.3476 -1.3469
 6272TIP3   OH240374   0.276   6.849   0.362  0.0714  1.0813  0.6526
 6272TIP3    H140375   0.320   6.835   0.278 -0.8851 -2.1773  0.5622
 6272TIP3    H240376   0.343   6.833   0.428  0.3055  1.4933  0.5143
 6273TIP3   OH240377   5.520   6.471   7.769  0.4487 -0.4638  0.2715
 6273TIP3    H140378   5.449   6.517   7.725  0.4863 -0.9555 -0.3053
 6273TIP3    H240379   5.557   6.537   7.828 -0.4638 -0.1972  0.5664
 6274TIP3   OH240380   1.596   5.544   0.679 -0.1764 -0.2887 -0.0056
 6274TIP3    H140381   1.568   5.631   0.652 -0.1464 -0.2568  0.0674
 6274TIP3    H240382   1.568   5.537   0.771  0.6531 -0.0050  0.2753
 6275TIP3   OH240383   3.830   0.606   0.681 -0.2537  0.7011 -0.2467
 6275TIP3    H140384   3.824   0.659   0.760 -2.7619 -0.7641  0.6673
 6275TIP3    H240385   3.743   0.568   0.670  1.2668 -3.1244 -0.8874
 6276TIP3   OH240386   3.273   6.226   6.338  0.0187 -0.2351 -0.0071
 6276TIP3    H140387   3.262   6.295   6.403  0.9545 -0.4989  0.4406
 6276TIP3    H240388   3.186   6.218   6.297 -0.0207  1.4497 -0.3295
 6277TIP3   OH240389   4.151   3.998   1.775 -0.1143 -0.3267 -0.3704
 6277TIP3    H140390   4.069   4.027   1.734  0.3346  0.1631 -0.9466
 6277TIP3    H240391   4.154   3.904   1.760  0.3583 -0.0757 -2.0894
 6278TIP3   OH240392   2.257   3.871   1.402  0.1956 -0.0050 -0.5704
 6278TIP3    H140393   2.211   3.955   1.409 -0.6179 -0.5414  1.0450
 6278TIP3    H240394   2.335   3.882   1.457  1.0712  0.2818 -1.8302
 6279TIP3   OH240395   5.722   5.385   7.242  0.1161  0.1886  0.2489
 6279TIP3    H140396   5.786   5.391   7.314 -0.2884 -0.3571  0.6606
 6279TIP3    H240397   5.776   5.367   7.165  0.4312 -0.7550  0.6721
 6280TIP3   OH240398   1.000   1.465   6.618  0.1411  0.5005 -0.0130
 6280TIP3    H140399   1.031   1.446   6.529 -0.4633  1.6710 -0.5029
 6280TIP3    H240400   0.924   1.522   6.605  0.6096  1.4720  1.2742
 6281TIP3   OH240401   0.654   5.745   1.702  0.0400  0.2714  0.4068
 6281TIP3    H140402   0.650   5.670   1.762 -0.6929  0.8889  1.1677
 6281TIP3    H240403   0.601   5.812   1.745  1.1123  1.4123  0.0034
 6282TIP3   OH240404   2.508   6.779   0.961  0.2986  0.3003  0.0520
 6282TIP3    H140405   2.592   6.744   0.990 -0.8696 -3.0466 -0.1304
 6282TIP3    H240406   2.490   6.851   1.021  1.3789 -1.6297  2.9116
 6283TIP3   OH240407   3.085   3.091   0.164  0.1976 -0.1845 -0.1953
 6283TIP3    H140408   3.101   3.137   0.247  0.0203 -1.1918  0.4151
 6283TIP3    H240409   3.025   3.148   0.116 -1.6936 -0.6898  1.4207
 6284TIP3   OH240410   0.678   3.232   7.930  0.1199 -0.1050 -0.0198
 6284TIP3    H140411   0.590   3.266   7.947  0.7318  0.2942  2.7268
 6284TIP3    H240412   0.737   3.302   7.958  1.3527 -0.9768 -0.3460
 6285TIP3   OH240413   5.496   3.440   0.065 -0.0349 -0.2401  0.2669
 6285TIP3    H140414   5.446   3.376   0.116  0.2945 -1.9226 -1.3957
 6285TIP3    H240415   5.445   3.450  -0.016  0.8481  0.2324 -0.2402
 6286TIP3   OH240416   5.608   2.396   7.586 -0.4608  0.5985 -0.4494
 6286TIP3    H140417   5.533   2.429   7.636 -0.9652 -1.5045  0.2944
 6286TIP3    H240418   5.652   2.335   7.646  0.0087 -0.5890 -1.9396
 6287TIP3   OH240419   0.592   4.532   5.876 -0.1884 -0.4074 -0.3165
 6287TIP3    H140420   0.670   4.477   5.875 -0.0048 -0.3469  2.4147
 6287TIP3    H240421   0.522   4.475   5.843  0.4629 -1.4459  0.0553
 6288TIP3   OH240422   3.188   2.296   6.829 -0.1440  0.1364  0.3680
 6288TIP3    H140423   3.158   2.355   6.898 -1.2452  0.0444 -0.0053
 6288TIP3    H240424   3.275   2.328   6.805 -0.0736  0.6311  1.2587
 6289TIP3   OH240425   1.266   6.223   7.678 -0.2437  0.0209  0.9237
 6289TIP3    H140426   1.185   6.260   7.646  1.0568  1.2382 -1.1828
 6289TIP3    H240427   1.306   6.293   7.731  1.3658  1.1547 -1.5881
 6290TIP3   OH240428   6.912   2.821   6.271  0.0080 -0.1224  0.1018
 6290TIP3    H140429   7.005   2.846   6.270 -0.3612  1.4586 -1.8539
 6290TIP3    H240430   6.892   2.799   6.181 -1.9268  1.3111  0.1153
 6291TIP3   OH240431   4.435   6.305   5.952  0.2255  0.2348 -0.4255
 6291TIP3    H140432   4.396   6.229   5.908 -0.2089 -0.5086  1.1580
 6291TIP3    H240433   4.360   6.348   5.994  0.8519 -0.2500  1.2602
 6292TIP3   OH240434   1.709   1.442   2.187 -0.0346  0.3065  0.1109
 6292TIP3    H140435   1.780   1.462   2.249  1.6804 -0.3022 -1.5507
 6292TIP3    H240436   1.751   1.443   2.101 -2.0931 -0.0021 -0.9662
 6293TIP3   OH240437   4.623   4.805   1.435  0.4524  0.3503 -0.2714
 6293TIP3    H140438   4.636   4.886   1.486 -3.0067  0.1883  1.1461
 6293TIP3    H240439   4.632   4.735   1.500  1.3222 -0.2692 -1.0489
 6294TIP3   OH240440   2.782   4.892   6.216  0.2594 -0.4014 -0.0979
 6294TIP3    H140441   2.833   4.900   6.136  0.1531 -2.3549 -0.4000
 6294TIP3    H240442   2.691   4.895   6.187  0.1860  0.8385  0.1970
 6295TIP3   OH240443   2.443   0.935   6.993  0.4049  0.3308  0.2586
 6295TIP3    H140444   2.511   1.001   7.006 -1.2283  1.9619  1.0515
 6295TIP3    H240445   2.485   0.868   6.938  2.9422  0.7037  1.5813
 6296TIP3   OH240446   4.744   2.921   0.838  0.0919 -0.3530 -0.2210
 6296TIP3    H140447   4.691   2.989   0.879  1.6480  0.4398  0.5554
 6296TIP3    H240448   4.763   2.955   0.750 -1.4648 -1.0851 -0.8642
 6297TIP3   OH240449   3.030   5.219   6.074 -0.1818  0.2485 -0.4389
 6297TIP3    H140450   3.098   5.272   6.033  0.7829  0.5427  1.4200
 6297TIP3    H240451   3.071   5.184   6.153 -1.0875 -2.5155 -1.0828
 6298TIP3   OH240452   1.864   2.595   6.457  0.2962  0.4675 -0.1018
 6298TIP3    H140453   1.868   2.565   6.548 -1.7635  0.7343  0.1480
 6298TIP3    H240454   1.845   2.689   6.464  2.4650  1.0098 -0.8480
 6299TIP3   OH240455   4.451   2.685   0.679 -0.1112  0.6330  0.3232
 6299TIP3    H140456   4.393   2.657   0.750 -1.2054 -0.3345 -0.9276
 6299TIP3    H240457   4.478   2.604   0.636 -0.6731  1.2899 -1.3134
 6300TIP3   OH240458   3.668   3.923   1.429 -0.1978 -0.4706  0.1899
 6300TIP3    H140459   3.715   4.003   1.454 -1.0830 -0.2251  1.1542
 6300TIP3    H240460   3.601   3.913   1.497 -0.5175 -1.6777 -0.2849
 6301TIP3   OH240461   6.152   4.344   6.495  0.0409 -0.7341 -0.4875
 6301TIP3    H140462   6.132   4.263   6.541 -1.0459  1.1065  2.6134
 6301TIP3    H240463   6.078   4.357   6.436 -1.9979 -0.0870  2.0079
 6302TIP3   OH240464   1.292   0.461   6.501  0.3084 -0.8521  0.9155
 6302TIP3    H140465   1.233   0.446   6.576 -0.4329 -0.3369  0.4525
 6302TIP3    H240466   1.240   0.433   6.425  0.1349  0.8716  0.3657
 6303TIP3   OH240467   0.084   6.152   7.320  0.0202  0.0191  0.1881
 6303TIP3    H140468   0.053   6.082   7.377 -3.6851  0.3192 -1.1882
 6303TIP3    H240469   0.106   6.224   7.380  0.3526 -1.0616  1.3996
 6304TIP3   OH240470   6.498   5.669   6.699  0.5379 -0.2829  0.3438
 6304TIP3    H140471   6.593   5.680   6.703  0.5551  0.0696 -0.7024
 6304TIP3    H240472   6.483   5.628   6.614 -0.3092  0.3959  0.1568
 6305TIP3   OH240473   0.663   4.858   0.596 -0.2109  0.0731 -0.8953
 6305TIP3    H140474   0.708   4.853   0.512  0.2857  2.1359 -0.8022
 6305TIP3    H240475   0.657   4.952   0.615 -2.8274 -0.2114  0.0459
 6306TIP3   OH240476   4.169   6.157   6.663 -0.2652  0.0533 -0.1323
 6306TIP3    H140477   4.243   6.215   6.645  0.9854 -0.8279  1.8395
 6306TIP3    H240478   4.169   6.094   6.590 -0.6793  1.5254 -1.4616
 6307TIP3   OH240479   2.037   0.403   7.492  0.0206  0.3027 -0.2885
 6307TIP3    H140480   2.026   0.497   7.511  0.5814  0.6485 -1.5621
 6307TIP3    H240481   2.129   0.385   7.512 -0.3729 -0.2937  1.1250
 6308TIP3   OH240482   3.283   2.613   5.884 -0.4772 -0.0323  0.5958
 6308TIP3    H140483   3.209   2.636   5.828  2.4031  0.5867 -3.3566
 6308TIP3    H240484   3.313   2.697   5.919  0.6494  0.3160 -1.0885
 6309TIP3   OH240485   3.194   2.369   7.247  0.0892  0.1522  0.1774
 6309TIP3    H140486   3.104   2.341   7.262  0.6339 -0.9775  1.5585
 6309TIP3    H240487   3.198   2.457   7.286 -0.5347  0.4231 -0.3528
 6310TIP3   OH240488   1.824   1.682   7.359 -0.0650 -0.1690  0.5387
 6310TIP3    H140489   1.741   1.711   7.398  0.0037 -0.1019  0.6365
 6310TIP3    H240490   1.891   1.725   7.413  0.0319 -0.1490  0.4005
 6311TIP3   OH240491   7.035   1.200   7.722  0.2028  0.4283  0.2282
 6311TIP3    H140492   6.989   1.229   7.643 -0.7420  0.4648  0.7764
 6311TIP3    H240493   7.111   1.258   7.728 -1.7925  3.1203  1.4634
 6312TIP3   OH240494   6.543   5.049   7.866 -0.3194  0.3888  0.4323
 6312TIP3    H140495   6.482   5.071   7.795  1.1323  0.3772 -0.8639
 6312TIP3    H240496   6.501   4.976   7.912 -0.1733 -1.3080 -1.9790
 6313TIP3   OH240497   1.361   4.315   0.724 -0.2039 -0.8229 -0.0015
 6313TIP3    H140498   1.401   4.397   0.695  1.2537 -1.2540  0.7135
 6313TIP3    H240499   1.310   4.286   0.648 -2.8297  1.9215  0.4723
 6314TIP3   OH240500   4.030   7.029   1.993  0.3575 -0.1080 -0.8771
 6314TIP3    H140501   4.113   7.054   2.033 -0.5915 -0.3913  1.4653
 6314TIP3    H240502   4.030   6.933   1.995 -0.3343 -0.1085 -0.0734
 6315TIP3   OH240503   3.401   1.016   6.394 -0.3016  0.5997 -0.0419
 6315TIP3    H140504   3.335   0.981   6.454 -1.7405  0.7428 -1.4608
 6315TIP3    H240505   3.478   1.031   6.449 -1.3734  0.2308  1.6424
 6316TIP3   OH240506   4.562   3.950   0.970  0.1074  0.5298 -0.0077
 6316TIP3    H140507   4.640   4.002   0.992  0.5342 -0.8709  2.1093
 6316TIP3    H240508   4.516   3.940   1.054 -1.5506  0.0240 -0.9363
 6317TIP3   OH240509   5.905   7.143   0.587  0.3974 -0.5000 -0.4164
 6317TIP3    H140510   5.843   7.181   0.649  1.6123 -0.5776  0.8844
 6317TIP3    H240511   5.857   7.070   0.547  0.3567 -2.1159  2.3132
 6318TIP3   OH240512   0.272   6.357   6.908 -0.3554  0.3935  0.1290
 6318TIP3    H140513   0.291   6.426   6.972 -2.0458 -0.2906  1.4489
 6318TIP3    H240514   0.345   6.297   6.916 -0.5362  0.3101  1.4791
 6319TIP3   OH240515   4.339   1.836   0.515  0.0049 -0.2103 -0.2689
 6319TIP3    H140516   4.291   1.909   0.554  0.8376 -0.5812  1.5555
 6319TIP3    H240517   4.279   1.799   0.450 -0.8735  1.3476 -0.3935
 6320TIP3   OH240518   4.623   2.922   1.599 -0.0631 -0.0833 -0.1253
 6320TIP3    H140519   4.698   2.939   1.656  0.2533 -0.2589 -0.4834
 6320TIP3    H240520   4.595   2.833   1.622  0.5492 -0.4495 -0.7818
 6321TIP3   OH240521   2.290   3.092   7.811  0.4491  0.5518 -0.1931
 6321TIP3    H140522   2.309   3.182   7.837  0.7402  0.2221  0.7603
 6321TIP3    H240523   2.356   3.039   7.856 -0.9345 -0.3280  0.8831
 6322TIP3   OH240524   5.688   0.852   7.010  0.5360 -0.1563  0.1638
 6322TIP3    H140525   5.758   0.837   7.073 -0.1190 -1.9793  0.4983
 6322TIP3    H240526   5.727   0.829   6.925  0.8079  0.3971  0.1292
 6323TIP3   OH240527   1.547   3.600   6.120 -0.0090  0.3595 -0.1160
 6323TIP3    H140528   1.605   3.535   6.081  0.8815  1.3160 -0.4219
 6323TIP3    H240529   1.507   3.644   6.045 -1.6650 -0.7095  0.0824
 6324TIP3   OH240530   3.806   0.289   7.302  0.4387  0.3178  0.4085
 6324TIP3    H140531   3.872   0.287   7.371  1.9225  0.3177 -0.9647
 6324TIP3    H240532   3.794   0.197   7.277  0.2945  0.3649  0.3029
 6325TIP3   OH240533   1.564   0.248   1.404 -0.1345  0.2719  0.2036
 6325TIP3    H140534   1.615   0.205   1.335 -1.6413 -0.4769 -0.4979
 6325TIP3    H240535   1.604   0.335   1.413  1.9351 -0.6714  0.4922
 6326TIP3   OH240536   1.198   3.136   6.164 -0.1866 -0.4370 -0.2314
 6326TIP3    H140537   1.184   3.218   6.211  0.4665  0.3966 -1.4406
 6326TIP3    H240538   1.195   3.161   6.071  0.4633 -1.6992 -0.6147
 6327TIP3   OH240539   2.654   1.932   0.685 -0.1958 -0.4083 -0.3036
 6327TIP3    H140540   2.569   1.977   0.683 -0.4587 -0.8602  0.3276
 6327TIP3    H240541   2.716   1.998   0.653 -0.3003  1.0249  2.1780
 6328TIP3   OH240542   6.563   6.491   2.015  0.4799 -0.5888 -0.2879
 6328TIP3    H140543   6.501   6.563   2.017 -1.4308 -2.1763  0.0045
 6328TIP3    H240544   6.632   6.517   2.076 -1.4667 -0.1067  1.8483
 6329TIP3   OH240545   4.371   2.942   0.802 -0.2109  0.2726 -0.1449
 6329TIP3    H140546   4.328   2.873   0.853 -0.4341  1.1017  0.8325
 6329TIP3    H240547   4.433   2.896   0.746 -0.4164 -0.7258  0.4313
 6330TIP3   OH240548   5.661   0.018   6.641 -0.9756 -0.1000 -0.1133
 6330TIP3    H140549   5.713  -0.061   6.656 -1.0246 -0.0798  0.1755
 6330TIP3    H240550   5.639   0.016   6.548  0.0139  0.1831 -0.3593
 6331TIP3   OH240551   3.811   1.715   6.701  0.0821 -0.8075  0.3840
 6331TIP3    H140552   3.777   1.765   6.776 -3.3392 -0.6716 -1.0813
 6331TIP3    H240553   3.805   1.623   6.729 -1.5308 -0.7770  0.2059
 6332TIP3   OH240554   0.618   0.766   1.654  0.5078 -0.8066  0.4252
 6332TIP3    H140555   0.638   0.673   1.662  1.0908 -0.5711  2.2654
 6332TIP3    H240556   0.547   0.781   1.717 -0.4901 -0.2242 -0.7889
 6333TIP3   OH240557   2.869   2.999   6.950 -0.3289 -0.0603 -0.0996
 6333TIP3    H140558   2.848   2.968   6.862  0.3890  2.2967 -1.1864
 6333TIP3    H240559   2.882   3.094   6.940 -1.2905  0.4888  2.7538
 6334TIP3   OH240560   0.694   4.826   6.402  0.3872  0.3120  0.1473
 6334TIP3    H140561   0.608   4.857   6.432 -0.2746 -0.3214 -1.0240
 6334TIP3    H240562   0.731   4.901   6.356  0.4810  0.5947  0.6726
 6335TIP3   OH240563   3.537   4.996   0.753  0.6597 -0.1758  0.0666
 6335TIP3    H140564   3.593   5.004   0.831  1.7322  0.4847 -0.7403
 6335TIP3    H240565   3.480   5.072   0.757 -0.1792 -0.8297  0.8729
 6336TIP3   OH240566   2.969   4.678   5.764 -0.1427 -0.2558  0.5888
 6336TIP3    H140567   2.985   4.708   5.674  0.6393 -0.8394  0.5230
 6336TIP3    H240568   3.056   4.654   5.797 -0.0651  2.0333  2.2850
 6337TIP3   OH240569   0.889   5.742   7.531 -0.0432  0.0427 -0.3278
 6337TIP3    H140570   0.865   5.833   7.514  2.8013  0.6709 -1.5490
 6337TIP3    H240571   0.981   5.745   7.556 -0.1247 -2.4385  0.5795
 6338TIP3   OH240572   6.896   1.997   6.171  0.1260 -0.2121 -0.4825
 6338TIP3    H140573   6.937   2.004   6.085  1.0089  2.1581  0.0603
 6338TIP3    H240574   6.936   2.067   6.222  0.0776 -1.9168  2.0783
 6339TIP3   OH240575   0.101   3.166   7.234 -0.1816 -0.6786  0.1791
 6339TIP3    H140576   0.168   3.118   7.185 -0.8989 -0.6732 -0.8121
 6339TIP3    H240577   0.129   3.257   7.230 -0.1838 -0.6907 -0.1435
 6340TIP3   OH240578   5.625   1.423   0.016  0.5254 -0.5320  0.5018
 6340TIP3    H140579   5.594   1.514   0.023 -0.6813 -0.8871  0.1418
 6340TIP3    H240580   5.696   1.427  -0.048 -1.4446 -0.2103 -1.8518
 6341TIP3   OH240581   6.056   4.534   5.693  0.1592 -0.4963 -0.2088
 6341TIP3    H140582   5.983   4.509   5.637 -0.0749 -1.1926  0.3959
 6341TIP3    H240583   6.134   4.509   5.643 -0.0570 -3.3753  0.7402
 6342TIP3   OH240584   0.608   2.451   6.946 -0.2137 -0.1197 -0.4983
 6342TIP3    H140585   0.524   2.498   6.947 -0.3633 -0.3759 -0.9799
 6342TIP3    H240586   0.671   2.516   6.914 -0.2086  0.1066 -0.0259
 6343TIP3   OH240587   3.433   4.836   1.433 -1.0020  0.5295 -0.8895
 6343TIP3    H140588   3.393   4.901   1.491 -0.6856  0.7596 -0.9275
 6343TIP3    H240589   3.448   4.883   1.351  0.0700  0.6631 -0.6202
 6344TIP3   OH240590   0.194   0.569   0.204  0.3668  0.0760  0.9328
 6344TIP3    H140591   0.289   0.581   0.207  0.2664  0.8125  1.4592
 6344TIP3    H240592   0.181   0.476   0.220  1.0125 -0.0764  0.5958
 6345TIP3   OH240593   4.869   4.589   6.910 -0.4903  0.4650  0.2620
 6345TIP3    H140594   4.938   4.532   6.945 -0.1164 -0.5979 -2.0727
 6345TIP3    H240595   4.804   4.592   6.980  0.1753 -1.5930  1.0564
 6346TIP3   OH240596   1.071   5.273   7.905  0.0107  0.3036  0.0827
 6346TIP3    H140597   1.051   5.356   7.949 -0.8489 -0.2630  0.7873
 6346TIP3    H240598   0.996   5.257   7.848 -0.8672 -1.0406  1.5515
 6347TIP3   OH240599   0.490   5.914   6.211 -0.0967 -0.1194 -0.4547
 6347TIP3    H140600   0.540   5.834   6.191  1.5622  0.5166  0.8659
 6347TIP3    H240601   0.482   5.959   6.127 -2.0453 -2.1269 -1.4628
 6348TIP3   OH240602   6.769   2.330   7.668 -0.2169 -0.2453  0.7305
 6348TIP3    H140603   6.844   2.353   7.723  0.1676  0.7165 -0.1562
 6348TIP3    H240604   6.808   2.312   7.582 -1.1461  2.4744 -0.3574
 6349TIP3   OH240605   6.200   1.263   7.845  0.1512 -0.1127 -0.1589
 6349TIP3    H140606   6.286   1.301   7.826  0.6152 -1.1824 -0.3003
 6349TIP3    H240607   6.213   1.169   7.833 -0.2854 -0.6229  2.5822
 6350TIP3   OH240608   1.031   5.254   6.742 -0.4737 -0.3556 -0.0291
 6350TIP3    H140609   0.961   5.282   6.683 -0.8144 -0.6486  0.2309
 6350TIP3    H240610   0.995   5.266   6.830 -0.0061 -0.0165  0.1218
 6351TIP3   OH240611   4.694   3.918   0.051  0.0244 -0.2481 -0.6471
 6351TIP3    H140612   4.670   3.827   0.067  0.8630 -0.6004 -1.3110
 6351TIP3    H240613   4.623   3.952  -0.004 -0.3748 -0.4471 -0.2602
 6352TIP3   OH240614   4.038   0.211   6.000 -0.0011 -0.0977  0.0220
 6352TIP3    H140615   4.122   0.165   5.998  0.4447  0.6080  1.2044
 6352TIP3    H240616   3.998   0.183   6.083 -0.1718  0.8529  0.2687
 6353TIP3   OH240617   3.775   0.276   1.718 -0.4071  0.5131  0.4484
 6353TIP3    H140618   3.798   0.301   1.808 -1.1682  0.3150  0.7038
 6353TIP3    H240619   3.686   0.310   1.706  0.3567  2.2102 -0.8951
 6354TIP3   OH240620   6.197   5.759   7.638  0.8462 -0.5116  0.4703
 6354TIP3    H140621   6.188   5.691   7.705  1.9546 -0.0565  1.1026
 6354TIP3    H240622   6.252   5.825   7.679  0.4002  0.4246 -0.4103
 6355TIP3   OH240623   0.782   6.559   8.020 -0.6644  0.3001  0.1342
 6355TIP3    H140624   0.826   6.491   8.072  0.0986  1.6947  1.3640
 6355TIP3    H240625   0.846   6.630   8.015 -2.0579  1.5958  0.2759
 6356TIP3   OH240626   1.495   4.289   6.239 -0.5105  0.1989 -0.6360
 6356TIP3    H140627   1.439   4.304   6.163  1.6295  0.8013 -2.1887
 6356TIP3    H240628   1.521   4.198   6.233 -0.6105  0.1563 -0.4305
 6357TIP3   OH240629   6.234   3.863   5.953 -0.0652 -0.0253 -0.5723
 6357TIP3    H140630   6.203   3.802   6.020  0.4351  0.0090 -0.3043
 6357TIP3    H240631   6.164   3.927   5.945  0.1178  0.3184  0.3710
 6358TIP3   OH240632   5.047   4.413   0.704  0.1912 -0.1662  0.2070
 6358TIP3    H140633   5.031   4.505   0.727 -1.2160  0.0948 -1.5996
 6358TIP3    H240634   5.036   4.366   0.787 -0.3914  1.1537  0.9130
 6359TIP3   OH240635   1.536   4.532   0.726  0.2613  0.3910  0.0769
 6359TIP3    H140636   1.582   4.577   0.797  0.8065 -1.7703  1.1948
 6359TIP3    H240637   1.572   4.570   0.646  1.9444  0.7479  0.9520
 6360TIP3   OH240638   3.260   4.585   7.435  0.3259  0.1580  0.4059
 6360TIP3    H140639   3.265   4.566   7.529 -0.5895  0.2811  0.4853
 6360TIP3    H240640   3.344   4.556   7.400  1.8010  2.5677  1.6902
 6361TIP3   OH240641   3.519   5.698   1.127 -0.4512  0.0386  0.2932
 6361TIP3    H140642   3.564   5.630   1.177  1.3882  0.3138 -0.8611
 6361TIP3    H240643   3.435   5.660   1.103 -0.2710 -1.0649  1.3445
 6362TIP3   OH240644   3.808   3.733   1.862 -0.2295 -0.4879  0.0744
 6362TIP3    H140645   3.792   3.813   1.813  1.2344 -1.4440 -2.1082
 6362TIP3    H240646   3.826   3.667   1.796  1.0484 -2.0643  1.8815
 6363TIP3   OH240647   2.683   2.008   6.539  0.3546  0.4646 -0.3479
 6363TIP3    H140648   2.696   2.045   6.452 -0.7770  1.4154 -0.1448
 6363TIP3    H240649   2.743   2.057   6.596  0.6253  0.2934 -0.4870
 6364TIP3   OH240650   5.632   2.894   1.340 -0.2316  0.3845 -0.2301
 6364TIP3    H140651   5.700   2.933   1.285 -0.1277  0.4377 -0.0626
 6364TIP3    H240652   5.564   2.961   1.345 -0.6260  0.0643 -0.9926
 6365TIP3   OH240653   7.096   2.227   0.294  0.2502 -0.3079 -0.0968
 6365TIP3    H140654   7.051   2.274   0.364  0.2292 -0.8903  0.2870
 6365TIP3    H240655   7.120   2.295   0.231 -1.6703 -0.0552 -0.6061
 6366TIP3   OH240656   1.325   4.839   7.880 -0.2213 -0.5466 -0.2713
 6366TIP3    H140657   1.340   4.785   7.958 -1.9563 -2.4311 -1.1572
 6366TIP3    H240658   1.402   4.895   7.875  1.7245 -2.9352  0.7379
 6367TIP3   OH240659   1.785   2.225   0.887  0.7040  0.0614 -0.0702
 6367TIP3    H140660   1.865   2.175   0.872  1.0553  1.0297 -1.6858
 6367TIP3    H240661   1.728   2.202   0.814 -0.0864  0.1897  0.4940
 6368TIP3   OH240662   2.241   6.174   1.601 -0.4705  0.2350  0.8043
 6368TIP3    H140663   2.243   6.090   1.646 -0.3175  0.2615  0.8491
 6368TIP3    H240664   2.174   6.224   1.647 -1.8217 -0.4607 -0.3179
 6369TIP3   OH240665   3.941   0.001   7.729 -0.4056  0.0981  0.0179
 6369TIP3    H140666   3.947   0.005   7.824 -1.9051  0.7102  0.1110
 6369TIP3    H240667   3.918  -0.090   7.710  0.2525 -0.1113  0.2092
 6370TIP3   OH240668   0.204   1.642   6.349 -0.1010  0.2476 -0.4977
 6370TIP3    H140669   0.160   1.567   6.389 -0.9061  1.6431  1.3642
 6370TIP3    H240670   0.136   1.708   6.340  0.9415  1.3424 -0.5754
 6371TIP3   OH240671   3.646   5.482   5.617 -0.1786 -0.2691 -0.3552
 6371TIP3    H140672   3.646   5.576   5.638  1.0555 -0.8946  2.9411
 6371TIP3    H240673   3.718   5.471   5.556  0.1272  0.8289 -0.2143
 6372TIP3   OH240674   3.263   4.375   0.971 -0.4397  0.0650  0.3444
 6372TIP3    H140675   3.219   4.310   1.026 -0.9547  0.2616  0.1698
 6372TIP3    H240676   3.195   4.405   0.910  0.2090 -0.4051 -0.6265
 6373TIP3   OH240677   6.791   0.908   1.401 -0.5954 -0.0555  0.1681
 6373TIP3    H140678   6.880   0.894   1.369 -0.8634  0.6936 -0.9730
 6373TIP3    H240679   6.745   0.826   1.381 -0.6307  0.2244 -0.9875
 6374TIP3   OH240680   5.552   1.128   2.286 -0.2987  0.1485  0.4339
 6374TIP3    H140681   5.506   1.047   2.307 -0.2824 -0.1044 -0.4758
 6374TIP3    H240682   5.482   1.190   2.264 -0.2526  0.0553  0.0283
 6375TIP3   OH240683   0.033   0.265   1.782  0.8325 -0.9494 -0.4646
 6375TIP3    H140684   0.099   0.212   1.737  2.5416  2.1139 -1.8834
 6375TIP3    H240685   0.079   0.303   1.857  1.0556  1.7434 -1.8284
 6376TIP3   OH240686   4.246   4.285   6.830 -0.7195 -0.4390  0.1979
 6376TIP3    H140687   4.191   4.290   6.752 -0.0332 -0.8246 -0.3257
 6376TIP3    H240688   4.328   4.327   6.804  0.7861 -3.4895 -0.4397
 6377TIP3   OH240689   4.742   2.136   5.909 -0.6722 -0.2114 -0.7637
 6377TIP3    H140690   4.797   2.209   5.937 -2.3966  0.8663 -0.0551
 6377TIP3    H240691   4.797   2.058   5.922  0.0131  0.6103  1.8371
 6378TIP3   OH240692   0.819   1.698   6.398  0.5758 -0.2635  0.4384
 6378TIP3    H140693   0.756   1.628   6.383  0.6485 -0.1407 -0.4614
 6378TIP3    H240694   0.902   1.663   6.367  0.9904 -0.4560  1.6940
 6379TIP3   OH240695   0.582   6.875   0.243  0.2183 -0.0607  0.3550
 6379TIP3    H140696   0.587   6.970   0.237 -1.0398  0.0356  0.4459
 6379TIP3    H240697   0.575   6.846   0.152 -1.5706  0.1243  0.3884
 6380TIP3   OH240698   2.791   2.009   1.126  0.0943 -0.4732 -0.2413
 6380TIP3    H140699   2.846   2.011   1.204  1.4014 -1.7714 -1.0738
 6380TIP3    H240700   2.814   2.088   1.079  2.8375 -1.8934 -1.5344
 6381TIP3   OH240701   1.452   6.387   7.861 -0.2701  0.4612  0.1655
 6381TIP3    H140702   1.510   6.316   7.887 -0.6855  0.3581  0.8152
 6381TIP3    H240703   1.510   6.449   7.816  0.3664  0.3965  0.8759
 6382TIP3   OH240704   4.840   4.472   1.486  0.1567  0.1576 -0.5807
 6382TIP3    H140705   4.866   4.564   1.486 -0.0375  0.2176 -1.3425
 6382TIP3    H240706   4.899   4.431   1.550 -0.3431  0.9597  0.4368
 6383TIP3   OH240707   3.425   6.654   7.644  0.3623  0.2297 -0.3118
 6383TIP3    H140708   3.408   6.621   7.732 -1.1648  1.1893 -0.2095
 6383TIP3    H240709   3.516   6.629   7.626  0.9798  0.7214  1.8501
 6384TIP3   OH240710   1.504   1.974   1.315 -0.4076 -0.1489  0.1144
 6384TIP3    H140711   1.531   1.890   1.279  0.3803 -0.8316  2.1250
 6384TIP3    H240712   1.536   2.039   1.252  0.8456 -1.2648 -0.4405
 6385TIP3   OH240713   6.226   6.543   7.418  0.5189  0.0412  0.1607
 6385TIP3    H140714   6.247   6.595   7.340 -0.9048  1.0978  0.4345
 6385TIP3    H240715   6.306   6.494   7.437  0.3264 -1.7703 -3.0657
 6386TIP3   OH240716   6.787   1.499   0.372 -0.0859 -0.5913  0.3115
 6386TIP3    H140717   6.784   1.568   0.305  0.4211  0.0072  0.8932
 6386TIP3    H240718   6.843   1.535   0.441 -1.8628 -0.5276  1.7949
 6387TIP3   OH240719   5.945   1.502   1.053 -0.2758  0.0629  0.2764
 6387TIP3    H140720   5.922   1.456   0.972  1.5083 -1.3688  0.5213
 6387TIP3    H240721   5.862   1.538   1.084 -1.5120 -1.7272 -0.7462
 6388TIP3   OH240722   0.234   6.506   1.257 -0.5239  0.5170  0.0395
 6388TIP3    H140723   0.189   6.585   1.287 -0.1599  0.7861 -0.1210
 6388TIP3    H240724   0.240   6.451   1.335  0.3262  1.1683  0.4442
 6389TIP3   OH240725   3.999   2.892   1.094 -0.1935 -0.1258  0.4129
 6389TIP3    H140726   3.956   2.810   1.072 -0.4891 -0.4516  2.0919
 6389TIP3    H240727   3.938   2.960   1.064 -0.7576 -0.5449  0.6013
 6390TIP3   OH240728   5.805   0.831   0.675 -0.4238 -0.1099 -0.1832
 6390TIP3    H140729   5.877   0.816   0.736  0.2815  2.2363 -0.3426
 6390TIP3    H240730   5.734   0.865   0.729  0.6101  3.1725 -0.6673
 6391TIP3   OH240731   5.904   2.378   6.674 -0.0444 -0.1502 -0.6528
 6391TIP3    H140732   5.837   2.425   6.723 -0.2165  0.4107 -1.4115
 6391TIP3    H240733   5.922   2.300   6.727 -0.3507  0.3449  0.2034
 6392TIP3   OH240734   4.462   1.961   1.336 -0.3068  0.0580 -0.2902
 6392TIP3    H140735   4.378   1.927   1.367 -0.5385  0.4874 -0.4480
 6392TIP3    H240736   4.454   2.056   1.343 -0.8541  0.2702 -2.9042
 6393TIP3   OH240737   0.309   3.741   6.163 -0.5531 -0.2600  0.7969
 6393TIP3    H140738   0.213   3.738   6.165 -0.6957  1.3286 -0.9861
 6393TIP3    H240739   0.332   3.705   6.077  0.4609 -0.5384  1.1700
 6394TIP3   OH240740   7.011   4.787   1.016  0.1419 -0.2964 -0.1148
 6394TIP3    H140741   7.021   4.765   1.109 -3.4180  0.7361  0.6901
 6394TIP3    H240742   7.035   4.879   1.010  0.3852 -0.3668 -0.2204
 6395TIP3   OH240743   4.174   2.019   7.282  0.5546 -0.4922  0.0225
 6395TIP3    H140744   4.120   2.054   7.353  1.2644 -0.4138  0.5365
 6395TIP3    H240745   4.112   2.004   7.210 -0.4862 -2.1138  1.1695
 6396TIP3   OH240746   0.263   0.275   1.163 -0.0207 -0.9244 -0.4266
 6396TIP3    H140747   0.331   0.342   1.158  0.3222 -1.3445 -1.7132
 6396TIP3    H240748   0.268   0.244   1.254  0.2352  0.3353  0.0162
 6397TIP3   OH240749   2.413   4.507   7.156 -0.2010 -0.0382  0.6274
 6397TIP3    H140750   2.456   4.424   7.139  1.3204  0.1797  2.9499
 6397TIP3    H240751   2.353   4.519   7.082  0.9528 -2.2192 -0.7624
 6398TIP3   OH240752   6.944   2.697   0.884 -0.1843  0.2202 -0.1386
 6398TIP3    H140753   6.869   2.724   0.937 -0.6429 -1.9534  0.3896
 6398TIP3    H240754   6.996   2.777   0.875 -2.1340  1.5969  0.1597
 6399TIP3   OH240755   0.423   5.609   0.121  0.4720  0.6997  0.3926
 6399TIP3    H140756   0.509   5.644   0.144  0.2424  2.2741 -0.9253
 6399TIP3    H240757   0.395   5.661   0.045 -0.2201 -1.9657 -1.3196
 6400TIP3   OH240758   3.731   5.941   6.879  0.0805  0.4522  0.3515
 6400TIP3    H140759   3.687   6.015   6.921  1.4918  1.3456  0.3259
 6400TIP3    H240760   3.785   5.981   6.810  0.7687 -0.6065  0.2453
 6401TIP3   OH240761   3.808   6.714   1.200 -0.6259 -0.4049 -0.5321
 6401TIP3    H140762   3.742   6.782   1.187 -0.3005 -0.2896 -1.7242
 6401TIP3    H240763   3.875   6.756   1.255 -1.2782 -0.3518  0.2346
 6402TIP3   OH240764   5.250   4.310   6.358 -0.4704  0.1811 -0.7399
 6402TIP3    H140765   5.190   4.237   6.368 -0.7792  0.0890 -2.9666
 6402TIP3    H240766   5.280   4.328   6.448 -1.7042 -1.5162  0.0673
 6403TIP3   OH240767   3.141   4.029   1.481  0.1023  0.5233  0.1709
 6403TIP3    H140768   3.076   4.024   1.550 -1.5825  0.3856 -1.3574
 6403TIP3    H240769   3.218   4.067   1.523 -1.2482  1.5674  1.8153
 6404TIP3   OH240770   2.618   1.571   1.157 -0.4014 -0.0867  0.0608
 6404TIP3    H140771   2.672   1.557   1.235 -0.1293 -0.9347 -0.2660
 6404TIP3    H240772   2.672   1.539   1.085 -1.2116 -0.6483 -0.3128
 6405TIP3   OH240773   4.214   4.691   7.092  0.1096 -0.3625  0.1297
 6405TIP3    H140774   4.173   4.632   7.028 -0.4287 -1.3063  1.2971
 6405TIP3    H240775   4.164   4.772   7.084 -0.6426 -0.8125  0.0717
 6406TIP3   OH240776   6.171   1.424   0.679  0.2194 -0.0853  0.2974
 6406TIP3    H140777   6.222   1.474   0.742  0.0758  2.1242 -1.2099
 6406TIP3    H240778   6.118   1.490   0.633  0.8043 -1.4243 -2.5350
 6407TIP3   OH240779   1.354   6.402   1.937 -0.6715 -0.0606  0.2220
 6407TIP3    H140780   1.271   6.446   1.954 -1.8690 -1.5355 -1.4749
 6407TIP3    H240781   1.412   6.471   1.905 -1.9621  0.6028 -0.7740
 6408TIP3   OH240782   3.922   4.734   2.149  0.5391  0.5612 -0.0475
 6408TIP3    H140783   4.012   4.739   2.180  0.2948 -0.8683  1.0148
 6408TIP3    H240784   3.929   4.740   2.054  1.9039 -0.7798 -0.0683
 6409TIP3   OH240785   3.977   1.426   0.326 -0.5254 -0.6828  0.4753
 6409TIP3    H140786   3.920   1.396   0.397 -1.0992  0.2928  0.4394
 6409TIP3    H240787   3.980   1.521   0.336  0.0898 -0.6138 -0.2919
 6410TIP3   OH240788   5.225   2.002   7.286  0.2010  0.0341 -0.0234
 6410TIP3    H140789   5.154   2.058   7.254 -0.2816 -1.0684 -0.9105
 6410TIP3    H240790   5.276   1.982   7.208  1.1856  0.3604  0.5225
 6411TIP3   OH240791   5.461   3.999   6.984  0.0926  0.6200 -0.2051
 6411TIP3    H140792   5.508   3.986   6.902 -1.4390 -3.2973 -0.6715
 6411TIP3    H240793   5.378   3.952   6.972  0.2026 -1.0020  3.8889
 6412TIP3   OH240794   5.522   2.191   0.179  0.0438  0.6447  0.0496
 6412TIP3    H140795   5.488   2.206   0.090  0.8062 -2.0917 -0.8064
 6412TIP3    H240796   5.541   2.279   0.212 -1.5783  1.8482 -1.9353
 6413TIP3   OH240797   5.813   1.933   6.369 -0.1205  0.1091 -0.5168
 6413TIP3    H140798   5.758   1.997   6.324 -0.1906 -0.0831 -0.7088
 6413TIP3    H240799   5.845   1.875   6.299  1.4198  1.0172 -0.6075
 6414TIP3   OH240800   3.556   0.733   1.189 -0.0036 -0.2560 -0.4990
 6414TIP3    H140801   3.616   0.768   1.255  1.0537 -3.1872  0.2469
 6414TIP3    H240802   3.469   0.745   1.227  0.5210 -1.0455  1.0588
 6415TIP3   OH240803   3.288   2.851   0.192  0.1462 -1.0065  0.1050
 6415TIP3    H140804   3.341   2.923   0.155  0.0922 -0.7491  0.5239
 6415TIP3    H240805   3.237   2.892   0.262 -1.0688 -1.1147 -0.6761
 6416TIP3   OH240806   5.793   0.288   6.104 -0.2542 -0.4359  0.0602
 6416TIP3    H140807   5.701   0.311   6.112 -0.0500  0.1988  0.6435
 6416TIP3    H240808   5.805   0.266   6.011 -0.6717  0.8516 -0.3167
 6417TIP3   OH240809   0.857   2.185   7.127  0.1839 -0.0504  0.4003
 6417TIP3    H140810   0.857   2.253   7.194 -0.1157 -1.1736  1.5662
 6417TIP3    H240811   0.765   2.173   7.105  0.3965  2.1661 -2.2144
 6418TIP3   OH240812   4.865   3.270   0.919  0.7956  0.1639 -0.0734
 6418TIP3    H140813   4.870   3.218   0.839 -0.8140 -0.7988  0.4032
 6418TIP3    H240814   4.772   3.293   0.927  0.7941 -0.3268  1.8335
 6419TIP3   OH240815   0.894   3.378   1.295 -0.8108  0.0380  0.6284
 6419TIP3    H140816   0.810   3.335   1.312 -0.4606 -0.0535  2.2872
 6419TIP3    H240817   0.935   3.324   1.227 -2.0240  0.0275 -0.1283
 6420TIP3   OH240818   4.604   4.613   6.735  0.1164  0.9997 -0.3696
 6420TIP3    H140819   4.670   4.626   6.803 -0.2855  0.2959  0.1585
 6420TIP3    H240820   4.549   4.691   6.740 -0.0576  0.8406  0.2785
 6421TIP3   OH240821   3.651   4.697   2.133 -0.2404  0.5368 -0.4730
 6421TIP3    H140822   3.598   4.775   2.151 -1.1455  0.0950 -1.0880
 6421TIP3    H240823   3.734   4.713   2.177  0.1181  2.4724 -1.7013
 6422TIP3   OH240824   6.778   5.213   1.837 -0.5374 -0.8390 -0.3308
 6422TIP3    H140825   6.767   5.215   1.742  1.0341 -0.5390 -0.5293
 6422TIP3    H240826   6.718   5.145   1.867 -0.7352 -1.2361 -1.5843
 6423TIP3   OH240827   1.623   5.158   6.729 -0.4926 -0.6247  0.3664
 6423TIP3    H140828   1.585   5.076   6.698  0.6830 -1.0926  0.0851
 6423TIP3    H240829   1.587   5.225   6.671  1.4400 -1.4503 -1.9491
 6424TIP3   OH240830   1.033   3.899   1.341 -0.4511 -0.2741 -0.1246
 6424TIP3    H140831   1.119   3.862   1.355  0.6829  0.9154 -3.1020
 6424TIP3    H240832   1.005   3.929   1.427  1.2335 -2.3689  1.2442
 6425TIP3   OH240833   6.643   4.191   6.796  0.0831 -0.3710  0.4881
 6425TIP3    H140834   6.607   4.280   6.803  1.1964  0.0112  1.9969
 6425TIP3    H240835   6.592   4.140   6.859  0.4450 -0.4285  0.7392
 6426TIP3   OH240836   3.166   3.669   5.804 -0.5313 -0.4594  0.6083
 6426TIP3    H140837   3.209   3.673   5.890 -0.2516  0.6277  0.4308
 6426TIP3    H240838   3.225   3.615   5.751 -1.2298 -2.0387  1.3683
 6427TIP3   OH240839   1.129   7.012   0.550 -0.3126 -0.6669  0.4160
 6427TIP3    H140840   1.187   7.082   0.580 -1.0750  0.0235  0.3128
 6427TIP3    H240841   1.105   6.965   0.630 -1.1554  0.2533  0.7226
 6428TIP3   OH240842   3.821   0.687   0.419  0.0214 -0.0169  0.2814
 6428TIP3    H140843   3.827   0.674   0.513  1.3646  1.3861  0.4338
 6428TIP3    H240844   3.736   0.729   0.406  0.4672  1.1624  1.0661
 6429TIP3   OH240845   1.039   5.465   1.564 -0.9538 -0.0742  0.0812
 6429TIP3    H140846   1.130   5.446   1.587 -0.8725 -0.2183 -0.3590
 6429TIP3    H240847   1.007   5.519   1.637 -0.6209 -0.3086  0.4039
 6430TIP3   OH240848   6.161   1.259   6.392 -0.0500  0.4180  0.6340
 6430TIP3    H140849   6.216   1.302   6.458  2.1715 -0.6089 -0.4525
 6430TIP3    H240850   6.116   1.190   6.440  1.6143 -0.3883  1.1001
 6431TIP3   OH240851   0.107   2.615   6.532  0.3352 -0.1644 -0.9463
 6431TIP3    H140852   0.024   2.586   6.494 -0.3953 -2.1616  1.8713
 6431TIP3    H240853   0.174   2.572   6.480 -0.6133 -2.8216 -0.1203
 6432TIP3   OH240854   2.531   2.883   6.595  0.6212 -0.4919  0.7375
 6432TIP3    H140855   2.587   2.819   6.552  0.0927  0.0018 -0.7204
 6432TIP3    H240856   2.442   2.849   6.584  0.4262 -0.0356  0.8652
 6433TIP3   OH240857   3.392   6.407   0.242 -0.1831  0.0082 -0.0042
 6433TIP3    H140858   3.376   6.484   0.297  0.3744 -0.0350  0.2199
 6433TIP3    H240859   3.423   6.340   0.303  0.8269  0.0832 -0.4245
 6434TIP3   OH240860   1.778   3.488   1.504  0.3066  0.7159 -0.0550
 6434TIP3    H140861   1.869   3.514   1.489  0.4974  0.7387  1.0310
 6434TIP3    H240862   1.732   3.513   1.424  0.8534  2.6304  0.1706
 6435TIP3   OH240863   6.573   1.052   6.565 -0.1608  0.1123  0.4143
 6435TIP3    H140864   6.487   1.033   6.604  0.7666 -0.1273  2.4975
 6435TIP3    H240865   6.627   1.080   6.639  1.5645  0.2917 -0.8457
 6436TIP3   OH240866   0.885   4.446   1.032 -0.1037  0.0945  0.6296
 6436TIP3    H140867   0.830   4.487   1.098  0.3752  0.6596  0.6912
 6436TIP3    H240868   0.824   4.414   0.965 -0.6067 -0.6951  1.4517
 6437TIP3   OH240869   4.498   5.524   6.438  0.1454  0.0240 -0.4416
 6437TIP3    H140870   4.453   5.466   6.500 -0.4776  0.4543 -0.4724
 6437TIP3    H240871   4.453   5.511   6.355  2.5277 -2.3682 -1.4827
 6438TIP3   OH240872   3.651   6.671   7.214  0.3643 -0.6212  0.4765
 6438TIP3    H140873   3.647   6.582   7.251  1.0521 -1.7800 -2.0187
 6438TIP3    H240874   3.706   6.661   7.136 -2.0547  1.3716 -1.6218
 6439TIP3   OH240875   1.355   6.163   6.518 -0.3541  0.3075  0.3423
 6439TIP3    H140876   1.397   6.145   6.602 -1.5984 -0.6210  0.7948
 6439TIP3    H240877   1.263   6.181   6.540  0.2043  5.0200 -0.3070
 6440TIP3   OH240878   5.657   1.380   0.977  0.0907 -0.0790  0.1985
 6440TIP3    H140879   5.617   1.416   1.056 -1.7377 -0.7288 -0.3913
 6440TIP3    H240880   5.588   1.329   0.936  1.0265  0.1796 -1.8095
 6441TIP3   OH240881   1.192   2.897   0.855  0.4871 -0.2011 -0.0157
 6441TIP3    H140882   1.271   2.950   0.841 -0.0213  0.4346 -0.5232
 6441TIP3    H240883   1.225   2.817   0.896  1.6973 -0.8480 -2.0496
 6442TIP3   OH240884   6.054   5.196   1.289  0.1422 -0.1540  0.5268
 6442TIP3    H140885   6.144   5.191   1.322  0.9040  0.5606 -1.3267
 6442TIP3    H240886   6.062   5.238   1.204 -1.5235 -3.2391 -1.3363
 6443TIP3   OH240887   3.022   0.888   6.174 -0.4369  0.3916  0.6945
 6443TIP3    H140888   2.931   0.862   6.158 -0.7500  2.4135 -1.2583
 6443TIP3    H240889   3.016   0.954   6.243 -0.4718  0.5615  0.5305
 6444TIP3   OH240890   1.025   3.219   6.501  0.3906  0.0565  0.4813
 6444TIP3    H140891   1.085   3.262   6.439 -0.5771 -1.1671 -1.3918
 6444TIP3    H240892   0.946   3.274   6.500  0.4111  0.0899  0.7074
 6445TIP3   OH240893   2.726   0.116   7.262 -0.4657 -0.2768 -0.3274
 6445TIP3    H140894   2.660   0.052   7.289  1.9737 -2.1023  1.8399
 6445TIP3    H240895   2.760   0.081   7.180 -0.6242 -0.5909 -0.2650
 6446TIP3   OH240896   3.067   6.326   1.244  0.2530 -0.9002 -0.2950
 6446TIP3    H140897   2.994   6.388   1.245  1.3815  0.5789  2.7962
 6446TIP3    H240898   3.047   6.267   1.171 -2.8649  0.7396 -0.9525
 6447TIP3   OH240899   4.510   4.184   5.448 -0.3815  0.1710 -0.2456
 6447TIP3    H140900   4.556   4.175   5.365 -1.9378  0.6042 -1.1919
 6447TIP3    H240901   4.566   4.139   5.512  1.3573  0.7368 -1.3032
 6448TIP3   OH240902   1.513   3.908   6.617  0.0004 -0.6092  0.3945
 6448TIP3    H140903   1.585   3.868   6.665  1.1671 -1.3344 -1.8330
 6448TIP3    H240904   1.514   3.865   6.532 -1.7861  0.8047 -0.4051
 6449TIP3   OH240905   6.305   4.837   7.527 -0.0121  0.2784  0.3975
 6449TIP3    H140906   6.223   4.836   7.575 -0.5729 -1.7262 -0.5337
 6449TIP3    H240907   6.283   4.808   7.439  2.0153 -3.0768  0.8042
 6450TIP3   OH240908   4.921   3.731   6.352  0.0525  0.1283 -0.3836
 6450TIP3    H140909   4.868   3.720   6.431  2.1344 -1.1114  0.9200
 6450TIP3    H240910   4.866   3.698   6.281 -0.4313 -2.5397  1.1190
 6451TIP3   OH240911   2.407   3.349   6.426 -0.2674 -0.3951  1.1122
 6451TIP3    H140912   2.380   3.306   6.508  1.3293 -1.1075  1.3091
 6451TIP3    H240913   2.466   3.286   6.385 -0.5208  0.2416 -0.2818
 6452TIP3   OH240914   4.973   6.155   6.592 -0.0889 -0.1763 -0.7990
 6452TIP3    H140915   5.017   6.235   6.564  0.5949  0.2884  1.3501
 6452TIP3    H240916   5.045   6.096   6.617 -0.5909 -1.3763 -2.1004
 6453TIP3   OH240917   0.869   2.534   2.071 -0.0608  0.7129 -0.2265
 6453TIP3    H140918   0.798   2.598   2.071 -1.5277 -0.8427 -0.3697
 6453TIP3    H240919   0.827   2.451   2.093  1.6489 -0.3533 -0.7449
 6454TIP3   OH240920   6.225   2.288   6.782  0.0389 -0.0805  0.1859
 6454TIP3    H140921   6.145   2.242   6.808  1.3715 -2.1836  0.7795
 6454TIP3    H240922   6.225   2.284   6.686  1.1355 -3.3796  0.1902
 6455TIP3   OH240923   3.774   7.124   0.637  0.2049  0.3718  0.1777
 6455TIP3    H140924   3.814   7.051   0.589 -1.2809  0.7598 -1.7823
 6455TIP3    H240925   3.779   7.198   0.576  0.2995  1.5214  1.5307
 6456TIP3   OH240926   4.180   2.680   6.433  0.6088 -0.3698 -0.0363
 6456TIP3    H140927   4.143   2.591   6.430  0.8751 -0.4667 -0.4497
 6456TIP3    H240928   4.131   2.729   6.367  0.4920 -0.2182  0.1613
 6457TIP3   OH240929   5.323   1.285   1.107  0.0732  0.5430  0.4281
 6457TIP3    H140930   5.368   1.207   1.140  0.2736  0.6720  0.4625
 6457TIP3    H240931   5.282   1.257   1.026  0.1887  0.4146  0.4143
 6458TIP3   OH240932   6.861   1.938   0.846  0.5848  1.1682 -0.1778
 6458TIP3    H140933   6.906   1.854   0.857 -1.3233  0.1122 -0.0086
 6458TIP3    H240934   6.873   1.960   0.754 -1.0755 -0.6829 -0.9175
 6459TIP3   OH240935   4.883   4.911   1.923  0.1261 -0.3246  0.0339
 6459TIP3    H140936   4.940   4.986   1.908  0.6772 -0.8157 -0.3649
 6459TIP3    H240937   4.932   4.855   1.982 -0.3263 -0.3316  0.4074
 6460TIP3   OH240938   4.813   3.776   1.538 -0.5012 -0.2419  0.1080
 6460TIP3    H140939   4.843   3.744   1.623 -0.3606  0.5550  0.3678
 6460TIP3    H240940   4.718   3.770   1.541 -0.4367 -1.8247 -0.3355
 6461TIP3   OH240941   1.486   5.873   1.499  0.0995  0.1904  0.0279
 6461TIP3    H140942   1.482   5.887   1.594  2.8931 -1.4004  0.5026
 6461TIP3    H240943   1.567   5.916   1.472  0.8315 -1.7539 -1.0788
 6462TIP3   OH240944   4.432   3.672   7.040 -0.4346  0.4671  0.3753
 6462TIP3    H140945   4.481   3.742   7.082 -0.2326  1.3881 -1.3101
 6462TIP3    H240946   4.496   3.631   6.981 -0.7516 -0.6803  0.8050
 6463TIP3   OH240947   0.339   6.228   1.092 -0.7332  0.3396  0.6710
 6463TIP3    H140948   0.284   6.261   1.021 -0.3211  0.3866  0.3684
 6463TIP3    H240949   0.288   6.244   1.172 -0.8317  1.0862  0.4630
 6464TIP3   OH240950   1.604   5.711   6.799  0.0515 -0.3199 -0.0520
 6464TIP3    H140951   1.653   5.662   6.734 -0.7907 -1.9725  0.4869
 6464TIP3    H240952   1.522   5.661   6.810 -0.7033  1.0302  0.7812
 6465TIP3   OH240953   0.835   1.531   7.091 -0.1320 -0.2489 -0.2782
 6465TIP3    H140954   0.852   1.492   7.005  0.8491 -2.1343  0.7096
 6465TIP3    H240955   0.908   1.501   7.146 -0.9379  0.5987  1.3319
 6466TIP3   OH240956   0.527   0.510   6.178 -0.7156 -0.2453  0.0571
 6466TIP3    H140957   0.453   0.459   6.145  1.0933 -0.4545 -4.3123
 6466TIP3    H240958   0.493   0.599   6.186 -1.9858 -0.7393  0.4410
 6467TIP3   OH240959   0.322   2.518   6.407 -0.1877 -0.3376 -0.1855
 6467TIP3    H140960   0.415   2.522   6.432 -0.2128  3.7934 -0.0040
 6467TIP3    H240961   0.319   2.559   6.321 -1.9685  1.3016  0.5969
 6468TIP3   OH240962   0.557   2.304   0.178  0.0055  0.7547 -0.3503
 6468TIP3    H140963   0.473   2.269   0.150 -0.9336  0.9057  2.0295
 6468TIP3    H240964   0.554   2.397   0.155 -0.2758  0.6570 -0.7065
 6469TIP3   OH240965   6.710   1.192   0.427  0.3186  0.3756  0.4020
 6469TIP3    H140966   6.761   1.125   0.382 -0.7912  0.5008 -1.1060
 6469TIP3    H240967   6.766   1.269   0.427  0.5581  0.2081 -0.2723
 6470TIP3   OH240968   6.097   0.040   1.893 -0.1917 -0.4527 -0.6507
 6470TIP3    H140969   6.156   0.115   1.892 -0.4156 -0.2742 -1.8719
 6470TIP3    H240970   6.078   0.025   1.986 -0.7278  1.4626 -0.4116
 6471TIP3   OH240971   2.827   3.581   1.080 -0.0080 -0.3594 -0.2884
 6471TIP3    H140972   2.779   3.570   0.998  1.2659  0.1578 -1.1298
 6471TIP3    H240973   2.854   3.673   1.080  1.2717 -0.7154 -0.0165
 6472TIP3   OH240974   0.710   1.588   0.513  0.4844  0.3620  0.3874
 6472TIP3    H140975   0.629   1.595   0.563  0.6881 -3.0329  1.3954
 6472TIP3    H240976   0.760   1.666   0.540 -1.9250  1.9788  0.5360
 6473TIP3   OH240977   1.220   0.854   6.536  0.4665 -0.2577  0.1125
 6473TIP3    H140978   1.172   0.803   6.601  1.4085  0.3956  1.3561
 6473TIP3    H240979   1.186   0.943   6.544  0.1519 -0.2982 -0.7302
 6474TIP3   OH240980   3.105   1.543   0.343 -0.1346  0.0517  0.3336
 6474TIP3    H140981   3.040   1.506   0.402  0.6930 -0.5088  0.9116
 6474TIP3    H240982   3.123   1.473   0.280 -0.4455  0.3777 -0.1234
 6475TIP3   OH240983   4.279   4.173   7.757  0.4251 -0.5018 -0.5953
 6475TIP3    H140984   4.188   4.175   7.726  0.5368 -0.8786 -0.9503
 6475TIP3    H240985   4.296   4.263   7.785 -0.1392 -0.4858 -0.2833
 6476TIP3   OH240986   0.247   5.063   1.852  0.3147 -0.4268  0.4861
 6476TIP3    H140987   0.273   5.104   1.935 -1.1010 -0.6210  1.0599
 6476TIP3    H240988   0.204   5.132   1.803  1.0752 -0.3341 -0.0807
 6477TIP3   OH240989   4.382   7.142   1.552 -0.0934 -0.3654 -0.2159
 6477TIP3    H140990   4.330   7.220   1.571  1.2373  0.5537 -0.1909
 6477TIP3    H240991   4.471   7.175   1.539  0.3333 -1.7803 -1.1380
 6478TIP3   OH240992   5.776   6.380   6.174 -0.0021 -0.1828 -0.2126
 6478TIP3    H140993   5.791   6.288   6.199  1.1324  0.0465  0.0296
 6478TIP3    H240994   5.836   6.394   6.101  0.6808  0.6808  0.4941
 6479TIP3   OH240995   3.238   2.952   2.061  0.0022  0.1233 -0.4203
 6479TIP3    H140996   3.253   3.020   2.126 -0.5439 -0.5472  0.4318
 6479TIP3    H240997   3.143   2.948   2.052  0.0756  0.3477 -1.4312
 6480TIP3   OH240998   5.394   2.069   1.601 -0.1957 -0.5288 -0.2848
 6480TIP3    H140999   5.482   2.105   1.593 -0.6583  0.8109  0.3673
 6480TIP3    H241000   5.407   1.974   1.599  1.1021 -0.3637 -1.6501
 6481TIP3   OH241001   3.851   4.790   1.274 -0.2381 -0.1364  0.5040
 6481TIP3    H141002   3.765   4.749   1.282 -0.7546  0.8358  0.0875
 6481TIP3    H241003   3.834   4.884   1.281  0.5489  0.1851 -1.2646
 6482TIP3   OH241004   3.004   4.527   1.162 -0.0725 -0.1944 -0.7831
 6482TIP3    H141005   3.080   4.560   1.112  0.5801 -0.4657  0.0135
 6482TIP3    H241006   2.942   4.600   1.161  0.6580  0.4508 -0.5003
 6483TIP3   OH241007   2.705   2.821   8.021  0.2986  0.1324 -0.2295
 6483TIP3    H141008   2.800   2.814   8.033  0.0831 -1.4013  0.8378
 6483TIP3    H241009   2.669   2.804   8.107 -1.0848 -4.2442 -1.3987
 6484TIP3   OH241010   4.711   3.066   1.257 -0.3623 -0.0409  0.0385
 6484TIP3    H141011   4.651   3.091   1.187 -0.5017 -0.6527 -0.0656
 6484TIP3    H241012   4.783   3.021   1.212  1.3637  2.6480 -0.1185
 6485TIP3   OH241013   6.187   1.137   7.237  0.4491  0.2186  0.6652
 6485TIP3    H141014   6.111   1.153   7.293  0.5765 -2.5784  1.8283
 6485TIP3    H241015   6.239   1.072   7.286  2.5557  0.5431 -1.0027
 6486TIP3   OH241016   2.619   0.064   6.568 -0.1842  0.0368  0.0088
 6486TIP3    H141017   2.557   0.030   6.504  0.3304 -0.2272 -0.3592
 6486TIP3    H241018   2.701   0.019   6.548  0.5930  1.6969 -0.6763
 6487TIP3   OH241019   5.288   7.100   1.598  0.0607  0.2472  0.2631
 6487TIP3    H141020   5.338   7.048   1.661  1.0067  2.0206  1.0628
 6487TIP3    H241021   5.340   7.098   1.518  0.3051  0.2851  0.4194
 6488TIP3   OH241022   4.473   1.515   7.809 -0.0437  0.4656  0.3941
 6488TIP3    H141023   4.448   1.589   7.754  1.4868 -0.3777 -1.5802
 6488TIP3    H241024   4.403   1.452   7.798  0.5507  0.0366 -1.2159
 6489TIP3   OH241025   3.442   2.689   0.372 -0.4079 -0.2148  0.3941
 6489TIP3    H141026   3.403   2.685   0.284  1.1307 -0.7634 -0.3201
 6489TIP3    H241027   3.488   2.773   0.374 -2.1577  0.7767  1.5066
 6490TIP3   OH241028   4.345   0.787   6.832  0.0021  0.3041  0.3444
 6490TIP3    H141029   4.416   0.780   6.895  0.5975 -0.1310 -0.3565
 6490TIP3    H241030   4.389   0.800   6.747 -0.7112 -0.5010 -0.1751
 6491TIP3   OH241031   7.141   3.868   1.509  0.2478 -0.3242 -0.5487
 6491TIP3    H141032   7.127   3.818   1.589 -1.0609 -0.6847 -0.9823
 6491TIP3    H241033   7.217   3.923   1.529  0.4356 -0.9712  0.6543
 6492TIP3   OH241034   4.398   1.174   6.771  0.0819 -0.4080 -0.1233
 6492TIP3    H141035   4.455   1.248   6.790  0.3801 -0.9688  1.2823
 6492TIP3    H241036   4.320   1.189   6.825  0.2064 -1.1854  0.2867
 6493TIP3   OH241037   6.777   5.384   7.832  0.0830  0.0842 -0.8475
 6493TIP3    H141038   6.740   5.331   7.902 -1.0700 -0.9176 -2.1594
 6493TIP3    H241039   6.869   5.396   7.857 -0.5064  0.5764  1.2691
 6494TIP3   OH241040   1.480   2.857   6.737  0.7933 -0.6728 -0.3593
 6494TIP3    H141041   1.474   2.764   6.759  0.4320 -0.6425 -0.3316
 6494TIP3    H241042   1.465   2.902   6.820  1.0041 -0.5894 -0.3657
 6495TIP3   OH241043   0.562   5.338   0.893  0.0436 -0.1080 -0.6078
 6495TIP3    H141044   0.486   5.360   0.948  0.0342  0.3858 -0.8084
 6495TIP3    H241045   0.599   5.260   0.933 -0.1177  0.0953 -0.0460
 6496TIP3   OH241046   3.248   1.536   7.979  0.2573  0.1737 -0.2828
 6496TIP3    H141047   3.214   1.466   7.923  1.4288 -0.8083  0.1751
 6496TIP3    H241048   3.257   1.612   7.921 -0.3560 -0.2624 -0.9600
 6497TIP3   OH241049   4.067   2.454   6.359 -0.7233  0.1596  0.3541
 6497TIP3    H141050   4.063   2.402   6.440 -3.1572  0.4379  0.4607
 6497TIP3    H241051   4.149   2.426   6.318  0.1242 -0.6689  2.4383
 6498TIP3   OH241052   4.560   4.713   6.442  0.1488  0.4769  0.1370
 6498TIP3    H141053   4.585   4.791   6.392  0.6869 -0.3451 -0.9168
 6498TIP3    H241054   4.608   4.721   6.525  0.7256  0.9351 -0.2335
 6499TIP3   OH241055   2.372   0.190   7.909 -0.4027 -0.1703 -0.2757
 6499TIP3    H141056   2.344   0.281   7.921  1.6582  0.5804 -0.6571
 6499TIP3    H241057   2.307   0.152   7.851 -2.6949  0.2725  1.8199
 6500TIP3   OH241058   1.226   1.606   6.392 -0.1662  0.3534 -0.4088
 6500TIP3    H141059   1.311   1.614   6.349 -0.0453 -1.6279 -0.6317
 6500TIP3    H241060   1.227   1.673   6.461  0.7860  1.6298 -1.5956
 6501TIP3   OH241061   4.427   3.177   6.532 -0.6760 -0.0377  0.9445
 6501TIP3    H141062   4.458   3.121   6.461  0.3557 -0.0187  1.3532
 6501TIP3    H241063   4.480   3.152   6.608 -0.5982  1.0773  1.2887
 6502TIP3   OH241064   4.926   5.138   6.979 -0.2981 -0.1742 -0.4498
 6502TIP3    H141065   5.011   5.164   6.944 -0.4834  0.3868 -0.4955
 6502TIP3    H241066   4.865   5.152   6.906 -0.7414  1.3141  0.1594
 6503TIP3   OH241067   6.666   0.616   6.153 -0.4746 -0.2985  0.6338
 6503TIP3    H141068   6.587   0.642   6.105  1.2180  0.0135 -2.1761
 6503TIP3    H241069   6.704   0.546   6.102  3.0709  2.0993 -0.3843
 6504TIP3   OH241070   6.472   6.753   2.032 -0.0453 -0.0108 -0.2003
 6504TIP3    H141071   6.474   6.758   1.937  0.1790  1.1512 -0.1584
 6504TIP3    H241072   6.524   6.828   2.061  0.1732 -0.5359  0.8396
 6505TIP3   OH241073   1.987   6.003   1.292 -0.3909 -0.2081  0.4494
 6505TIP3    H141074   1.921   6.053   1.244 -0.0288  0.8754  1.0463
 6505TIP3    H241075   2.018   6.063   1.360 -0.2471 -1.3845  1.4732
 6506TIP3   OH241076   1.994   5.285   7.030 -0.8034  0.1374 -0.3049
 6506TIP3    H141077   1.923   5.324   6.979  0.0408 -0.3016 -1.8875
 6506TIP3    H241078   1.992   5.331   7.113 -0.1420  3.2900 -1.8937
 6507TIP3   OH241079   2.752   2.380   7.111 -0.2145 -0.4198 -0.6012
 6507TIP3    H141080   2.685   2.333   7.061 -1.1550 -1.4895  1.5675
 6507TIP3    H241081   2.736   2.472   7.092 -1.9050 -0.6933 -0.6448
 6508TIP3   OH241082   0.481   5.434   6.628  0.6720  0.4438 -0.1475
 6508TIP3    H141083   0.520   5.419   6.541  0.2285  0.5021 -0.3615
 6508TIP3    H241084   0.508   5.358   6.680 -0.9101 -0.7747 -0.9960
 6509TIP3   OH241085   3.974   0.559   0.042 -1.0500 -0.2034  0.3529
 6509TIP3    H141086   3.970   0.491  -0.026  0.5957  0.5065 -0.5170
 6509TIP3    H241087   4.000   0.512   0.121 -0.8751 -0.7295 -0.0121
 6510TIP3   OH241088   0.785   0.947   6.352  0.2101  0.4786 -0.0274
 6510TIP3    H141089   0.715   0.984   6.406  1.6545  0.6404  1.8171
 6510TIP3    H241090   0.744   0.933   6.267 -2.1834  0.1522  1.0964
 6511TIP3   OH241091   5.803   4.898   6.719  0.4393 -0.6046 -0.0847
 6511TIP3    H141092   5.753   4.892   6.800  0.2988  0.7912 -0.0343
 6511TIP3    H241093   5.767   4.831   6.662 -2.0145  0.7866 -0.2963
 6512TIP3   OH241094   0.209   5.364   7.864 -0.0166  0.2157 -0.3746
 6512TIP3    H141095   0.201   5.318   7.780  0.7815 -1.6406  0.5128
 6512TIP3    H241096   0.283   5.424   7.850  0.7573 -0.7834 -0.7296
 6513TIP3   OH241097   4.818   5.698   0.420  0.0407 -0.1636 -0.7727
 6513TIP3    H141098   4.743   5.741   0.461 -0.5864  0.0570 -2.1005
 6513TIP3    H241099   4.783   5.619   0.381  0.7081 -0.5858 -0.5366
 6514TIP3   OH241100   6.618   5.751   6.217  0.0303  0.0091  0.5195
 6514TIP3    H141101   6.626   5.809   6.292  1.8656 -3.1167  3.0197
 6514TIP3    H241102   6.547   5.691   6.240 -0.3191 -0.1831 -0.9262
 6515TIP3   OH241103   2.692   0.920   0.100 -0.5255 -0.3201 -0.4061
 6515TIP3    H141104   2.701   0.968   0.182 -2.0303 -2.2089  0.9710
 6515TIP3    H241105   2.780   0.887   0.081  0.1040  1.2544 -0.3204
 6516TIP3   OH241106   0.239   4.679   1.744 -0.2189  0.1402 -0.0470
 6516TIP3    H141107   0.236   4.607   1.680  3.8014  1.0288 -1.5260
 6516TIP3    H241108   0.313   4.657   1.801 -0.4669  1.9058  1.0239
 6517TIP3   OH241109   1.461   0.192   0.094 -0.3764 -0.2107  0.0853
 6517TIP3    H141110   1.514   0.269   0.114 -0.0035 -0.1962 -0.8874
 6517TIP3    H241111   1.459   0.142   0.175 -0.9130  0.9824  0.8366
 6518TIP3   OH241112   4.992   2.272   0.078 -0.4830 -0.7662 -0.4926
 6518TIP3    H141113   4.985   2.354   0.029 -0.7548 -0.5524 -0.1077
 6518TIP3    H241114   4.905   2.258   0.114 -0.1947 -0.7116  0.2459
 6519TIP3   OH241115   1.030   2.290   6.283 -0.2218 -0.1059  0.6623
 6519TIP3    H141116   1.081   2.316   6.361  0.5237  1.0797 -0.1769
 6519TIP3    H241117   1.048   2.359   6.219 -1.6253 -0.5267 -0.2308
 6520TIP3   OH241118   0.001   3.540   5.605  0.5125  0.8479  0.1269
 6520TIP3    H141119  -0.057   3.466   5.623 -0.9649  1.6750 -1.0584
 6520TIP3    H241120   0.083   3.499   5.575  0.2168 -0.3137  0.8317
 6521TIP3   OH241121   3.394   1.861   0.469 -0.4590  0.5158 -0.0687
 6521TIP3    H141122   3.356   1.785   0.424  2.5471 -1.7925  1.0017
 6521TIP3    H241123   3.457   1.897   0.406  0.0188  0.4664  0.3728
 6522TIP3   OH241124   5.822   3.411   7.386 -0.0900  0.0546  0.6136
 6522TIP3    H141125   5.742   3.377   7.346 -0.9455  0.4347  1.9641
 6522TIP3    H241126   5.793   3.453   7.466  1.3452  1.1261  0.6051
 6523TIP3   OH241127   2.394   5.956   0.666 -0.2258  0.4307  0.5160
 6523TIP3    H141128   2.408   6.024   0.732  0.9417 -0.1577  0.8909
 6523TIP3    H241129   2.350   5.886   0.713  1.3123 -0.3179  0.9047
 6524TIP3   OH241130   0.303   4.694   0.812 -0.3091  0.3659  0.2167
 6524TIP3    H141131   0.213   4.664   0.826 -0.3131  0.6706  0.8573
 6524TIP3    H241132   0.345   4.621   0.766 -0.4242 -0.4801  1.4190
 6525TIP3   OH241133   6.847   0.479   0.031 -0.1401  0.7622 -0.1823
 6525TIP3    H141134   6.838   0.414   0.101  0.1458  1.1005  0.1705
 6525TIP3    H241135   6.832   0.429  -0.050 -3.3630  0.8907  0.2219
 6526TIP3   OH241136   4.328   6.448   6.393  0.6144  0.1932  0.3817
 6526TIP3    H141137   4.250   6.423   6.442  0.9949  0.0819  0.9327
 6526TIP3    H241138   4.376   6.366   6.381  0.0913  0.0430 -0.9814
 6527TIP3   OH241139   5.360   4.374   7.653 -0.1522  0.0527  0.1873
 6527TIP3    H141140   5.272   4.387   7.686  0.2455  1.0576  0.8892
 6527TIP3    H241141   5.417   4.393   7.727  0.7024  0.7785 -0.6283
 6528TIP3   OH241142   0.254   1.605   6.712 -0.2238  0.2034 -0.1896
 6528TIP3    H141143   0.298   1.686   6.739  0.9750 -0.8011  1.0526
 6528TIP3    H241144   0.319   1.558   6.659 -1.5480  0.8207 -2.5089
 6529TIP3   OH241145   6.022   3.434   5.840 -0.1516  0.5541 -0.7134
 6529TIP3    H141146   6.078   3.426   5.762 -0.3565  2.8581 -1.1843
 6529TIP3    H241147   6.061   3.506   5.890  0.2386 -1.1621  1.6185
 6530TIP3   OH241148   0.885   3.990   7.314  0.2026  0.0235 -0.3877
 6530TIP3    H141149   0.801   3.976   7.270 -0.4172  0.7912  0.5170
 6530TIP3    H241150   0.867   4.057   7.379  2.0815  2.0352 -1.7943
 6531TIP3   OH241151   3.239   5.611   7.909  0.3385  0.6222 -0.2279
 6531TIP3    H141152   3.332   5.624   7.890  0.5739 -0.1455  0.3267
 6531TIP3    H241153   3.223   5.660   7.989  0.2806  0.7131 -0.2954
 6532TIP3   OH241154   6.670   2.006   1.952  0.1342  0.4290  0.0409
 6532TIP3    H141155   6.576   1.993   1.942  0.4977 -1.8496 -1.2484
 6532TIP3    H241156   6.678   2.069   2.023 -2.3531  0.5847  0.2843
 6533TIP3   OH241157   3.609   5.060   6.403  0.5717  0.0918 -0.0254
 6533TIP3    H141158   3.675   5.082   6.337  1.1175 -0.0838  0.4522
 6533TIP3    H241159   3.650   5.083   6.487  0.1266 -0.2600  0.2947
 6534TIP3   OH241160   6.308   1.561   0.868 -0.2987 -0.4488 -0.5849
 6534TIP3    H141161   6.255   1.624   0.918 -2.2067 -0.6019 -2.2884
 6534TIP3    H241162   6.393   1.562   0.912 -1.3123  0.7347  1.5428
 6535TIP3   OH241163   5.289   2.034   1.052  0.0337  0.0417  0.2666
 6535TIP3    H141164   5.336   2.061   1.131 -0.0686  2.3762 -0.3872
 6535TIP3    H241165   5.327   1.949   1.030  2.2100  0.6953  1.1556
 6536TIP3   OH241166   2.727   6.942   1.203  0.0750  0.4461  0.5358
 6536TIP3    H141167   2.662   6.881   1.236  2.8464 -2.0727  1.7710
 6536TIP3    H241168   2.756   6.992   1.280  0.6617  0.4559  0.3204
 6537TIP3   OH241169   3.754   6.988   6.964  0.3847 -0.7907  0.5469
 6537TIP3    H141170   3.786   7.028   6.883 -1.0718 -0.0223  0.3202
 6537TIP3    H241171   3.829   6.938   6.997  1.9469  1.2039  0.2524
 6538TIP3   OH241172   2.612   6.431   6.584  0.0819  0.1589  0.4768
 6538TIP3    H141173   2.528   6.414   6.543 -1.0140  0.7066  2.3747
 6538TIP3    H241174   2.604   6.520   6.620  1.2731  0.0083  1.1771
 6539TIP3   OH241175   0.995   3.781   0.735  0.0146  0.0427 -0.1053
 6539TIP3    H141176   0.987   3.793   0.641  0.3440 -1.1378 -0.3042
 6539TIP3    H241177   0.912   3.741   0.761 -0.3139  0.9136  0.2152
 6540TIP3   OH241178   5.997   3.460   0.859  0.4039 -0.0126  0.1022
 6540TIP3    H141179   6.012   3.540   0.910 -2.6871  2.2167 -2.0824
 6540TIP3    H241180   5.908   3.433   0.883  0.4195 -1.2869 -1.1337
 6541TIP3   OH241181   1.648   5.653   0.067 -0.0415 -0.1012  0.1647
 6541TIP3    H141182   1.621   5.706   0.143 -0.8321 -0.0333 -0.1532
 6541TIP3    H241183   1.568   5.607   0.041  0.8554 -2.3625  1.1371
 6542TIP3   OH241184   1.444   3.478   0.091 -0.0245  0.1721  0.0595
 6542TIP3    H141185   1.414   3.513   0.007 -1.9765 -0.4298  0.4588
 6542TIP3    H241186   1.372   3.423   0.121  1.9231 -2.1727  0.6644
 6543TIP3   OH241187   7.003   0.299   1.109 -0.7195  0.0572  0.0442
 6543TIP3    H141188   6.928   0.331   1.060 -0.5683 -0.3106 -0.4327
 6543TIP3    H241189   7.006   0.205   1.091  1.4810  0.4633 -2.2200
 6544TIP3   OH241190   0.252   1.910   0.005 -0.7816  0.1064  0.0822
 6544TIP3    H141191   0.278   1.818  -0.000 -0.4953  0.1143  1.1006
 6544TIP3    H241192   0.211   1.918   0.091 -1.4305  0.7773 -0.2860
 6545TIP3   OH241193   2.020   0.364   6.970 -0.2879  0.3521  0.0035
 6545TIP3    H141194   2.110   0.396   6.978 -0.1270  0.3197 -1.3622
 6545TIP3    H241195   1.978   0.391   7.051  0.4320  2.1115 -0.1567
 6546TIP3   OH241196   1.679   2.096   6.901 -0.0008  0.3135 -0.1120
 6546TIP3    H141197   1.681   2.007   6.866 -1.4696 -0.0536  0.6735
 6546TIP3    H241198   1.759   2.103   6.954  0.4697 -0.2879 -0.7262
 6547TIP3   OH241199   6.092   4.136   1.210 -0.2008 -0.1270 -0.0574
 6547TIP3    H141200   6.129   4.136   1.298 -0.6318  0.2447  0.1234
 6547TIP3    H241201   6.148   4.075   1.161 -2.8852 -4.4925  1.7161
 6548TIP3   OH241202   6.644   2.593   7.496  0.3514 -0.4747 -0.5304
 6548TIP3    H141203   6.669   2.670   7.547 -1.8154  0.2597 -0.4962
 6548TIP3    H241204   6.705   2.525   7.524  1.4469  0.8545  0.4348
 6549TIP3   OH241205   2.651   3.538   6.945  0.2581 -0.2197 -0.5709
 6549TIP3    H141206   2.571   3.566   6.901  0.2008 -1.9325 -1.6655
 6549TIP3    H241207   2.720   3.588   6.902 -0.3117  3.4254  2.2747
 6550TIP3   OH241208   3.619   2.276   7.776  0.2452 -0.6795 -0.1657
 6550TIP3    H141209   3.561   2.320   7.715 -0.2321  0.8547  1.3159
 6550TIP3    H241210   3.676   2.345   7.810  1.6466 -1.7983 -0.1190
 6551TIP3   OH241211   1.518   4.950   0.155  0.4878 -0.6877 -0.2288
 6551TIP3    H141212   1.452   4.920   0.218 -0.1348  1.2010  0.0884
 6551TIP3    H241213   1.537   4.873   0.102 -0.7061 -1.7271  0.7789
 6552TIP3   OH241214   7.003   6.326   7.114 -0.2355 -0.1392  0.4963
 6552TIP3    H141215   7.017   6.234   7.137  1.2055 -0.0836 -0.0182
 6552TIP3    H241216   7.081   6.371   7.148  0.2016  0.5048 -1.2312
 6553TIP3   OH241217   4.648   1.713   6.863 -0.5563  0.4081 -0.3014
 6553TIP3    H141218   4.654   1.787   6.923 -0.2384 -1.0047  1.5080
 6553TIP3    H241219   4.739   1.688   6.846 -0.6655 -0.8160  0.7820
 6554TIP3   OH241220   5.951   3.333   7.937 -0.1873  0.4677 -0.1102
 6554TIP3    H141221   6.041   3.348   7.966 -0.7991  1.8390  1.2065
 6554TIP3    H241222   5.902   3.316   8.018 -0.9479 -1.3770 -0.8953
 6555TIP3   OH241223   5.229   5.702   1.955 -0.3182 -0.0920 -0.3788
 6555TIP3    H141224   5.259   5.632   1.897 -1.8358 -0.5870 -0.6230
 6555TIP3    H241225   5.273   5.684   2.038  0.1613 -0.6865 -0.7476
 6556TIP3   OH241226   0.202   0.078   6.446  0.1930 -0.0360 -0.6189
 6556TIP3    H141227   0.262   0.006   6.423 -0.9716 -1.8459  1.5662
 6556TIP3    H241228   0.238   0.154   6.402  3.7309 -1.1585 -0.0109
 6557TIP3   OH241229   2.053   3.564   0.462 -0.1685  0.1017  0.1440
 6557TIP3    H141230   2.033   3.605   0.378  0.7505  1.7316  0.6900
 6557TIP3    H241231   2.008   3.619   0.526  1.0469  0.2377  0.8958
 6558TIP3   OH241232   0.070   4.355   6.702 -0.2333 -0.2257  1.4111
 6558TIP3    H141233   0.082   4.260   6.703  1.6174 -0.1674 -1.6435
 6558TIP3    H241234   0.150   4.389   6.742  1.7658 -0.0497 -2.2812
 6559TIP3   OH241235   2.934   5.556   0.787  0.4328 -0.2962 -0.0299
 6559TIP3    H141236   2.874   5.576   0.715 -1.6009  0.0357  1.6447
 6559TIP3    H241237   2.886   5.492   0.840  0.7832  1.2542  2.2864
 6560TIP3   OH241238   4.438   4.917   0.968 -0.3076 -0.0969  0.0376
 6560TIP3    H141239   4.443   4.823   0.954 -1.7516 -0.2528  0.4733
 6560TIP3    H241240   4.459   4.929   1.061 -1.0321 -0.0746  0.1971
 6561TIP3   OH241241   5.231   1.752   6.967 -0.0481  0.3817 -0.3184
 6561TIP3    H141242   5.215   1.728   6.876 -0.7686 -0.5357  0.0260
 6561TIP3    H241243   5.145   1.778   7.001 -0.2334 -1.3059  0.6422
 6562TIP3   OH241244   4.570   3.861   0.580 -0.2308 -0.3124  0.4607
 6562TIP3    H141245   4.521   3.866   0.497  0.8943 -1.2192 -0.2963
 6562TIP3    H241246   4.504   3.873   0.648 -0.9701  1.9939 -0.5779
 6563TIP3   OH241247   5.199   0.558   1.329  0.1499 -0.0531 -0.3245
 6563TIP3    H141248   5.242   0.483   1.370  0.1973 -0.3400 -0.8898
 6563TIP3    H241249   5.254   0.633   1.353 -0.0251 -0.1535  0.4355
 6564TIP3   OH241250   5.522   1.885   0.493  0.3733 -0.5318 -0.2964
 6564TIP3    H141251   5.610   1.873   0.530  0.0015  2.8251  2.1103
 6564TIP3    H241252   5.470   1.816   0.533  0.8900  0.5689  2.5585
 6565TIP3   OH241253   3.192   6.456   1.902 -0.1165  0.3458 -0.2860
 6565TIP3    H141254   3.102   6.436   1.927  1.1024 -1.9567  2.9942
 6565TIP3    H241255   3.211   6.396   1.830 -0.2920 -1.7421  1.3037
 6566TIP3   OH241256   2.167   5.294   0.869  0.1157  0.0690 -0.3094
 6566TIP3    H141257   2.114   5.373   0.862 -1.9909 -1.3684 -1.4302
 6566TIP3    H241258   2.111   5.230   0.912  1.3127 -1.2056 -0.5604
 6567TIP3   OH241259   0.365   4.891   7.541 -0.4968  0.0463  0.2162
 6567TIP3    H141260   0.273   4.911   7.522 -0.3678  1.5249  0.9790
 6567TIP3    H241261   0.372   4.797   7.526 -1.7367  0.1465 -1.4466
 6568TIP3   OH241262   6.425   6.599   5.690  0.1737 -0.1702  0.0350
 6568TIP3    H141263   6.496   6.633   5.637 -1.4322  1.3988 -1.2419
 6568TIP3    H241264   6.363   6.563   5.627  1.2648 -4.8110  1.2360
 6569TIP3   OH241265   3.430   0.962   1.470 -0.0637  0.1685 -0.3559
 6569TIP3    H141266   3.400   0.948   1.560  0.6022  1.0068  0.0204
 6569TIP3    H241267   3.507   0.907   1.462  0.0010  0.2538 -0.3315
 6570TIP3   OH241268   0.746   2.087   6.487 -0.8272  0.7070 -0.0178
 6570TIP3    H141269   0.787   2.089   6.574  0.6710  1.9057 -0.7082
 6570TIP3    H241270   0.659   2.125   6.501  0.0526  2.5706  0.6671
 6571TIP3   OH241271   6.971   0.067   8.020  0.2930  0.0134  0.4109
 6571TIP3    H141272   6.996  -0.019   7.987 -1.6220  0.0310 -1.2801
 6571TIP3    H241273   6.895   0.051   8.076  0.1668  0.5461  0.4002
 6572TIP3   OH241274   1.398   6.707   6.728  0.2698 -0.3669  0.3033
 6572TIP3    H141275   1.479   6.669   6.696 -0.2784 -1.9028  0.6606
 6572TIP3    H241276   1.338   6.633   6.738 -0.8470  0.5847  1.0377
 6573TIP3   OH241277   0.691   0.665   0.616  0.3076  0.3950  0.0677
 6573TIP3    H141278   0.722   0.722   0.546  1.5136 -0.0364  0.2296
 6573TIP3    H241279   0.732   0.700   0.696 -1.0431  0.8765  0.5789
 6574TIP3   OH241280   0.368   2.968   7.937  0.0346 -0.2474 -0.0258
 6574TIP3    H141281   0.322   2.886   7.953 -0.6781 -0.0465 -0.9503
 6574TIP3    H241282   0.435   2.972   8.005 -0.4281 -1.2141  0.5023
 6575TIP3   OH241283   2.112   3.469   1.140 -0.2681 -0.1492  0.9156
 6575TIP3    H141284   2.144   3.558   1.153  0.1016 -0.0773 -0.3864
 6575TIP3    H241285   2.186   3.413   1.167 -0.3049 -0.0499  1.2211
 6576TIP3   OH241286   5.822   6.190   7.307  0.6697 -0.1554  0.3031
 6576TIP3    H141287   5.738   6.187   7.260  2.1365 -0.1903 -2.5954
 6576TIP3    H241288   5.845   6.283   7.309  0.7907 -0.1926  0.6147
 6577TIP3   OH241289   3.551   0.333   6.733 -0.5464 -0.6892 -0.1846
 6577TIP3    H141290   3.570   0.346   6.825 -2.7294  0.5057  0.1706
 6577TIP3    H241291   3.456   0.345   6.726 -0.5814 -1.7572 -2.4236
 6578TIP3   OH241292   6.518   4.930   1.531  0.4468  1.1895 -0.5735
 6578TIP3    H141293   6.560   4.866   1.588 -1.6797 -0.6956 -1.0188
 6578TIP3    H241294   6.559   4.917   1.446  1.0771  1.5196 -0.3318
 6579TIP3   OH241295   4.932   6.848   1.411  0.0981 -0.3929 -0.2646
 6579TIP3    H141296   4.879   6.925   1.394  0.7412 -0.3668 -2.4398
 6579TIP3    H241297   4.877   6.793   1.467 -1.1920  0.7315 -0.3795
 6580TIP3   OH241298   1.156   1.213   1.041 -0.1526 -0.3407 -0.2358
 6580TIP3    H141299   1.118   1.159   1.110 -1.8301  1.1789  0.1067
 6580TIP3    H241300   1.090   1.213   0.971  0.4540  0.1092 -0.8238
 6581TIP3   OH241301   2.583   3.547   0.614 -0.0536  0.9788  0.1875
 6581TIP3    H141302   2.637   3.496   0.554  0.6201  2.3674 -0.4476
 6581TIP3    H241303   2.507   3.492   0.631  2.6523 -2.3153  3.2934
 6582TIP3   OH241304   0.468   5.814   0.863 -0.5304  0.5394  0.0720
 6582TIP3    H141305   0.477   5.907   0.882  0.2605  0.5465 -0.2842
 6582TIP3    H241306   0.532   5.798   0.794  1.4855 -0.8659  2.1204
 6583TIP3   OH241307   6.780   0.591   7.221  0.1127 -0.0737 -0.7500
 6583TIP3    H141308   6.748   0.656   7.158  1.8765  0.7938 -0.8022
 6583TIP3    H241309   6.710   0.525   7.225 -0.5643  0.4621 -2.7004
 6584TIP3   OH241310   3.381   3.567   1.259 -0.3596  0.0764  0.0816
 6584TIP3    H141311   3.426   3.624   1.197 -1.4675  1.1563  0.2231
 6584TIP3    H241312   3.305   3.534   1.211 -0.2640 -0.4972  0.3157
 6585TIP3   OH241313   6.035   4.160   7.807  0.0571 -0.1105  0.2732
 6585TIP3    H141314   6.054   4.124   7.894 -0.1957 -1.3305 -0.1513
 6585TIP3    H241315   6.108   4.131   7.752 -0.5855 -0.7417 -0.2731
 6586TIP3   OH241316   3.407   1.324   0.828  0.3586 -0.0035 -0.5707
 6586TIP3    H141317   3.455   1.386   0.882  1.7173 -0.0491 -1.6841
 6586TIP3    H241318   3.365   1.378   0.761 -1.3500  0.0577  0.4965
 6587TIP3   OH241319   4.157   6.708   7.689  0.0613  0.5196  0.2394
 6587TIP3    H141320   4.212   6.658   7.749  0.8381  0.8101 -0.2293
 6587TIP3    H241321   4.207   6.787   7.670  1.5855 -1.1322 -3.6584
 6588TIP3   OH241322   1.284   1.499   5.974  0.3158  0.4480 -0.1494
 6588TIP3    H141323   1.361   1.534   5.929 -0.0172  1.7571  0.2801
 6588TIP3    H241324   1.214   1.503   5.908  0.0000  1.7076  0.2350
 6589TIP3   OH241325   7.098   2.687   2.151 -0.8584  0.1147  0.1809
 6589TIP3    H141326   7.133   2.611   2.197 -0.6026  0.6406  0.8714
 6589TIP3    H241327   7.175   2.736   2.124 -1.0400  0.7026  0.7246
 6590TIP3   OH241328   7.068   0.617   5.926  0.2073  0.6044 -0.5060
 6590TIP3    H141329   7.049   0.701   5.968 -1.1594 -0.0999  0.3657
 6590TIP3    H241330   7.084   0.639   5.835 -0.5011  1.7863 -0.3699
 6591TIP3   OH241331   3.987   4.791   0.059 -0.5879  0.3620  0.1883
 6591TIP3    H141332   3.956   4.767  -0.028 -1.5798 -1.3259  0.9473
 6591TIP3    H241333   4.077   4.820   0.045  0.1966 -2.3516 -1.1172
 6592TIP3   OH241334   0.457   1.031   0.953  0.2666 -0.8816 -0.1436
 6592TIP3    H141335   0.434   1.049   0.862  2.0644 -0.0207 -0.4637
 6592TIP3    H241336   0.504   1.109   0.982  0.6587 -1.5832  1.1800
 6593TIP3   OH241337   2.998   6.766   6.924  0.5286  0.0882  0.0188
 6593TIP3    H141338   2.983   6.689   6.979 -0.0241  0.1760 -0.0053
 6593TIP3    H241339   2.912   6.787   6.888  0.4102  1.4513  0.9820
 6594TIP3   OH241340   3.961   6.654   0.518 -0.3176  0.0735 -0.1426
 6594TIP3    H141341   3.926   6.603   0.591 -0.3890 -0.8562 -0.8099
 6594TIP3    H241342   3.884   6.688   0.473 -0.3025  0.0227 -0.2087
 6595TIP3   OH241343   1.911   5.477   6.277  0.3771  0.1048 -0.1970
 6595TIP3    H141344   1.901   5.572   6.283  1.3040  0.2804 -1.0742
 6595TIP3    H241345   1.864   5.453   6.198 -0.2424 -0.2455  0.2686
 6596TIP3   OH241346   1.773   5.416   0.531 -0.0287  0.1935  0.0876
 6596TIP3    H141347   1.703   5.466   0.572 -0.5133 -2.3547  2.6630
 6596TIP3    H241348   1.737   5.391   0.446 -1.9201 -0.2982  0.9859
 6597TIP3   OH241349   3.000   1.927   7.214 -0.0930  0.3851 -0.1598
 6597TIP3    H141350   3.011   1.978   7.134 -0.4613  1.5730  0.5172
 6597TIP3    H241351   2.906   1.918   7.224 -0.0403 -0.0590 -0.0342
 6598TIP3   OH241352   7.037   6.608   5.822  0.0283  0.2929  0.1414
 6598TIP3    H141353   6.974   6.662   5.775  1.7213  0.9477 -1.5091
 6598TIP3    H241354   7.099   6.580   5.754  0.1017 -2.4466  1.2190
 6599TIP3   OH241355   1.185   4.124   6.976  0.1000 -0.1733  0.9284
 6599TIP3    H141356   1.113   4.063   6.963  2.3839 -2.9663  0.5795
 6599TIP3    H241357   1.248   4.103   6.908  1.8216  1.2914  1.9735
 6600TIP3   OH241358   6.117   3.524   1.547  0.3409 -0.1454  0.1108
 6600TIP3    H141359   6.166   3.555   1.471 -1.0686  1.3370 -0.2585
 6600TIP3    H241360   6.035   3.489   1.510 -0.2480  0.3583  0.9121
 6601TIP3   OH241361   2.261   2.275   1.658 -0.2560 -0.3910  0.3396
 6601TIP3    H141362   2.254   2.303   1.567  0.7662 -1.3081 -0.0407
 6601TIP3    H241363   2.338   2.320   1.693  0.9447 -2.0341 -0.0586
 6602TIP3   OH241364   2.183   4.706   8.032  0.5131  0.2653  0.1125
 6602TIP3    H141365   2.173   4.789   7.985  0.0612  0.6808  0.9304
 6602TIP3    H241366   2.189   4.640   7.962 -0.7899  0.7911 -0.5314
 6603TIP3   OH241367   2.111   4.965   0.336  0.1654  0.4108 -0.0206
 6603TIP3    H141368   2.055   4.931   0.405 -1.8592  1.1340 -1.2149
 6603TIP3    H241369   2.161   5.035   0.378  1.1334 -1.0559  1.3634
 6604TIP3   OH241370   5.682   0.559   6.951 -0.0329 -0.5109  0.0722
 6604TIP3    H141371   5.642   0.472   6.941 -0.0938 -0.7159  1.6968
 6604TIP3    H241372   5.610   0.614   6.983  0.1947 -0.0489 -0.2076
 6605TIP3   OH241373   1.882   7.007   0.026 -0.0434  0.3653 -0.6741
 6605TIP3    H141374   1.918   7.090   0.059  0.9937 -1.0805  2.1013
 6605TIP3    H241375   1.787   7.019   0.031  0.0798  1.4547 -0.5360
 6606TIP3   OH241376   5.305   2.229   7.477  0.0020  0.0596  0.5209
 6606TIP3    H141377   5.354   2.173   7.538  0.4454 -0.0185  0.0975
 6606TIP3    H241378   5.240   2.171   7.437  0.8860 -0.3204 -0.3996
 6607TIP3   OH241379   2.730   6.304   0.343  0.3567  0.1808  0.5257
 6607TIP3    H141380   2.683   6.386   0.325  1.2518  0.7192  0.5595
 6607TIP3    H241381   2.707   6.282   0.433  1.4613  1.3492  1.1250
 6608TIP3   OH241382   5.133   1.352   7.497  0.2946 -0.2874  0.2821
 6608TIP3    H141383   5.095   1.279   7.546  2.1511 -1.3969  0.1697
 6608TIP3    H241384   5.217   1.368   7.539  1.2190 -0.1758 -1.5061
 6609TIP3   OH241385   1.178   1.625   1.087  0.6724  0.5761  0.3520
 6609TIP3    H141386   1.265   1.663   1.073  0.7217  0.7321  1.0593
 6609TIP3    H241387   1.169   1.621   1.182  0.7507 -1.3696  0.3178
 6610TIP3   OH241388   4.650   4.072   1.415  0.1516  0.1929  0.0034
 6610TIP3    H141389   4.628   4.005   1.350  0.4152 -1.1815  1.2485
 6610TIP3    H241390   4.571   4.125   1.423 -1.3139 -2.0133  1.3183
 6611TIP3   OH241391   3.048   5.782   6.056  0.2083 -0.1208  0.2237
 6611TIP3    H141392   2.982   5.851   6.056 -0.0576 -0.3542 -0.8188
 6611TIP3    H241393   3.132   5.828   6.060  0.1879  0.5037 -3.3716
 6612TIP3   OH241394   5.152   0.437   6.399  0.0774  0.2742  0.0776
 6612TIP3    H141395   5.204   0.461   6.475 -0.1018  2.3400 -0.4052
 6612TIP3    H241396   5.126   0.347   6.416  2.4981 -0.3313  1.0464
 6613TIP3   OH241397   0.544   1.118   7.897 -0.3935  0.4047 -0.3433
 6613TIP3    H141398   0.554   1.149   7.808  0.3158  0.8708 -0.1097
 6613TIP3    H241399   0.542   1.023   7.890  1.1980  0.3792 -0.7268
 6614TIP3   OH241400   5.197   1.734   7.326 -0.5249  0.4599  0.2009
 6614TIP3    H141401   5.226   1.825   7.327 -0.5497  0.4939 -0.7830
 6614TIP3    H241402   5.273   1.685   7.296 -0.2811  0.0549  1.4507
 6615TIP3   OH241403   2.536   3.868   5.879  0.0573 -0.8202  0.5271
 6615TIP3    H141404   2.456   3.902   5.838  0.8603  1.4818  0.7097
 6615TIP3    H241405   2.606   3.893   5.819  0.8104 -1.2767  1.2063
 6616TIP3   OH241406   4.976   5.173   6.463  0.0756 -0.1564  0.6283
 6616TIP3    H141407   5.029   5.140   6.390 -0.6539  0.3307 -0.1464
 6616TIP3    H241408   4.887   5.170   6.430 -0.0816  2.0251  0.7206
 6617TIP3   OH241409   1.886   5.720   1.252 -0.4474  0.4571 -0.1665
 6617TIP3    H141410   1.881   5.732   1.158  1.3361  0.5819 -0.2810
 6617TIP3    H241411   1.925   5.800   1.285  2.0993 -0.8613  0.2421
 6618TIP3   OH241412   2.552   3.573   1.893 -0.3145 -0.3018 -0.1666
 6618TIP3    H141413   2.610   3.647   1.878 -2.1926  1.3419  0.1351
 6618TIP3    H241414   2.515   3.553   1.807  1.7637 -2.3835 -0.6580
 6619TIP3   OH241415   2.853   0.678   1.505  0.2949 -0.5039 -0.2597
 6619TIP3    H141416   2.856   0.592   1.547  0.0398 -0.3415  0.0895
 6619TIP3    H241417   2.801   0.732   1.564  1.1021  0.1011 -0.0889
 6620TIP3   OH241418   3.869   1.163   7.617  0.1231  0.2352  0.4511
 6620TIP3    H141419   3.933   1.092   7.619  0.0551  0.1999  1.6278
 6620TIP3    H241420   3.898   1.224   7.685 -0.3526  0.8811  0.0913
 6621TIP3   OH241421   5.302   6.065   0.978  0.2887  0.0546  0.0825
 6621TIP3    H141422   5.364   6.034   0.911 -0.5311  0.5492 -0.9315
 6621TIP3    H241423   5.289   5.989   1.035  0.4226 -0.6165 -0.7595
 6622TIP3   OH241424   4.076   5.710   1.301 -0.3871  0.1501  0.3035
 6622TIP3    H141425   3.984   5.724   1.324 -0.5458 -0.6277  0.1623
 6622TIP3    H241426   4.115   5.797   1.305 -0.6379  0.2097  2.4402
 6623TIP3   OH241427   3.650   1.023   1.135 -0.3061 -0.2823  0.0155
 6623TIP3    H141428   3.573   1.063   1.175 -1.0372 -0.8350 -0.8054
 6623TIP3    H241429   3.701   0.989   1.209 -0.3139  0.9888  0.6326
 6624TIP3   OH241430   6.564   0.181   0.477 -0.3714  0.7882  0.2762
 6624TIP3    H141431   6.596   0.102   0.434  1.2032  1.0875  0.8246
 6624TIP3    H241432   6.471   0.185   0.454 -0.2794 -0.7235 -0.4962
 6625TIP3   OH241433   5.923   0.370   7.223 -0.3059  0.4090 -0.5008
 6625TIP3    H141434   5.979   0.295   7.239  0.2735  0.9763  0.1773
 6625TIP3    H241435   5.834   0.334   7.219 -0.1099 -0.2059  0.5467
 6626TIP3   OH241436   7.083   1.055   6.777  0.2104 -0.2064 -0.4823
 6626TIP3    H141437   7.122   0.984   6.828 -0.5212 -0.8389 -0.8040
 6626TIP3    H241438   7.135   1.058   6.697  1.9015  1.3293  0.5886
 6627TIP3   OH241439   4.406   0.091   7.323 -0.2924  0.0469 -0.6151
 6627TIP3    H141440   4.376   0.166   7.273  1.7526  2.0939  1.0025
 6627TIP3    H241441   4.355   0.094   7.404  1.2856  1.0950  0.3932
 6628TIP3   OH241442   3.075   2.481   7.882  0.6397 -0.2112 -0.5086
 6628TIP3    H141443   3.075   2.409   7.946  1.1033 -1.5322 -1.9140
 6628TIP3    H241444   2.982   2.498   7.866  0.5161  0.2146  0.5644
 6629TIP3   OH241445   3.893   0.275   1.475  0.0251  0.0122  0.8670
 6629TIP3    H141446   3.881   0.312   1.563 -0.7863  1.3859  0.2127
 6629TIP3    H241447   3.900   0.351   1.418  0.5453 -0.8690 -0.2692
 6630TIP3   OH241448   2.415   0.579   6.472  0.4499 -0.0920 -0.6738
 6630TIP3    H141449   2.352   0.543   6.535 -0.3347 -0.3779 -1.6096
 6630TIP3    H241450   2.494   0.526   6.485  1.0076  1.1259  1.4469
 6631TIP3   OH241451   0.124   5.171   6.598 -0.1075  0.1875 -0.6132
 6631TIP3    H141452   0.161   5.249   6.557 -0.8798  0.8762 -0.0351
 6631TIP3    H241453   0.043   5.201   6.639  0.0887 -0.6999  0.4912
 6632TIP3   OH241454   3.790   2.825   0.811 -0.3788 -0.4751  0.0052
 6632TIP3    H141455   3.705   2.789   0.837 -1.4144  1.8634  0.1290
 6632TIP3    H241456   3.769   2.889   0.743  1.2343  0.4056  0.2894
 6633TIP3   OH241457   1.123   1.814   0.218 -0.5051  0.2994  0.0230
 6633TIP3    H141458   1.172   1.739   0.184 -0.7379  0.5490 -0.8808
 6633TIP3    H241459   1.043   1.776   0.254 -0.3788  0.0610  0.0525
 6634TIP3   OH241460   2.368   1.420   1.448  0.4038  0.7948 -0.7955
 6634TIP3    H141461   2.418   1.346   1.482  0.3750  0.8907 -0.5362
 6634TIP3    H241462   2.329   1.460   1.526 -2.4454 -0.9472 -1.1773
 6635TIP3   OH241463   4.613   4.261   6.551 -0.6864 -0.2177 -0.9230
 6635TIP3    H141464   4.611   4.296   6.463  1.5906 -0.4633 -1.1145
 6635TIP3    H241465   4.564   4.325   6.603  1.4326  2.1508 -1.6463
 6636TIP3   OH241466   6.385   2.439   7.581 -0.2327  0.6936 -0.2625
 6636TIP3    H141467   6.475   2.428   7.550  0.3870  1.8219  1.0639
 6636TIP3    H241468   6.389   2.420   7.675 -1.4631  0.3712 -0.2582
 6637TIP3   OH241469   1.615   6.748   1.114 -0.4771  0.4699  0.0292
 6637TIP3    H141470   1.652   6.721   1.198 -1.4696  0.1489  0.3866
 6637TIP3    H241471   1.655   6.833   1.096  1.5485 -0.5071 -0.3575
 6638TIP3   OH241472   2.973   2.199   7.972  0.2484 -0.0236  0.1377
 6638TIP3    H141473   3.013   2.156   8.048 -0.8045 -0.0410  0.6976
 6638TIP3    H241474   2.879   2.185   7.984 -0.0526  1.5894 -0.1923
 6639TIP3   OH241475   0.060   3.276   6.880  0.0788 -0.2129  0.4309
 6639TIP3    H141476  -0.028   3.308   6.902  0.0867  0.3175 -0.2766
 6639TIP3    H241477   0.045   3.216   6.806  0.5716  2.0747 -1.6509
 6640TIP3   OH241478   0.658   0.205   7.669 -0.6149 -0.7177  0.3818
 6640TIP3    H141479   0.752   0.199   7.654 -0.3369  1.8629  0.6295
 6640TIP3    H241480   0.631   0.115   7.688  1.5773 -1.6998 -0.7499
 6641TIP3   OH241481   4.444   3.206   7.575  0.5962  0.5969 -0.1685
 6641TIP3    H141482   4.481   3.259   7.504  0.6636  1.2768  0.3640
 6641TIP3    H241483   4.474   3.249   7.655 -0.0232  0.2205  0.2719
 6642TIP3   OH241484   7.109   3.160   8.014  0.0207 -0.3599 -0.3046
 6642TIP3    H141485   7.111   3.255   8.020  1.2792 -0.3836 -0.1110
 6642TIP3    H241486   7.055   3.133   8.088 -1.0831  0.2303 -0.8808
 6643TIP3   OH241487   0.588   5.479   1.542  0.1570 -0.2461 -0.0257
 6643TIP3    H141488   0.548   5.431   1.614  0.4413  0.0592  0.3382
 6643TIP3    H241489   0.670   5.513   1.578  1.5786 -2.2195 -1.2245
 6644TIP3   OH241490   2.627   1.180   6.952 -0.7336  0.1012  0.1203
 6644TIP3    H141491   2.692   1.110   6.956 -1.6696 -0.8459 -0.7641
 6644TIP3    H241492   2.632   1.222   7.038  1.0150  0.0443  0.0874
 6645TIP3   OH241493   6.685   1.723   0.610 -0.5193 -0.6765 -0.5578
 6645TIP3    H141494   6.770   1.696   0.646 -0.3499 -0.2571 -0.6342
 6645TIP3    H241495   6.701   1.732   0.516  0.1383  2.1688 -0.2626
 6646TIP3   OH241496   5.800   5.639   2.117  0.3488  0.6860 -0.0517
 6646TIP3    H141497   5.853   5.611   2.191 -1.9521 -1.0224  1.0733
 6646TIP3    H241498   5.864   5.663   2.050  2.6205 -2.6650  0.6421
 6647TIP3   OH241499   2.401   1.229   6.458 -0.5313 -0.5469 -0.3113
 6647TIP3    H141500   2.402   1.177   6.538  1.8462 -1.0393 -0.5862
 6647TIP3    H241501   2.366   1.314   6.485 -1.4090 -1.2567  0.8596
 6648TIP3   OH241502   1.847   1.759   0.131 -0.5479  0.3674  0.3147
 6648TIP3    H141503   1.849   1.828   0.065 -1.0936 -0.5948 -0.7480
 6648TIP3    H241504   1.922   1.777   0.187  1.3877 -0.1302 -1.9692
 6649TIP3   OH241505   6.774   6.478   6.297 -0.1132  0.0645 -0.7272
 6649TIP3    H141506   6.745   6.510   6.382 -0.2861  1.0712 -1.1594
 6649TIP3    H241507   6.831   6.547   6.263 -0.4174 -0.1169 -1.6315
 6650TIP3   OH241508   5.785   5.597   0.914  0.2209 -0.3010 -0.2091
 6650TIP3    H141509   5.701   5.643   0.908 -0.6654 -1.8132  0.1290
 6650TIP3    H241510   5.804   5.594   1.007 -0.3286 -1.5926 -0.1116
 6651TIP3   OH241511   4.463   4.262   7.531 -0.3648 -0.1409  0.5014
 6651TIP3    H141512   4.419   4.221   7.606 -1.0591  0.5383  0.4692
 6651TIP3    H241513   4.523   4.194   7.499  0.0516 -0.3937  1.7490
 6652TIP3   OH241514   2.687   1.890   7.206  0.1094 -0.5601 -0.5184
 6652TIP3    H141515   2.679   1.977   7.245  2.9200  0.1036 -1.1710
 6652TIP3    H241516   2.640   1.832   7.266 -1.9144  1.3572 -0.1109
 6653TIP3   OH241517   2.657   0.673   0.380 -0.1323 -0.0009 -0.2061
 6653TIP3    H141518   2.622   0.759   0.360  1.0314  0.6103  0.3070
 6653TIP3    H241519   2.702   0.646   0.299  2.1635  1.2517  0.5784
 6654TIP3   OH241520   5.847   3.904   6.464  0.5378 -0.0079 -0.2541
 6654TIP3    H141521   5.850   3.819   6.420  0.1274 -0.6303  0.8741
 6654TIP3    H241522   5.764   3.943   6.436 -0.3855 -0.9905  0.9576
 6655TIP3   OH241523   1.850   4.613   1.922 -0.3526 -0.0433  0.8557
 6655TIP3    H141524   1.866   4.520   1.940 -0.5258  0.1050  1.8040
 6655TIP3    H241525   1.755   4.622   1.928 -0.6639 -0.3647 -2.0758
 6656TIP3   OH241526   1.768   4.348   7.452  0.1261 -0.6407 -0.1858
 6656TIP3    H141527   1.745   4.301   7.372 -1.5538 -0.0259 -0.1099
 6656TIP3    H241528   1.693   4.405   7.468  0.9347  0.0741  1.2103
 6657TIP3   OH241529   3.347   3.912   7.617  0.5405  0.3222 -0.0866
 6657TIP3    H141530   3.407   3.851   7.660 -0.1764 -0.9132 -0.7769
 6657TIP3    H241531   3.404   3.974   7.572  1.3394 -0.8499 -0.7619
 6658TIP3   OH241532   6.325   6.292   1.898 -0.4784 -0.5202 -0.2452
 6658TIP3    H141533   6.332   6.201   1.927 -1.0994 -0.4564  0.1124
 6658TIP3    H241534   6.410   6.331   1.921 -0.8953 -0.5020  1.4196
 6659TIP3   OH241535   3.271   4.763   0.389  0.6773  0.8175 -0.2573
 6659TIP3    H141536   3.336   4.747   0.458  0.9280  1.5985 -0.3019
 6659TIP3    H241537   3.189   4.732   0.426  0.2124  3.8861  1.6305
 6660TIP3   OH241538   4.094   5.128   6.612  0.8885 -0.2224  0.1152
 6660TIP3    H141539   4.159   5.097   6.549  0.1078  1.8358 -1.8462
 6660TIP3    H241540   4.102   5.223   6.610 -1.6698  0.0757  0.3432
 6661TIP3   OH241541   5.003   5.943   1.733 -0.2222  0.2882  0.2301
 6661TIP3    H141542   4.948   5.877   1.692  1.3150  0.1715 -1.7978
 6661TIP3    H241543   5.007   5.918   1.825 -0.9106 -1.5467 -0.2080
 6662TIP3   OH241544   4.264   5.988   7.808 -0.3229 -0.0927 -0.8689
 6662TIP3    H141545   4.205   6.024   7.741 -0.6555 -1.0892 -1.1246
 6662TIP3    H241546   4.352   6.011   7.778 -0.4399 -0.9257 -1.8992
 6663TIP3   OH241547   2.761   6.196   0.099 -0.1679  0.3124  0.1727
 6663TIP3    H141548   2.805   6.123   0.143 -2.2638 -0.1844  1.5465
 6663TIP3    H241549   2.764   6.267   0.163  1.7422  1.4893 -1.1073
 6664TIP3   OH241550   5.225   3.693   0.795  0.2511 -0.0740 -0.0767
 6664TIP3    H141551   5.162   3.764   0.789  0.5979  0.1842 -0.7982
 6664TIP3    H241552   5.186   3.630   0.856  0.3864  1.1892  1.3693
 6665TIP3   OH241553   6.400   5.901   7.752  0.2968 -0.7246  0.1979
 6665TIP3    H141554   6.481   5.949   7.735  0.0884  0.0151  1.2137
 6665TIP3    H241555   6.429   5.813   7.776  0.6250 -1.7773 -3.4355
 6666TIP3   OH241556   2.149   6.166   0.158  0.1371  0.1477  0.0294
 6666TIP3    H141557   2.112   6.100   0.100 -1.9924  1.6579 -0.4921
 6666TIP3    H241558   2.227   6.126   0.196 -2.1082 -3.4496  1.3290
 6667TIP3   OH241559   2.917   6.951   0.338 -0.3268 -0.1025 -0.1718
 6667TIP3    H141560   2.979   6.915   0.401  1.6112  2.4422 -0.4780
 6667TIP3    H241561   2.837   6.966   0.388  0.2980 -0.5850  0.9967
 6668TIP3   OH241562   5.170   1.720   6.098 -0.1867 -0.0433  0.0567
 6668TIP3    H141563   5.084   1.717   6.057 -0.4052  0.6215  0.4440
 6668TIP3    H241564   5.224   1.772   6.038 -0.6129  1.2753  0.7553
 6669TIP3   OH241565   2.055   5.389   0.514 -0.2866  0.5580  0.4733
 6669TIP3    H141566   2.093   5.441   0.585 -0.7087  1.0360  0.3533
 6669TIP3    H241567   1.961   5.405   0.521 -0.3744  0.1941  0.1285
 6670TIP3   OH241568   3.651   6.510   1.230 -0.0858  0.2761 -0.2621
 6670TIP3    H141569   3.712   6.583   1.228 -2.0812  2.1538  1.4264
 6670TIP3    H241570   3.675   6.460   1.307 -0.1249  0.5341 -0.0793
 6671TIP3   OH241571   3.890   1.902   1.579  0.1260 -0.0819 -0.2893
 6671TIP3    H141572   3.868   1.957   1.654 -0.5081  0.2208 -0.6853
 6671TIP3    H241573   3.867   1.813   1.607 -2.3605  0.2770 -0.8939
 6672TIP3   OH241574   3.922   4.194   7.173  0.6262 -0.4257 -0.3241
 6672TIP3    H141575   3.892   4.251   7.244  0.4677  0.3856 -1.0289
 6672TIP3    H241576   3.966   4.122   7.217  2.4298  1.1393  0.5506
 6673TIP3   OH241577   1.495   2.452   7.371  0.6420  0.5847  0.0032
 6673TIP3    H141578   1.462   2.450   7.281 -0.2254 -0.5937  0.3260
 6673TIP3    H241579   1.561   2.383   7.374 -0.3115 -0.3357  0.6060
 6674TIP3   OH241580   1.738   1.565   0.987 -0.1238 -0.3441 -0.3348
 6674TIP3    H141581   1.749   1.478   1.026  2.3878 -0.8822 -2.0192
 6674TIP3    H241582   1.707   1.548   0.898  0.3342  0.4824 -0.6580
 6675TIP3   OH241583   2.060   6.459   7.647  0.3745 -0.0109  0.1819
 6675TIP3    H141584   2.038   6.521   7.717  1.3742  0.5174  0.0386
 6675TIP3    H241585   2.051   6.373   7.688 -1.1971  0.1923  0.3367
 6676TIP3   OH241586   2.637   4.675   6.801 -0.1041 -0.6859 -0.2734
 6676TIP3    H141587   2.569   4.743   6.797  1.4732  0.9960  0.1998
 6676TIP3    H241588   2.652   4.651   6.710 -1.1841 -0.9638 -0.4000
 6677TIP3   OH241589   4.618   0.372   6.089  0.8042  0.4114  0.2175
 6677TIP3    H141590   4.691   0.372   6.151  1.7198  0.4445 -0.8381
 6677TIP3    H241591   4.633   0.297   6.032  0.6865  1.1149 -0.7730
 6678TIP3   OH241592   4.087   4.490   6.973 -0.1683 -0.4970  0.1930
 6678TIP3    H141593   4.120   4.419   6.917  2.3604  0.2241  0.6771
 6678TIP3    H241594   4.091   4.454   7.062 -2.1303 -0.8816  0.1662
 6679TIP3   OH241595   2.835   6.634   7.846 -0.2974 -0.3761  0.0910
 6679TIP3    H141596   2.778   6.572   7.801  0.8688 -0.5672 -1.2025
 6679TIP3    H241597   2.890   6.671   7.777  1.2099 -0.2695  1.2766
 6680TIP3   OH241598   1.552   5.795   1.026 -0.4067  0.3989  0.1786
 6680TIP3    H141599   1.512   5.862   1.081  0.6680  1.3371 -0.1362
 6680TIP3    H241600   1.568   5.722   1.085 -1.6864  0.3581  0.5083
 6681TIP3   OH241601   0.250   0.347   6.364 -0.8289  0.2268 -0.2921
 6681TIP3    H141602   0.251   0.428   6.314 -2.2148  1.2980  1.3030
 6681TIP3    H241603   0.291   0.369   6.448 -1.2028 -0.7025  0.1551
 6682TIP3   OH241604   6.949   5.182   1.512  0.0098 -0.2951  0.8887
 6682TIP3    H141605   6.963   5.101   1.462  1.4534  0.3352  0.2075
 6682TIP3    H241606   7.003   5.171   1.590 -0.0420 -0.1298  0.9477
 6683TIP3   OH241607   4.489   0.178   0.913 -0.0902 -0.4649 -0.1036
 6683TIP3    H141608   4.435   0.199   0.990  3.2083 -0.5936  2.4774
 6683TIP3    H241609   4.521   0.262   0.882  1.0944 -0.6046  0.6988
 6684TIP3   OH241610   2.291   7.130   0.073 -0.2899  0.1031 -0.2683
 6684TIP3    H141611   2.334   7.185   0.007 -0.1510 -0.4782 -0.6677
 6684TIP3    H241612   2.252   7.059   0.023  1.4139 -1.3908  0.4305
 6685TIP3   OH241613   6.995   6.431   7.607 -0.0723 -0.2299  0.6485
 6685TIP3    H141614   6.987   6.523   7.635  0.9592 -0.2507  1.0744
 6685TIP3    H241615   7.030   6.386   7.684 -1.4870 -1.1820  0.7653
 6686TIP3   OH241616   5.486   1.068   1.925 -0.4136  0.8634  0.6956
 6686TIP3    H141617   5.421   0.997   1.927 -0.0951  0.5542  0.2491
 6686TIP3    H241618   5.570   1.024   1.928 -0.0503  0.9026 -3.5339
 6687TIP3   OH241619   5.379   5.403   2.034 -0.5977  0.1741 -0.2654
 6687TIP3    H141620   5.440   5.477   2.034 -1.3050  0.7786  0.9798
 6687TIP3    H241621   5.433   5.328   2.058 -0.5669  0.9471  2.3996
 6688TIP3   OH241622   2.415   4.829   6.779 -0.7170  0.2843  0.8914
 6688TIP3    H141623   2.407   4.922   6.800 -0.9992  0.6265 -0.6534
 6688TIP3    H241624   2.375   4.820   6.693  1.1269 -0.8912  0.0974
 6689TIP3   OH241625   6.623   4.969   1.967  0.1500 -0.4528  0.2092
 6689TIP3    H141626   6.654   4.940   2.052 -0.7987 -2.2604 -0.0087
 6689TIP3    H241627   6.563   4.901   1.938  0.6131 -0.0188 -2.0201
 6690TIP3   OH241628   3.538   6.421   0.547  0.2640  0.6540  0.0395
 6690TIP3    H141629   3.619   6.462   0.578  0.5212  0.0322  0.1977
 6690TIP3    H241630   3.568   6.348   0.493 -0.1963  0.2035  0.3891
 6691TIP3   OH241631   5.254   2.727   1.801  0.1865 -0.0080  0.1133
 6691TIP3    H141632   5.275   2.745   1.893 -2.1619 -0.5111  0.8214
 6691TIP3    H241633   5.206   2.805   1.772  1.3829  0.3769 -0.8744
 6692TIP3   OH241634   3.929   4.025   0.591  0.0768  0.4262  0.4710
 6692TIP3    H141635   3.931   4.056   0.500 -0.2753  0.8439  0.6045
 6692TIP3    H241636   4.008   3.971   0.599  0.5313  1.0180  0.1407
 6693TIP3   OH241637   0.488   0.452   6.866 -0.1616 -0.2967 -0.3724
 6693TIP3    H141638   0.423   0.523   6.857  0.0780  0.1500  1.1867
 6693TIP3    H241639   0.564   0.494   6.905 -0.0864 -1.4395  0.7750
 6694TIP3   OH241640   6.636   0.649   0.145  0.2001  0.0559  0.3626
 6694TIP3    H141641   6.717   0.604   0.123  0.0237  0.6639 -1.7603
 6694TIP3    H241642   6.655   0.742   0.135 -0.2444  0.3410  1.8226
 6695TIP3   OH241643   0.839   0.106   0.218 -0.6245  0.1074 -0.2607
 6695TIP3    H141644   0.858   0.148   0.302  2.8109  0.1840 -0.9382
 6695TIP3    H241645   0.894   0.028   0.216 -2.9966 -1.6870 -1.2248
 6696TIP3   OH241646   6.709   3.011   5.368 -0.4907 -0.1999  0.6012
 6696TIP3    H141647   6.751   3.096   5.356  0.9117 -0.9124  0.2641
 6696TIP3    H241648   6.782   2.950   5.383 -1.5087 -1.2227  1.6021
 6697TIP3   OH241649   1.800   0.490   6.369  0.5744 -0.3906  0.3903
 6697TIP3    H141650   1.871   0.427   6.355  0.5092 -0.3768 -0.0043
 6697TIP3    H241651   1.801   0.545   6.291 -1.2104 -1.6913 -0.6275
 6698TIP3   OH241652   2.046   5.403   7.992  0.6992 -0.7859 -0.2798
 6698TIP3    H141653   2.115   5.387   8.056  1.4872 -0.6069 -1.0824
 6698TIP3    H241654   2.091   5.412   7.909 -0.3355 -1.1818 -0.9020
 6699TIP3   OH241655   1.742   3.436   0.936  0.2690  0.1021  0.1222
 6699TIP3    H141656   1.786   3.424   0.852  0.3677  1.6625 -0.0800
 6699TIP3    H241657   1.740   3.349   0.975  0.4840 -0.6008 -1.3645
 6700TIP3   OH241658   2.933   6.441   1.672  0.0136 -0.0587 -0.3479
 6700TIP3    H141659   2.909   6.450   1.765  0.8383  0.4661 -0.1717
 6700TIP3    H241660   2.982   6.359   1.668  1.4228  0.7392  0.0128
 6701TIP3   OH241661   4.680   1.785   7.512  0.3822  0.2872  0.2469
 6701TIP3    H141662   4.632   1.825   7.439 -1.8613 -2.4394  0.0462
 6701TIP3    H241663   4.626   1.803   7.589  0.9365  0.2624  0.6441
 6702TIP3   OH241664   4.941   4.833   7.078 -0.6607  0.4172 -0.6754
 6702TIP3    H141665   4.920   4.802   6.989 -0.7878 -1.3309 -0.0808
 6702TIP3    H241666   4.934   4.928   7.073 -1.2458  0.3130 -2.3948
 6703TIP3   OH241667   1.948   2.879   6.243  0.2261 -0.7576 -0.2996
 6703TIP3    H141668   1.921   2.920   6.324  0.5995 -0.0870 -0.5118
 6703TIP3    H241669   1.898   2.924   6.175  0.4038 -0.8660 -0.5039
 6704TIP3   OH241670   6.549   1.294   1.006 -0.1621  0.3350 -0.2934
 6704TIP3    H141671   6.593   1.290   0.920  0.0606  2.7437 -0.3775
 6704TIP3    H241672   6.607   1.348   1.059 -1.8177  1.5374  0.3669
 6705TIP3   OH241673   0.420   1.769   6.433  0.3603  0.0478 -0.0669
 6705TIP3    H141674   0.339   1.723   6.412  1.0811 -0.8654 -0.9328
 6705TIP3    H241675   0.406   1.803   6.521 -1.2513  0.5831 -0.4938
 6706TIP3   OH241676   1.776   2.095   2.315  0.2859 -0.3193 -0.3402
 6706TIP3    H141677   1.725   2.162   2.269 -0.6931 -1.3804 -0.8420
 6706TIP3    H241678   1.712   2.049   2.369  1.1202 -0.2345  0.7612
 6707TIP3   OH241679   4.909   1.579   6.859 -0.3798 -0.0547 -0.1355
 6707TIP3    H141680   4.878   1.492   6.836  0.0224  0.1819 -1.7372
 6707TIP3    H241681   4.957   1.568   6.941 -0.2787 -1.3549 -0.3600
 6708TIP3   OH241682   0.051   5.207   1.650  0.2182 -0.2722 -0.0087
 6708TIP3    H141683   0.103   5.282   1.619  0.3430 -0.6587 -0.7474
 6708TIP3    H241684   0.065   5.139   1.584 -0.1002 -0.8658  0.5259
 6709TIP3   OH241685   0.268   3.202   6.656 -0.3054 -0.0247  0.4163
 6709TIP3    H141686   0.258   3.199   6.561  0.2449 -0.7783  0.3659
 6709TIP3    H241687   0.185   3.170   6.690 -0.3726 -0.1151  0.1721
 6710TIP3   OH241688   1.400   1.544   7.141 -0.0767  0.3249 -0.1964
 6710TIP3    H141689   1.448   1.600   7.080 -0.8895 -1.2375 -2.3504
 6710TIP3    H241690   1.404   1.457   7.103 -0.3765 -0.8029  2.1657
 6711TIP3   OH241691   3.455   0.402   0.984 -0.5276 -0.5989  0.1135
 6711TIP3    H141692   3.390   0.435   0.921 -0.8814 -0.4873  0.5316
 6711TIP3    H241693   3.485   0.320   0.946  0.4404  0.2210 -0.9957
 6712TIP3   OH241694   0.131   2.653   0.810 -0.6742 -0.1360 -0.1608
 6712TIP3    H141695   0.075   2.576   0.826 -0.9054  0.1265  0.3083
 6712TIP3    H241696   0.131   2.700   0.893 -0.9039  0.6147 -0.5826
 6713TIP3   OH241697   1.363   5.984   7.800 -0.0708  0.2016  0.0374
 6713TIP3    H141698   1.325   6.056   7.750 -2.0835 -0.6108  0.2897
 6713TIP3    H241699   1.400   6.025   7.878 -0.2080  1.0726 -0.3516
 6714TIP3   OH241700   1.509   3.886   7.438 -0.3593  0.2728 -0.7773
 6714TIP3    H141701   1.499   3.795   7.410  2.9441 -0.3910 -0.1588
 6714TIP3    H241702   1.482   3.937   7.362 -0.9510 -1.2349 -1.6332
 6715TIP3   OH241703   4.583   0.807   6.648 -0.1696 -0.7137  0.3861
 6715TIP3    H141704   4.541   0.764   6.573  0.3884 -0.9723  0.2184
 6715TIP3    H241705   4.633   0.737   6.690  0.7863 -0.2250  0.0861
 6716TIP3   OH241706   3.575   0.538   7.853 -0.7269  0.1395 -0.0528
 6716TIP3    H141707   3.580   0.541   7.948  2.4609  1.7202 -0.1372
 6716TIP3    H241708   3.541   0.624   7.828 -0.4028  0.1877 -0.3419
 6717TIP3   OH241709   1.346   6.737   1.073 -0.4118  0.1701  0.5461
 6717TIP3    H141710   1.427   6.764   1.116 -0.7625  2.2911  0.0020
 6717TIP3    H241711   1.362   6.754   0.980 -1.5336  0.8715  0.4606
 6718TIP3   OH241712   1.679   0.115   0.600 -0.4019 -0.4406 -0.1323
 6718TIP3    H141713   1.661   0.023   0.579  1.8065 -1.2052  0.9441
 6718TIP3    H241714   1.722   0.149   0.522  0.9240 -1.0569  0.2982
 6719TIP3   OH241715   7.101   3.354   7.786  0.1922  0.4294  0.0907
 6719TIP3    H141716   7.169   3.410   7.825  0.8575  0.0031 -0.4237
 6719TIP3    H241717   7.033   3.415   7.757 -0.6106  0.7294  2.3918
 6720TIP3   OH241718   0.958   7.044   7.636  0.2116 -0.3897  0.0831
 6720TIP3    H141719   0.872   7.003   7.627  0.6099 -1.7373  1.7408
 6720TIP3    H241720   1.014   6.996   7.575 -0.1472  0.3392 -0.8332
 6721TIP3   OH241721   1.920   2.006   6.732 -0.4940  0.1393  0.2020
 6721TIP3    H141722   1.902   1.914   6.754  2.3455 -0.5575  0.0530
 6721TIP3    H241723   1.933   2.049   6.816 -1.4054  0.3312  0.2547
 6722TIP3   OH241724   4.285   2.793   0.402  0.2063 -0.0327  0.1973
 6722TIP3    H141725   4.339   2.741   0.343 -1.0259  0.1899 -1.1938
 6722TIP3    H241726   4.339   2.804   0.480  2.5990  1.0296 -1.4630
 6723TIP3   OH241727   5.650   5.091   7.274 -0.4935 -0.1083  0.0213
 6723TIP3    H141728   5.681   5.181   7.277  0.1199 -0.3334  1.5919
 6723TIP3    H241729   5.644   5.070   7.181  2.2826  0.5473 -0.3831
 6724TIP3   OH241730   0.081   3.468   1.484  0.0799  0.2844  0.0477
 6724TIP3    H141731   0.094   3.511   1.568  0.3178  0.9018 -0.2977
 6724TIP3    H241732   0.090   3.375   1.503  3.1962  0.5181  0.2178
 6725TIP3   OH241733   1.403   2.227   6.246  0.0361  0.4101 -0.1236
 6725TIP3    H141734   1.376   2.309   6.205 -0.9685 -0.4739 -1.3110
 6725TIP3    H241735   1.321   2.179   6.262  0.5652 -0.1636  1.0152
 6726TIP3   OH241736   2.507   0.895   0.369 -0.3235  0.2017  0.1583
 6726TIP3    H141737   2.429   0.849   0.337 -0.2288 -0.2621  0.5797
 6726TIP3    H241738   2.478   0.938   0.450 -0.5075  1.1989 -0.4227
 6727TIP3   OH241739   4.085   3.793   6.621  0.0262 -0.2554 -0.1355
 6727TIP3    H141740   4.173   3.828   6.611  0.1467 -0.5034  0.0445
 6727TIP3    H241741   4.075   3.778   6.715 -0.0226 -0.6983 -0.2094
 6728TIP3   OH241742   3.377   1.728   1.076 -0.0171 -0.2097  0.0634
 6728TIP3    H141743   3.325   1.693   1.148  2.1653 -0.9173  1.3796
 6728TIP3    H241744   3.333   1.696   0.997 -1.1891 -1.3226  1.1285
 6729TIP3   OH241745   1.322   0.201   1.115 -0.0487  0.5930 -0.3953
 6729TIP3    H141746   1.400   0.236   1.071 -0.4356  0.8275 -0.9097
 6729TIP3    H241747   1.307   0.260   1.188 -0.2545  1.0594 -0.8118
 6730TIP3   OH241748   4.008   6.492   1.690 -0.4493  0.0790  0.8335
 6730TIP3    H141749   4.040   6.403   1.708 -1.0421  0.0271  1.7057
 6730TIP3    H241750   4.071   6.549   1.734 -0.2548  0.0735  0.5600
 6731TIP3   OH241751   2.369   2.038   0.968 -0.4685 -0.7720  0.4236
 6731TIP3    H141752   2.411   1.965   1.013 -1.4590 -2.8673 -1.8835
 6731TIP3    H241753   2.280   2.040   1.003 -0.7135 -1.2725 -0.1619
 6732TIP3   OH241754   0.628   1.088   5.509  0.6192  0.2151  0.1768
 6732TIP3    H141755   0.614   1.182   5.523 -1.3384  0.2252 -1.3544
 6732TIP3    H241756   0.716   1.071   5.543  0.6288  2.3805  1.4261
 6733TIP3   OH241757   0.996   1.289   6.361 -0.4183  0.3149 -0.0946
 6733TIP3    H141758   1.037   1.329   6.284 -1.0205  1.9738  0.4027
 6733TIP3    H241759   1.068   1.247   6.408 -0.2699 -2.3974 -2.4321
 6734TIP3   OH241760   1.429   5.585   0.261  0.4084  0.2455  0.5607
 6734TIP3    H141761   1.431   5.534   0.180  0.3461  2.0758 -0.6437
 6734TIP3    H241762   1.337   5.581   0.289  0.3324  0.0013  0.2884
 6735TIP3   OH241763   7.011   5.033   0.351 -0.3409  0.9881 -0.3903
 6735TIP3    H141764   7.061   5.041   0.433 -0.2064 -1.5231 -0.1361
 6735TIP3    H241765   6.971   5.119   0.339  1.7408  2.2284  0.9120
 6736TIP3   OH241766   0.362   5.306   2.000  0.2832 -0.3772 -0.5439
 6736TIP3    H141767   0.290   5.360   1.967 -0.8594 -1.8605 -0.5825
 6736TIP3    H241768   0.385   5.346   2.084 -0.1245  0.5239 -0.8511
 6737TIP3   OH241769   4.828   5.065   0.766 -0.3334 -0.1761  0.1176
 6737TIP3    H141770   4.774   5.144   0.753 -1.0644 -0.7451 -0.3727
 6737TIP3    H241771   4.904   5.079   0.710 -1.0318 -0.3417 -0.8858
 6738TIP3   OH241772   6.759   0.341   0.282 -0.1460 -0.2867  0.4052
 6738TIP3    H141773   6.672   0.356   0.246  0.9044 -0.9198 -2.6320
 6738TIP3    H241774   6.759   0.249   0.308 -0.6684 -0.0140  1.4492
 6739TIP3   OH241775   6.361   0.688   0.680 -0.1275  0.3236  0.3107
 6739TIP3    H141776   6.424   0.756   0.700  0.3084 -0.5361  2.0730
 6739TIP3    H241777   6.327   0.660   0.765  0.2048 -2.0891 -0.2639
 6740TIP3   OH241778   2.804   5.235   1.288 -0.4403  0.5472 -0.4322
 6740TIP3    H141779   2.779   5.177   1.216  0.7956 -2.3035  1.2709
 6740TIP3    H241780   2.721   5.260   1.329 -1.1013  1.5187 -2.2786
 6741TIP3   OH241781   4.195   6.564   7.149  0.0471 -0.0361 -0.1255
 6741TIP3    H141782   4.172   6.561   7.242  0.7705 -1.0384  0.0394
 6741TIP3    H241783   4.270   6.623   7.144 -1.3381  1.7781 -0.4082
 6742TIP3   OH241784   4.133   6.447   0.503  0.0136  0.0434 -0.6280
 6742TIP3    H141785   4.070   6.519   0.499  1.8553  1.7291 -0.7236
 6742TIP3    H241786   4.142   6.418   0.412  0.0099  0.3496 -0.7247
 6743TIP3   OH241787   0.732   6.235   0.047 -0.1856 -0.1635 -0.0576
 6743TIP3    H141788   0.788   6.276   0.114  0.5065  1.2597 -1.4409
 6743TIP3    H241789   0.783   6.242  -0.034 -1.5557 -0.6320 -0.9941
 6744TIP3   OH241790   1.618   4.328   1.328 -0.1667  0.0580  0.4601
 6744TIP3    H141791   1.679   4.401   1.336 -0.0850  0.1328 -0.6833
 6744TIP3    H241792   1.656   4.272   1.260 -0.6819 -0.5909  0.6989
 6745TIP3   OH241793   4.754   3.820   2.074  0.3397  0.3443  0.0731
 6745TIP3    H141794   4.729   3.750   2.133  0.9025 -0.4766 -0.6346
 6745TIP3    H241795   4.839   3.793   2.039  0.8594  1.6691  0.2399
 6746TIP3   OH241796   4.097   5.402   7.794  0.2033 -0.6684  0.2382
 6746TIP3    H141797   4.189   5.393   7.818  0.5411 -2.3918 -1.4418
 6746TIP3    H241798   4.097   5.401   7.698 -1.6107 -1.5333  0.2058
 6747TIP3   OH241799   0.756   4.083   1.018  0.3265 -0.5033  0.1119
 6747TIP3    H141800   0.794   4.112   1.100 -0.5213  2.4329 -0.4273
 6747TIP3    H241801   0.663   4.069   1.037  0.0074  0.7478 -0.4203
 6748TIP3   OH241802   3.850   3.203   8.038  0.0324 -0.0942 -0.0359
 6748TIP3    H141803   3.843   3.281   7.983  0.8869 -0.5470 -0.8001
 6748TIP3    H241804   3.935   3.166   8.017  0.3748 -0.2923  1.5909
 6749TIP3   OH241805   3.711   4.072   0.165 -0.1755  0.1386  0.3381
 6749TIP3    H141806   3.800   4.104   0.179 -0.3622  0.9050 -0.1240
 6749TIP3    H241807   3.662   4.106   0.240 -0.1251 -0.0911  0.4749
 6750TIP3   OH241808   6.949   3.350   0.989 -0.3773 -0.2855 -0.1258
 6750TIP3    H141809   6.977   3.441   0.999 -0.3727 -0.2671 -0.3166
 6750TIP3    H241810   6.945   3.316   1.079 -1.5962  0.2725  0.0520
 6751TIP3   OH241811   0.259   2.000   6.941  0.4433 -0.0400 -0.1882
 6751TIP3    H141812   0.272   2.044   7.025 -0.7248 -2.1044  1.1363
 6751TIP3    H241813   0.168   1.972   6.942  0.9382 -1.8315 -1.2972
 6752TIP3   OH241814   4.839   1.335   1.610 -0.1539 -0.1950 -0.4139
 6752TIP3    H141815   4.804   1.272   1.673  0.2922  0.3606  0.3902
 6752TIP3    H241816   4.797   1.310   1.527  0.0403 -1.5732 -0.1307
 6753TIP3   OH241817   4.250   3.167   0.687 -0.4218 -0.8134  0.1664
 6753TIP3    H141818   4.161   3.133   0.701 -0.2822 -0.4383  2.4168
 6753TIP3    H241819   4.308   3.100   0.724  0.0976 -0.1792  0.5263
 6754TIP3   OH241820   4.009   3.882   2.224  0.2902  0.1216  0.7382
 6754TIP3    H141821   3.953   3.808   2.201  2.0147 -1.8109  2.3377
 6754TIP3    H241822   4.096   3.844   2.235  1.0090  2.1300  2.9890
 6755TIP3   OH241823   0.534   6.497   6.979 -0.6610 -0.2613  0.1784
 6755TIP3    H141824   0.449   6.513   7.019 -0.5586  0.7657 -0.0111
 6755TIP3    H241825   0.558   6.409   7.010 -0.6976  0.3887  2.1911
 6756TIP3   OH241826   2.435   7.085   6.333  0.4613 -0.0162  0.4615
 6756TIP3    H141827   2.349   7.126   6.345 -0.1042 -0.6264 -1.2582
 6756TIP3    H241828   2.430   7.004   6.383  0.5010  0.5409  1.3928
 6757TIP3   OH241829   1.140   3.991   7.916  0.2472 -0.7319 -0.3590
 6757TIP3    H141830   1.163   3.968   8.005  2.2285 -2.8424 -1.3152
 6757TIP3    H241831   1.147   4.086   7.913  2.4309 -0.7683  1.1828
 6758TIP3   OH241832   5.733   4.360   6.963  0.2427  0.4992 -0.1364
 6758TIP3    H141833   5.752   4.314   6.881 -0.3191 -2.6254  1.3125
 6758TIP3    H241834   5.680   4.435   6.938  0.1468 -0.3174 -2.6163
 6759TIP3   OH241835   6.227   5.916   0.437  0.2643  0.7354 -0.2270
 6759TIP3    H141836   6.224   5.909   0.532  2.6035  0.3140 -0.1233
 6759TIP3    H241837   6.252   6.007   0.420  2.9059  0.0960 -0.2403
 6760TIP3   OH241838   0.077   0.574   1.250  0.1799  0.9856  0.2300
 6760TIP3    H141839   0.170   0.562   1.232  0.0821  0.1736  0.2290
 6760TIP3    H241840   0.042   0.485   1.259 -0.4503  1.2978  0.9850
 6761TIP3   OH241841   3.240   5.732   7.217 -0.1266  0.5093  0.3310
 6761TIP3    H141842   3.323   5.778   7.229 -0.6010  1.6851 -0.6271
 6761TIP3    H241843   3.181   5.772   7.282 -0.1989  0.3375  0.3727
 6762TIP3   OH241844   0.850   0.760   1.470  0.3171  0.1601 -0.5671
 6762TIP3    H141845   0.776   0.774   1.529  0.1403  1.5747 -1.0815
 6762TIP3    H241846   0.866   0.846   1.431  1.2450 -0.4608 -1.6184
 6763TIP3   OH241847   6.440   0.668   5.998 -0.0574  0.3164 -0.6414
 6763TIP3    H141848   6.363   0.692   6.049 -1.6500  0.0139 -2.7599
 6763TIP3    H241849   6.475   0.751   5.966  0.4397  0.4474  0.2340
 6764TIP3   OH241850   4.561   3.504   1.711 -0.8856 -0.5200 -0.3763
 6764TIP3    H141851   4.510   3.479   1.788 -2.6837  2.1386 -0.5698
 6764TIP3    H241852   4.631   3.560   1.746 -2.3468  1.5897 -0.6749
 6765TIP3   OH241853   2.899   6.284   0.941  0.0865  0.4263 -0.1748
 6765TIP3    H141854   2.976   6.329   0.976  0.2435 -0.0318  0.0798
 6765TIP3    H241855   2.911   6.286   0.846 -0.9744  2.8248 -0.3401
 6766TIP3   OH241856   3.556   6.936   1.880 -0.0901 -0.1229  0.5924
 6766TIP3    H141857   3.531   6.917   1.970  2.6215  0.0340  1.4631
 6766TIP3    H241858   3.601   7.021   1.885 -0.1161  0.0159 -0.9629
 6767TIP3   OH241859   4.891   0.602   0.422 -0.0290  0.5174  0.3271
 6767TIP3    H141860   4.808   0.555   0.430 -0.8485  2.0005  0.9345
 6767TIP3    H241861   4.887   0.645   0.337 -0.4675  1.6288  0.8930
 6768TIP3   OH241862   6.734   5.549   7.618 -0.0430 -0.1145 -0.2289
 6768TIP3    H141863   6.745   5.496   7.697 -1.3688  1.4823  1.1002
 6768TIP3    H241864   6.795   5.622   7.629 -0.5972  0.3877 -0.4353
 6769TIP3   OH241865   3.804   1.233   0.691 -0.1505 -0.0536  0.4365
 6769TIP3    H141866   3.772   1.202   0.775  0.1348 -1.8441 -0.0772
 6769TIP3    H241867   3.776   1.167   0.628  1.2112  0.2976 -0.5942
 6770TIP3   OH241868   1.144   4.135   1.899  0.1727  0.1321 -0.2752
 6770TIP3    H141869   1.229   4.170   1.872  0.1085  0.8717  0.4351
 6770TIP3    H241870   1.126   4.065   1.836  0.6206  0.9324 -1.3137
 6771TIP3   OH241871   4.067   1.128   1.270  0.2442  0.3570  0.4641
 6771TIP3    H141872   4.062   1.076   1.350  0.5670 -1.0224 -0.3661
 6771TIP3    H241873   4.157   1.116   1.239 -0.0258  0.4090 -0.3817
 6772TIP3   OH241874   5.549   5.631   1.330  0.4083  0.3788 -0.3368
 6772TIP3    H141875   5.532   5.717   1.368 -0.9150  0.7242 -1.5863
 6772TIP3    H241876   5.515   5.569   1.394 -3.8615  0.9864 -1.6386
 6773TIP3   OH241877   0.744   2.049   2.306 -0.9228 -0.1986 -0.1033
 6773TIP3    H141878   0.721   2.102   2.382 -0.1885  1.5902 -1.0517
 6773TIP3    H241879   0.671   2.062   2.245 -1.6372 -1.8330  0.3494
 6774TIP3   OH241880   5.290   6.662   0.335  0.7264  0.0939  0.3368
 6774TIP3    H141881   5.226   6.623   0.276  0.6774  0.7559 -0.0661
 6774TIP3    H241882   5.317   6.591   0.392  1.0911 -0.6744 -0.7576
 6775TIP3   OH241883   1.918   6.813   1.812  0.2503 -1.3041  0.0219
 6775TIP3    H141884   1.902   6.739   1.871  0.4808 -1.4029 -0.0374
 6775TIP3    H241885   1.831   6.845   1.789  0.1049 -2.4795 -1.1224
 6776TIP3   OH241886   2.123   5.910   0.029 -0.1469  0.1309  0.2536
 6776TIP3    H141887   2.161   5.839   0.080 -0.7145 -1.1497 -1.0418
 6776TIP3    H241888   2.145   5.890  -0.061 -3.6219 -0.5994 -0.5756
 6777TIP3   OH241889   6.574   0.512   0.515  0.1304  0.0237 -0.0265
 6777TIP3    H141890   6.561   0.422   0.485  0.5098 -0.1460  0.2966
 6777TIP3    H241891   6.490   0.555   0.503  0.2258 -0.0806 -1.1758
 6778TIP3   OH241892   0.998   1.418   7.276 -0.5833  0.1141  0.5412
 6778TIP3    H141893   1.066   1.455   7.333  1.0410  0.2410 -1.3535
 6778TIP3    H241894   1.027   1.327   7.262  0.7622  0.8862 -2.3850
 6779TIP3   OH241895   0.067   6.412   7.435 -0.1807  0.6528 -0.3560
 6779TIP3    H141896  -0.002   6.429   7.499 -0.0379  0.3763 -0.1260
 6779TIP3    H241897   0.053   6.477   7.366  0.4140  1.7690  0.5431
 6780TIP3   OH241898   6.173   6.737   0.501 -0.7406  0.1425 -0.5622
 6780TIP3    H141899   6.223   6.805   0.547 -0.7324 -0.1123 -0.1940
 6780TIP3    H241900   6.088   6.736   0.546 -1.0009  0.4071 -1.0308
 6781TIP3   OH241901   1.551   5.235   7.261 -0.0384 -0.6382 -0.1159
 6781TIP3    H141902   1.643   5.206   7.264  0.1681 -0.1691 -1.3816
 6781TIP3    H241903   1.535   5.254   7.169 -1.1900  0.0268  0.2047
 6782TIP3   OH241904   1.965   5.126   0.566 -0.1860  0.1684  0.4038
 6782TIP3    H141905   2.007   5.048   0.601 -0.5387 -0.3871 -0.3845
 6782TIP3    H241906   1.972   5.191   0.636  1.1868 -0.1831  0.6115
 6783TIP3   OH241907   4.940   5.464   2.021  0.5313 -0.6349 -0.1881
 6783TIP3    H141908   4.930   5.473   2.115 -1.2827  0.7943 -0.4630
 6783TIP3    H241909   4.868   5.407   1.995 -0.5441  0.9940 -0.9614
 6784TIP3   OH241910   1.961   5.520   0.759  0.0553  0.7521  0.4319
 6784TIP3    H141911   1.905   5.549   0.831 -2.0442 -0.1058 -0.7513
 6784TIP3    H241912   1.902   5.514   0.684  1.2008 -2.4389 -0.3799
 6785TIP3   OH241913   5.351   0.930   7.155 -0.4067  0.6267  0.5279
 6785TIP3    H141914   5.265   0.928   7.195 -0.3221  0.6532  0.7114
 6785TIP3    H241915   5.390   1.011   7.186 -0.5172  0.8725  0.0242
 6786TIP3   OH241916   2.913   2.539   5.859 -0.4638 -0.2499  0.5336
 6786TIP3    H141917   2.989   2.576   5.814  0.4690 -2.9468 -0.2717
 6786TIP3    H241918   2.911   2.583   5.943  0.7966  1.2924 -0.1846
 6787TIP3   OH241919   3.140   0.071   6.531  1.4664 -0.1735  0.0211
 6787TIP3    H141920   3.114   0.031   6.447  0.3432  0.5698 -0.0083
 6787TIP3    H241921   3.142  -0.002   6.592  0.4459 -0.4567 -0.2551
 6788TIP3   OH241922   0.309   0.740   0.502 -0.6791  0.4804  0.5671
 6788TIP3    H141923   0.245   0.810   0.487  0.3012  1.3824  0.5282
 6788TIP3    H241924   0.295   0.714   0.593 -0.2761  1.5300  0.9368
 6789TIP3   OH241925   2.206   4.558   6.673  0.0229 -0.0126 -0.6539
 6789TIP3    H141926   2.238   4.642   6.639 -1.3742  0.3048 -1.2705
 6789TIP3    H241927   2.213   4.498   6.598 -1.2225  0.1880 -0.9539
 6790TIP3   OH241928   0.091   0.663   1.005  0.3100  0.1834  0.1942
 6790TIP3    H141929   0.082   0.572   0.980 -0.0640  0.4971 -0.8816
 6790TIP3    H241930   0.061   0.667   1.096 -2.9080 -0.1994 -0.7502
 6791TIP3   OH241931   0.471   3.068   1.503  0.8597 -0.2450 -0.7764
 6791TIP3    H141932   0.452   3.008   1.431  1.3044  0.1304 -1.2074
 6791TIP3    H241933   0.397   3.058   1.563  0.8105 -1.0407 -0.9640
 6792TIP3   OH241934   3.071   6.288   0.349 -0.3755 -0.5867 -0.2789
 6792TIP3    H141935   3.064   6.383   0.358  0.2947 -0.5755  0.2281
 6792TIP3    H241936   2.994   6.253   0.393 -0.9829 -0.2637 -1.0589
 6793TIP3   OH241937   2.741   4.546   5.739 -0.4465  0.1414  0.4415
 6793TIP3    H141938   2.681   4.609   5.778 -0.3786 -0.5617  1.7547
 6793TIP3    H241939   2.827   4.587   5.746 -0.3918 -0.1046  1.3647
 6794TIP3   OH241940   3.408   1.276   0.307 -0.2318  0.0650  0.1934
 6794TIP3    H141941   3.454   1.349   0.349 -0.5203  0.4311 -0.1142
 6794TIP3    H241942   3.347   1.319   0.246 -1.0608 -0.3987  0.6744
 6795TIP3   OH241943   3.297   3.873   6.044  0.2761 -0.5475 -0.4897
 6795TIP3    H141944   3.230   3.910   6.101  1.2554  0.3575  0.1208
 6795TIP3    H241945   3.305   3.782   6.070  1.0079 -0.0445  1.1347
 6796TIP3   OH241946   1.224   5.932   6.262 -0.5779  0.5104 -0.2898
 6796TIP3    H141947   1.214   5.956   6.354 -0.8121 -0.5289 -0.0387
 6796TIP3    H241948   1.191   5.842   6.256  1.4963 -0.2708 -0.9415
 6797TIP3   OH241949   4.312   2.143   5.994  0.0622 -0.0338 -0.4602
 6797TIP3    H141950   4.390   2.155   5.940  1.0206  0.1366  0.9201
 6797TIP3    H241951   4.266   2.070   5.953  0.4421  0.4646 -1.8418
 6798TIP3   OH241952   2.549   6.171   6.221 -0.1072  0.2962 -0.0061
 6798TIP3    H141953   2.577   6.138   6.135 -0.8651 -0.4198 -0.0009
 6798TIP3    H241954   2.456   6.146   6.226 -1.0429  3.2707 -0.3782
 6799TIP3   OH241955   5.486   6.675   7.035 -0.0686  0.2995  0.2878
 6799TIP3    H141956   5.536   6.754   7.057 -1.1563  0.8575  0.8468
 6799TIP3    H241957   5.513   6.611   7.101 -1.1524  1.0636  1.5330
 6800TIP3   OH241958   6.032   3.915   7.598 -0.1297  0.1605 -0.0413
 6800TIP3    H141959   6.113   3.965   7.604 -0.8279  1.5379 -1.4954
 6800TIP3    H241960   6.032   3.878   7.510 -0.8009 -0.3013  0.1419
 6801TIP3   OH241961   6.551   6.818   0.384  0.4103 -0.4564 -0.1952
 6801TIP3    H141962   6.502   6.821   0.301 -0.0671  0.8378  0.1140
 6801TIP3    H241963   6.562   6.725   0.402 -1.6788 -0.7938 -0.4417
 6802TIP3   OH241964   4.076   4.540   0.290  0.0164 -0.0115  0.2170
 6802TIP3    H141965   4.126   4.474   0.242  2.3110  1.3307  0.6375
 6802TIP3    H241966   3.999   4.556   0.235  1.4312 -0.1445 -1.9080
 6803TIP3   OH241967   5.943   5.019   6.070  0.3430  0.1343  0.2447
 6803TIP3    H141968   6.028   5.041   6.032  0.1114 -0.7586 -0.8710
 6803TIP3    H241969   5.918   4.938   6.025 -0.8179  0.0583  0.9968
 6804TIP3   OH241970   5.403   3.043   1.692  0.1129 -0.5464 -0.0073
 6804TIP3    H141971   5.311   3.016   1.689  0.1868 -0.9061  0.8329
 6804TIP3    H241972   5.408   3.103   1.767  0.5826 -0.6035  0.0080
 6805TIP3   OH241973   5.579   6.628   6.074  0.4616  0.3499 -0.3173
 6805TIP3    H141974   5.585   6.691   6.146 -1.0582 -0.1802  0.2955
 6805TIP3    H241975   5.619   6.548   6.109  0.0620  0.2039 -0.1956
 6806TIP3   OH241976   3.985   2.034   0.791 -0.0539 -0.0657 -0.0535
 6806TIP3    H141977   3.997   1.946   0.826 -2.1339  0.5349  2.5530
 6806TIP3    H241978   3.902   2.030   0.744  0.7111  0.1212 -1.4506
 6807TIP3   OH241979   6.253   0.871   6.432  0.4259 -0.0726 -0.0043
 6807TIP3    H141980   6.263   0.923   6.512 -1.6248  0.5074 -0.0588
 6807TIP3    H241981   6.168   0.827   6.443  0.2332 -0.1984 -1.7375
 6808TIP3   OH241982   4.268   4.667   0.875  0.2216  0.0145 -0.7234
 6808TIP3    H141983   4.334   4.604   0.846  0.5915 -0.0650  0.2525
 6808TIP3    H241984   4.188   4.640   0.830  0.5892 -0.5986 -1.0239
 6809TIP3   OH241985   0.543   3.770   1.078 -0.5735 -0.1207 -0.8930
 6809TIP3    H141986   0.580   3.802   0.996 -2.4000  0.5995 -1.5058
 6809TIP3    H241987   0.535   3.676   1.067 -1.2933  0.0318 -1.7936
 6810TIP3   OH241988   1.029   0.614   1.673  0.3163 -0.4561  0.3100
 6810TIP3    H141989   0.985   0.607   1.588 -1.0030  0.7135  0.8528
 6810TIP3    H241990   1.011   0.531   1.717  0.3553 -0.7647 -0.2517
 6811TIP3   OH241991   5.713   4.876   0.291  0.1199 -0.5438  0.7061
 6811TIP3    H141992   5.805   4.855   0.275  0.4941  1.1280  0.3855
 6811TIP3    H241993   5.701   4.962   0.251 -1.7353 -0.9428  0.2992
 6812TIP3   OH241994   3.506   6.390   1.671 -0.2651  0.5362  0.5993
 6812TIP3    H141995   3.583   6.444   1.689  0.3836 -0.3228  0.4667
 6812TIP3    H241996   3.539   6.320   1.615 -1.2475  0.4227  0.1481
 6813TIP3   OH241997   1.201   4.356   7.396  0.0592 -0.2034  0.8494
 6813TIP3    H141998   1.206   4.331   7.303 -1.6705 -0.7862  0.8718
 6813TIP3    H241999   1.194   4.451   7.395 -1.2920 -0.2833  0.2725
 6814TIP3   OH242000   0.002   2.419   0.097 -0.0118 -0.4589  0.5720
 6814TIP3    H142001   0.031   2.402   0.007 -0.2408 -1.4846  0.6805
 6814TIP3    H242002   0.083   2.425   0.147  0.1261  0.4191  0.2483
 6815TIP3   OH242003   5.927   4.691   0.241 -0.3966 -0.3343  0.7791
 6815TIP3    H142004   5.980   4.686   0.320 -0.0093 -2.3232  0.4523
 6815TIP3    H242005   5.856   4.628   0.256 -0.0637 -1.0966 -0.5925
 6816TIP3   OH242006   2.407   4.241   7.467 -0.1069  0.2220  0.0830
 6816TIP3    H142007   2.376   4.331   7.462  0.9769  0.7303  1.5996
 6816TIP3    H242008   2.469   4.232   7.395  1.4592  1.4345  1.2121
 6817TIP3   OH242009   5.808   4.045   0.222  0.0989  0.7110 -0.2561
 6817TIP3    H142010   5.794   3.990   0.299  0.1648  1.5889  0.3916
 6817TIP3    H242011   5.791   3.987   0.148  0.3675 -0.2393  0.4093
 6818TIP3   OH242012   0.613   0.968   7.111 -0.0617 -0.3501 -0.5881
 6818TIP3    H142013   0.635   1.053   7.074  1.2728 -0.4247 -0.0256
 6818TIP3    H242014   0.681   0.909   7.077 -0.7595 -1.1147 -0.6835
 6819TIP3   OH242015   6.803   5.013   1.123  0.3761 -0.2348  0.7717
 6819TIP3    H142016   6.805   5.000   1.028  4.6951 -1.2373  0.7892
 6819TIP3    H242017   6.869   5.080   1.139 -0.4005  0.0668  3.1012
 6820TIP3   OH242018   3.151   1.822   1.821 -0.0152 -0.3169 -0.0097
 6820TIP3    H142019   3.212   1.750   1.837  0.2925  0.2480  1.4879
 6820TIP3    H242020   3.206   1.893   1.788 -0.3112 -0.7070 -1.4290
 6821TIP3   OH242021   4.610   4.515   0.552  0.1222  0.2316 -0.0881
 6821TIP3    H142022   4.614   4.580   0.482  0.3715 -0.5367 -0.7982
 6821TIP3    H242023   4.684   4.457   0.535 -0.4099 -0.5441  0.2319
 6822TIP3   OH242024   2.244   3.104   7.488 -0.0163  0.1884  0.6043
 6822TIP3    H142025   2.192   3.037   7.533  0.7570 -0.3743  0.6643
 6822TIP3    H242026   2.284   3.155   7.558  0.4748 -0.1336  0.5620
 6823TIP3   OH242027   5.782   3.438   6.126 -0.4283  0.4096 -0.1487
 6823TIP3    H142028   5.749   3.360   6.170  1.2246 -0.2881 -0.0431
 6823TIP3    H242029   5.714   3.461   6.063 -1.5966 -0.2274  0.8492
 6824TIP3   OH242030   5.781   4.385   7.646  0.1108  0.6078  0.1725
 6824TIP3    H142031   5.686   4.387   7.653  0.1012  0.2681  0.1751
 6824TIP3    H242032   5.803   4.291   7.648  0.3778  0.6393 -0.6525
 6825TIP3   OH242033   4.009   5.585   1.555  0.5026 -0.1215 -0.3767
 6825TIP3    H142034   4.043   5.619   1.473 -0.9492 -1.7424 -1.7442
 6825TIP3    H242035   4.047   5.497   1.562  0.0882 -0.2551  0.3374
 6826TIP3   OH242036   3.691   4.524   0.372  0.0516  0.2566  0.1370
 6826TIP3    H142037   3.741   4.588   0.322  0.1266  0.4792  0.4883
 6826TIP3    H242038   3.673   4.453   0.311 -0.0937  0.6492 -0.2754
 6827TIP3   OH242039   1.408   4.529   1.503  0.6315 -0.1267  0.4292
 6827TIP3    H142040   1.395   4.564   1.415 -0.4578 -3.9294 -1.1444
 6827TIP3    H242041   1.325   4.544   1.548  0.0685 -0.8853 -0.3242
 6828TIP3   OH242042   3.767   4.000   5.792  0.1908  0.3473  0.1680
 6828TIP3    H142043   3.818   4.080   5.795 -1.0915  1.2272 -0.3438
 6828TIP3    H242044   3.711   4.010   5.715  1.7619 -2.1749 -1.4596
 6829TIP3   OH242045   2.228   4.700   7.256  0.2375 -0.3091 -0.6863
 6829TIP3    H142046   2.269   4.618   7.283 -0.4201 -0.4956 -0.2212
 6829TIP3    H242047   2.231   4.698   7.161 -0.0790 -1.0340 -0.6844
 6830TIP3   OH242048   7.113   4.709   0.411 -0.1204 -0.1085 -0.4862
 6830TIP3    H142049   7.126   4.765   0.487 -0.5084  1.4335 -1.5256
 6830TIP3    H242050   7.197   4.664   0.400  0.3635  0.6344  0.0779
 6831TIP3   OH242051   6.868   1.254   7.490  0.7331 -0.2174  0.3137
 6831TIP3    H142052   6.799   1.319   7.499  0.8620 -0.2524  1.8797
 6831TIP3    H242053   6.823   1.174   7.462  0.2377 -0.0782  0.7080
 6832TIP3   OH242054   6.816   5.428   6.630  0.1181  0.3333  0.2648
 6832TIP3    H142055   6.754   5.393   6.566  1.5541 -2.6032  0.3074
 6832TIP3    H242056   6.770   5.423   6.714 -0.6180  1.1204 -0.0734
 6833TIP3   OH242057   0.481   4.759   0.058  0.0678  0.1929 -0.2237
 6833TIP3    H142058   0.495   4.680   0.109  1.2395  1.6427  1.8491
 6833TIP3    H242059   0.528   4.827   0.106 -0.1526  1.9921 -2.3894
 6834TIP3   OH242060   2.932   2.707   7.424  0.1902 -0.5447 -0.0265
 6834TIP3    H142061   2.930   2.741   7.335  0.4109 -0.8568 -0.1476
 6834TIP3    H242062   2.901   2.781   7.478 -2.1836 -1.0404 -0.5749
 6835TIP3   OH242063   5.991   3.717   6.776  0.3003  0.4535  0.0406
 6835TIP3    H142064   5.900   3.729   6.749  1.0552 -0.7036 -3.4966
 6835TIP3    H242065   6.042   3.772   6.716  2.0554 -0.2362  0.8090
 6836TIP3   OH242066   0.946   4.513   7.303 -0.1579 -0.2775 -0.3674
 6836TIP3    H142067   1.013   4.444   7.299 -0.3981 -0.7510  2.0830
 6836TIP3    H242068   0.985   4.581   7.356 -1.7305 -0.7653  1.5277
 6837TIP3   OH242069   6.020   4.676   6.830 -0.3234  0.2191 -0.1817
 6837TIP3    H142070   6.056   4.588   6.838 -1.1893 -0.2079 -0.8134
 6837TIP3    H242071   5.986   4.681   6.741 -0.0540  1.2922 -0.2427
 6838TIP3   OH242072   0.347   4.358   1.637  0.6686 -0.3505 -0.1000
 6838TIP3    H142073   0.385   4.419   1.573  0.0507 -0.3700 -0.4968
 6838TIP3    H242074   0.258   4.391   1.651  0.2501 -1.2766 -0.4914
 6839TIP3   OH242075   1.282   2.161   6.516  0.5010 -0.1140  0.5371
 6839TIP3    H142076   1.282   2.229   6.584  0.2008 -1.2404  1.6943
 6839TIP3    H242077   1.330   2.088   6.555 -0.9038 -1.3249  0.0876
 6840TIP3   OH242078   1.193   6.125   8.026 -0.3861  0.2111  0.0166
 6840TIP3    H142079   1.214   6.218   8.016  1.6529 -0.0682  1.1838
 6840TIP3    H242080   1.276   6.080   8.016 -0.7948 -1.2399  2.4209
 6841TIP3   OH242081   5.576   3.629   6.376  0.2553 -0.2624  0.4652
 6841TIP3    H142082   5.500   3.571   6.364 -0.9073  1.1581  0.7515
 6841TIP3    H242083   5.590   3.630   6.471  1.3080 -1.3123  0.3489
 6842TIP3   OH242084   0.836   1.999   7.497  0.2278 -0.0066  0.0731
 6842TIP3    H142085   0.879   2.068   7.547  0.7759 -0.3626  0.0964
 6842TIP3    H242086   0.904   1.966   7.438 -0.2503  0.0153 -0.5059
 6843TIP3   OH242087   3.700   2.956   6.897  0.5428  0.4485  0.0053
 6843TIP3    H142088   3.722   2.872   6.936  1.0424  0.8917  0.7088
 6843TIP3    H242089   3.621   2.939   6.845  0.2661 -0.3117  0.6573
 6844TIP3   OH242090   1.598   4.926   0.637  0.2147  0.0866 -0.2041
 6844TIP3    H142091   1.609   4.976   0.556  0.8502  2.0594  1.0245
 6844TIP3    H242092   1.642   4.978   0.703  0.6608 -2.0196  1.2459
 6845TIP3   OH242093   3.222   6.297   1.628 -0.2373 -0.3669 -0.3475
 6845TIP3    H142094   3.313   6.321   1.641  0.3979 -2.7516  0.1507
 6845TIP3    H242095   3.222   6.243   1.549 -0.8907 -1.7364  0.5329
 6846TIP3   OH242096   4.326   6.881   1.554 -0.0789  0.3275 -0.3155
 6846TIP3    H142097   4.342   6.972   1.577 -1.0929 -0.0378  2.0913
 6846TIP3    H242098   4.240   6.862   1.590  0.4557 -1.8048 -0.0354
 6847TIP3   OH242099   0.096   4.767   7.294  0.4774 -0.4284 -0.4119
 6847TIP3    H142100   0.185   4.735   7.310  0.1728 -0.3431  1.7112
 6847TIP3    H242101   0.057   4.777   7.381 -1.2175  0.7079 -1.2256
 6848TIP3   OH242102   2.169   2.070   1.839  0.4912  0.2164  0.4272
 6848TIP3    H142103   2.221   2.104   1.912 -0.2443  0.5463  0.8127
 6848TIP3    H242104   2.218   2.095   1.761  0.6795  0.9356  0.7619
 6849TIP3   OH242105   5.335   5.541   7.102  0.4668 -0.0725 -0.5961
 6849TIP3    H142106   5.414   5.595   7.092  0.7580 -0.5509 -0.9470
 6849TIP3    H242107   5.369   5.451   7.105 -0.0351 -0.2535 -0.3151
 6850TIP3   OH242108   6.227   0.716   6.154  0.4137  0.3293 -0.3792
 6850TIP3    H142109   6.149   0.746   6.106  2.2352  3.4431 -1.7268
 6850TIP3    H242110   6.201   0.718   6.246 -1.2444  0.7755 -0.8218
 6851TIP3   OH242111   0.448   4.650   0.519  0.5585 -0.4504 -0.5273
 6851TIP3    H142112   0.478   4.572   0.565  1.3256 -0.9667 -1.8512
 6851TIP3    H242113   0.507   4.719   0.548 -0.3508 -0.2371  0.9321
 6852TIP3   OH242114   0.688   2.772   6.230  0.9178 -0.0155  0.0418
 6852TIP3    H142115   0.613   2.808   6.276  0.9679  1.5624 -1.0542
 6852TIP3    H242116   0.651   2.734   6.150  1.1491 -0.3513  0.0917
 6853TIP3   OH242117   3.519   0.996   7.852 -0.0377  0.4546  0.8555
 6853TIP3    H142118   3.516   1.026   7.761 -3.1247 -0.3553  0.5431
 6853TIP3    H242119   3.492   0.904   7.847  2.5960 -0.4870  2.3806
 6854TIP3   OH242120   6.909   0.209   6.991 -0.0194 -0.0257 -0.3461
 6854TIP3    H142121   6.921   0.205   7.086 -0.5022  0.0539 -0.2786
 6854TIP3    H242122   6.931   0.121   6.959 -0.8453 -0.3525 -0.0409
 6855TIP3   OH242123   1.878   4.465   7.673 -0.2834  0.8595 -0.0806
 6855TIP3    H142124   1.836   4.448   7.589 -0.8909 -0.2664  0.4253
 6855TIP3    H242125   1.844   4.550   7.701 -2.5272 -0.1379  0.4434
 6856TIP3   OH242126   4.489   5.709   7.311  0.2560 -0.2137 -0.2230
 6856TIP3    H142127   4.493   5.624   7.266 -0.4448  0.8849 -2.5087
 6856TIP3    H242128   4.516   5.772   7.245 -1.1287  1.5645  0.8167
 6857TIP3   OH242129   3.247   2.450   0.900 -0.4014 -0.1980 -0.2858
 6857TIP3    H142130   3.306   2.403   0.958 -1.8604  0.8702  2.2622
 6857TIP3    H242131   3.301   2.518   0.859  0.9094 -1.7037 -1.1421
 6858TIP3   OH242132   0.543   4.253   0.183  0.1859 -0.1544 -0.4859
 6858TIP3    H142133   0.600   4.251   0.259 -1.0149  0.4078  0.4678
 6858TIP3    H242134   0.499   4.168   0.183  0.3778 -0.2532 -0.6999
 6859TIP3   OH242135   3.696   0.458   1.119  0.4620 -0.7854  0.1273
 6859TIP3    H142136   3.720   0.550   1.128  1.7373 -0.9779 -0.8924
 6859TIP3    H242137   3.607   0.460   1.084  0.7165  0.0859 -0.5200
 6860TIP3   OH242138   1.817   0.885   7.160 -0.3416  0.1868 -0.0997
 6860TIP3    H142139   1.729   0.886   7.121 -1.5057  1.2032  2.3096
 6860TIP3    H242140   1.871   0.934   7.099 -1.5590  0.0320 -1.3679
 6861TIP3   OH242141   2.477   1.106   2.153  0.2349 -0.8862 -0.6376
 6861TIP3    H142142   2.420   1.086   2.228  0.6536 -0.4943 -0.2069
 6861TIP3    H242143   2.523   1.024   2.136  0.1221 -0.9836 -0.4776
 6862TIP3   OH242144   3.946   6.935   1.281  0.2372  0.8153 -0.1937
 6862TIP3    H142145   4.001   6.974   1.213 -2.0953  0.6083 -2.3386
 6862TIP3    H242146   3.895   7.009   1.315 -0.0145  0.5972 -0.0953
 6863TIP3   OH242147   0.766   2.414   7.751  0.1467  0.5442 -0.0615
 6863TIP3    H142148   0.749   2.493   7.802  1.1666  0.5011  0.3694
 6863TIP3    H242149   0.680   2.374   7.740 -0.2702  1.2695  0.4535
 6864TIP3   OH242150   6.709   2.339   0.397  0.2056  0.0205  0.5650
 6864TIP3    H142151   6.699   2.244   0.388  0.1165 -0.2173  2.6260
 6864TIP3    H242152   6.785   2.349   0.455 -1.0535  1.0963  2.1334
 6865TIP3   OH242153   1.242   1.162   6.468 -0.2372  0.0248 -0.3197
 6865TIP3    H142154   1.309   1.227   6.444 -0.2937  0.1692 -0.0826
 6865TIP3    H242155   1.213   1.188   6.555  0.3643 -0.8226  0.1458
 6866TIP3   OH242156   2.602   0.237   0.799 -0.3016  0.1965 -0.2923
 6866TIP3    H142157   2.547   0.235   0.720  1.3300 -1.5779 -1.4823
 6866TIP3    H242158   2.691   0.250   0.766  0.8774 -3.5882  0.8365
 6867TIP3   OH242159   0.174   2.977   0.774  0.0459 -0.0713 -0.5990
 6867TIP3    H142160   0.108   3.038   0.808  0.1094 -0.3218 -0.0097
 6867TIP3    H242161   0.146   2.891   0.806  1.4845  0.0066  0.9997
 6868TIP3   OH242162   2.269   1.854   7.322 -0.3079 -0.6201  0.0595
 6868TIP3    H142163   2.239   1.937   7.358 -1.8918 -2.0585  2.4453
 6868TIP3    H242164   2.219   1.842   7.241 -1.3575 -0.0039  0.6008
 6869TIP3   OH242165   2.620   4.011   0.512 -0.2475 -0.1247 -0.2992
 6869TIP3    H142166   2.582   3.989   0.427  0.9354  0.2768 -0.9547
 6869TIP3    H242167   2.557   3.978   0.576 -0.8820 -0.9435 -1.3182
 6870TIP3   OH242168   0.783   1.593   6.685  0.5568  0.1888  0.0982
 6870TIP3    H142169   0.726   1.580   6.761  0.5484 -0.3912  0.0017
 6870TIP3    H242170   0.731   1.646   6.624  0.0168 -0.5393 -0.0912
 6871TIP3   OH242171   2.564   0.174   1.300  0.4627  0.1774 -0.5203
 6871TIP3    H142172   2.529   0.166   1.211  0.7192 -0.7637 -0.5536
 6871TIP3    H242173   2.506   0.119   1.354 -0.2822  1.5209  0.0833
 6872TIP3   OH242174   1.054   0.658   6.314 -0.6692  0.8911  0.0201
 6872TIP3    H142175   1.014   0.702   6.390  1.0808 -1.7483  2.6661
 6872TIP3    H242176   1.000   0.580   6.300  0.6549 -0.1281  0.4422
 6873TIP3   OH242177   4.723   1.154   7.973  0.4469  0.1974  0.4427
 6873TIP3    H142178   4.688   1.065   7.966  0.6696  0.0043  1.6524
 6873TIP3    H242179   4.680   1.202   7.902 -0.9729 -0.4542  0.8348
 6874TIP3   OH242180   1.704   0.577   7.375  0.2743 -0.0274 -0.5766
 6874TIP3    H142181   1.658   0.651   7.334  2.7607  1.4749 -0.8698
 6874TIP3    H242182   1.690   0.589   7.469  0.6622  0.8587 -0.6214
 6875TIP3   OH242183   0.714   5.917   1.027  0.0447 -0.3447 -0.1104
 6875TIP3    H142184   0.709   5.895   0.934 -3.6272  0.4995 -0.2618
 6875TIP3    H242185   0.684   5.837   1.072 -1.8939  0.4149  0.0401
 6876TIP3   OH242186   5.193   4.535   6.864  0.3983  0.2379 -0.1168
 6876TIP3    H142187   5.245   4.615   6.866 -1.4415  1.4829  1.4150
 6876TIP3    H242188   5.127   4.551   6.796 -1.4264  1.1114  1.7224
 6877TIP3   OH242189   1.676   0.375   0.167 -0.1162 -0.3611 -0.3585
 6877TIP3    H142190   1.757   0.327   0.151 -0.6492 -1.3185 -0.2860
 6877TIP3    H242191   1.703   0.466   0.177  0.9996 -0.7246  0.0826
 6878TIP3   OH242192   5.066   5.210   2.294 -0.0361 -0.2503  0.8123
 6878TIP3    H142193   5.155   5.189   2.265 -0.0619 -0.1916  0.6925
 6878TIP3    H242194   5.034   5.128   2.333  0.1280 -0.2253  0.9971
 6879TIP3   OH242195   2.291   0.760   8.018 -0.1915  0.1236  0.0852
 6879TIP3    H142196   2.348   0.833   8.041 -1.5021  0.6211  2.0426
 6879TIP3    H242197   2.232   0.795   7.952 -0.7589  0.8478  0.9514
 6880TIP3   OH242198   3.109   2.886   6.119  0.2411 -0.0530 -0.5090
 6880TIP3    H142199   3.098   2.959   6.181 -0.1196  0.2194 -0.8940
 6880TIP3    H242200   3.026   2.881   6.073 -0.4488 -1.9202  0.8031
 6881TIP3   OH242201   5.017   2.607   1.466 -0.1771 -0.2014 -0.7658
 6881TIP3    H142202   5.000   2.695   1.498  3.3997  1.6353 -3.2629
 6881TIP3    H242203   5.052   2.560   1.542 -3.1974 -0.0045  0.8934
 6882TIP3   OH242204   1.042   4.569   0.284 -0.5731  0.5399  0.4892
 6882TIP3    H142205   1.055   4.596   0.193 -1.2060  1.6359  0.7082
 6882TIP3    H242206   1.110   4.504   0.299 -0.4276  0.3769 -0.7524
 6883TIP3   OH242207   5.137   3.416   6.560  0.0261 -0.4861 -0.2574
 6883TIP3    H142208   5.061   3.407   6.617 -0.6220  0.2578 -0.9777
 6883TIP3    H242209   5.186   3.335   6.572 -1.9263 -1.8931 -1.2696
 6884TIP3   OH242210   2.766   5.228   6.352 -0.6742 -0.0370 -0.9989
 6884TIP3    H142211   2.693   5.204   6.409 -0.1525 -0.1750 -0.3839
 6884TIP3    H242212   2.738   5.202   6.264 -0.3655 -2.4131 -0.4631
 6885TIP3   OH242213   0.110   3.883   1.238  0.1728  0.0585 -0.3267
 6885TIP3    H142214   0.147   3.826   1.171  3.2243  2.2108 -0.6865
 6885TIP3    H242215   0.173   3.880   1.310 -1.7055 -0.1573  1.3931
 6886TIP3   OH242216   0.251   2.920   6.760 -0.2694  0.1658  0.0174
 6886TIP3    H142217   0.332   2.929   6.711  0.4640  1.6067  1.4053
 6886TIP3    H242218   0.206   2.846   6.719  1.5192 -0.3762 -1.0623
 6887TIP3   OH242219   5.615   4.959   8.000 -0.0410  0.7147  0.4108
 6887TIP3    H142220   5.550   5.030   8.000 -0.6383  0.1875 -0.0935
 6887TIP3    H242221   5.699   5.003   7.992 -0.3997  1.3752  0.1715
 6888TIP3   OH242222   3.167   4.274   6.680 -0.5342  0.1809 -0.3099
 6888TIP3    H142223   3.102   4.210   6.709 -0.5559 -0.0933 -0.9282
 6888TIP3    H242224   3.116   4.353   6.662 -0.3253  0.8377  1.7812
 6889TIP3   OH242225   4.472   3.628   1.201 -0.0456  0.5468 -0.4977
 6889TIP3    H142226   4.435   3.716   1.197 -2.6780 -0.4433  0.0037
 6889TIP3    H242227   4.488   3.613   1.294 -2.1402 -0.3964 -0.2357
 6890TIP3   OH242228   1.630   2.091   7.744 -0.9502  0.1668 -0.2261
 6890TIP3    H142229   1.651   2.008   7.787 -0.7023 -0.3294 -1.2622
 6890TIP3    H242230   1.653   2.158   7.808 -0.8268 -0.5530  0.4955
 6891TIP3   OH242231   6.920   4.209   7.897  0.2008 -0.2333  0.2250
 6891TIP3    H142232   6.919   4.301   7.923 -1.9392 -0.6670  2.0551
 6891TIP3    H242233   6.871   4.164   7.966  2.3569 -2.9987  0.1473
 6892TIP3   OH242234   0.151   5.305   2.338 -0.0794  0.1112  0.3738
 6892TIP3    H142235   0.230   5.337   2.295 -0.3014 -0.4121 -0.4394
 6892TIP3    H242236   0.079   5.334   2.283 -0.2782 -1.8848 -0.4966
 6893TIP3   OH242237   6.153   4.439   7.719 -0.2137 -0.1406  0.2357
 6893TIP3    H142238   6.076   4.384   7.703 -1.8309  2.5296 -2.1995
 6893TIP3    H242239   6.226   4.391   7.679 -1.2097 -1.2800 -0.2794
 6894TIP3   OH242240   4.981   5.290   1.483  0.1516  0.4669  0.1146
 6894TIP3    H142241   4.906   5.329   1.527  1.9918  3.4768  0.8350
 6894TIP3    H242242   4.973   5.319   1.392  1.6108  2.9379  0.6843
 6895TIP3   OH242243   1.588   5.266   1.325 -0.2044  0.2050 -0.3828
 6895TIP3    H142244   1.524   5.206   1.365 -0.7929  1.1407  0.1289
 6895TIP3    H242245   1.622   5.317   1.399  3.1678 -2.0039 -0.1977
 6896TIP3   OH242246   6.471   4.444   0.328  0.1663 -0.0723 -0.3172
 6896TIP3    H142247   6.433   4.500   0.396 -1.3647  0.7482 -1.8053
 6896TIP3    H242248   6.556   4.485   0.308 -1.0533  1.9748 -1.6080
 6897TIP3   OH242249   5.512   2.518   0.816  0.3814  0.0744  0.8097
 6897TIP3    H142250   5.518   2.481   0.904 -0.0970  0.0151  0.8228
 6897TIP3    H242251   5.420   2.546   0.808  0.7802  1.4903  0.8886
 6898TIP3   OH242252   2.695   2.141   2.024 -0.2092 -0.0297  0.4297
 6898TIP3    H142253   2.731   2.096   1.948 -1.6741 -0.6151  0.0618
 6898TIP3    H242254   2.705   2.234   2.003 -1.5522 -0.1728 -0.9639
 6899TIP3   OH242255   1.538   0.130   7.371 -0.1528  0.6781 -0.9784
 6899TIP3    H142256   1.445   0.131   7.351  0.0642 -0.8498 -2.2096
 6899TIP3    H242257   1.560   0.223   7.385 -1.5335  1.2136 -2.1267
 6900TIP3   OH242258   0.377   0.864   6.614 -0.4559  0.5578 -0.0761
 6900TIP3    H142259   0.302   0.822   6.571  0.8452 -0.7637 -1.1609
 6900TIP3    H242260   0.392   0.812   6.693 -1.2229  1.3964  0.6484
 6901TIP3   OH242261   5.701   2.235   1.624  0.3827  0.8346 -0.1450
 6901TIP3    H142262   5.699   2.307   1.687  1.6200  1.0521 -0.3247
 6901TIP3    H242263   5.650   2.267   1.549  0.2400  1.2043  0.1092
 6902TIP3   OH242264   5.667   2.378   0.590  0.2162 -0.2555  0.2269
 6902TIP3    H142265   5.605   2.410   0.656  1.2977 -0.1398  1.2386
 6902TIP3    H242266   5.621   2.307   0.545 -0.3487 -0.7710  1.5607
 6903TIP3   OH242267   5.406   0.858   7.871 -0.3552  0.4926  0.3930
 6903TIP3    H142268   5.463   0.934   7.864 -1.6218  1.5246  0.8796
 6903TIP3    H242269   5.451   0.798   7.930  0.0058  1.4943  1.1406
 6904TIP3   OH242270   6.142   5.792   1.710 -0.7490  0.0526  0.2370
 6904TIP3    H142271   6.111   5.870   1.756 -1.4602 -1.1144  1.7911
 6904TIP3    H242272   6.085   5.721   1.740  1.5825 -1.6229  0.9780
 6905TIP3   OH242273   5.815   2.118   7.514  0.0846  0.2135 -0.3090
 6905TIP3    H142274   5.782   2.166   7.590  1.6955  0.2604  0.4187
 6905TIP3    H242275   5.901   2.087   7.542  1.0545  0.8567 -2.3576
 6906TIP3   OH242276   7.128   1.672   6.720  0.3221 -0.1470  0.1334
 6906TIP3    H142277   7.210   1.640   6.684  0.8291  1.5058 -0.2297
 6906TIP3    H242278   7.125   1.764   6.697 -2.2423 -0.4150 -0.9967
 6907TIP3   OH242279   6.036   3.675   0.244  0.4314  0.0778  0.5225
 6907TIP3    H142280   5.973   3.725   0.296  1.5533  1.0036  1.0133
 6907TIP3    H242281   6.021   3.704   0.154  0.9354  1.1691  0.7776
 6908TIP3   OH242282   2.227   0.731   1.031  0.5605  0.2094  0.4773
 6908TIP3    H142283   2.175   0.655   1.003 -1.2605  1.4061  0.4579
 6908TIP3    H242284   2.199   0.802   0.973  0.5281  1.4616  1.9704
 6909TIP3   OH242285   6.359   6.841   7.404  0.3368 -0.2016  0.6238
 6909TIP3    H142286   6.386   6.917   7.351  0.6888 -0.4166  0.4961
 6909TIP3    H242287   6.276   6.814   7.366 -0.6052  1.0978  1.6620
 6910TIP3   OH242288   1.196   3.249   2.107 -0.5970 -0.1874 -0.2146
 6910TIP3    H142289   1.121   3.190   2.104 -1.9716  1.3980  1.1238
 6910TIP3    H242290   1.176   3.317   2.044  0.3132 -0.3750 -0.7280
 6911TIP3   OH242291   5.197   3.317   1.179  0.0798 -0.2018  0.2003
 6911TIP3    H142292   5.217   3.410   1.185 -1.0370  0.0582  0.0210
 6911TIP3    H242293   5.273   3.279   1.134 -0.8073  1.1348 -2.6451
 6912TIP3   OH242294   0.294   3.133   1.702 -0.4920  0.5013 -0.0241
 6912TIP3    H142295   0.311   3.167   1.790  0.7294  0.6536 -0.3000
 6912TIP3    H242296   0.242   3.054   1.716  2.6339 -1.5130  1.1251
 6913TIP3   OH242297   0.122   3.070   2.546 -0.4824 -0.1411  0.0405
 6913TIP3    H142298   0.057   3.033   2.606 -2.6877  3.7956  0.4512
 6913TIP3    H242299   0.128   3.007   2.475 -3.7775 -1.4113  0.6897
 6914TIP3   OH242300   4.386   3.942   0.738  0.6224 -0.2385  0.0306
 6914TIP3    H142301   4.385   4.036   0.718  0.4600  0.3222  2.3813
 6914TIP3    H242302   4.436   3.935   0.819  1.5275 -2.3436 -0.6488
 6915TIP3   OH242303   6.770   5.023   5.798 -0.0579  0.0126 -0.3134
 6915TIP3    H142304   6.708   5.025   5.871 -0.2684 -0.6633 -0.4645
 6915TIP3    H242305   6.754   4.939   5.755 -1.3475  1.2431 -2.3738
 6916TIP3   OH242306   0.497   4.205   6.941  0.3955  0.6308 -0.3125
 6916TIP3    H142307   0.519   4.118   6.907 -1.0848  0.2719 -0.4404
 6916TIP3    H242308   0.521   4.202   7.033  0.6288  0.1833 -0.3859
 6917TIP3   OH242309   0.888   4.730   6.822  0.2655  0.2857 -0.1761
 6917TIP3    H142310   0.871   4.754   6.913 -0.2304 -0.7116  0.0109
 6917TIP3    H242311   0.802   4.737   6.779  0.0726 -1.2321 -0.0773
 6918TIP3   OH242312   1.565   0.999   0.743  0.6242 -0.1786 -0.3383
 6918TIP3    H142313   1.639   1.055   0.766 -0.5846  0.7357  1.5544
 6918TIP3    H242314   1.491   1.035   0.792 -0.5769 -2.4120 -0.3733
 6919TIP3   OH242315   0.905   0.674   1.110  0.3452 -0.5934 -0.1519
 6919TIP3    H142316   0.910   0.579   1.124  0.1536 -0.4706  0.8647
 6919TIP3    H242317   0.986   0.708   1.147  0.4140 -0.3585 -0.5168
 6920TIP3   OH242318   3.604   5.389   0.782 -0.5049 -0.0537  0.6285
 6920TIP3    H142319   3.655   5.353   0.854 -1.4622  1.0459  1.9041
 6920TIP3    H242320   3.514   5.386   0.813 -1.0634 -0.4839 -0.9408
 6921TIP3   OH242321   2.327   6.384   8.010 -0.4624  0.1243  0.1935
 6921TIP3    H142322   2.256   6.321   8.028  0.0841 -0.5878 -0.0912
 6921TIP3    H242323   2.382   6.340   7.945 -0.6091  1.3092 -0.7628
 6922TIP3   OH242324   3.270   3.162   2.231 -0.2968  0.0916  0.8025
 6922TIP3    H142325   3.195   3.184   2.287 -0.4804  1.3933  0.0856
 6922TIP3    H242326   3.282   3.239   2.176 -1.8939 -2.1441 -2.9969
 6923TIP3   OH242327   3.008   1.828   2.252  0.0466 -0.4139 -0.1056
 6923TIP3    H142328   3.095   1.850   2.217 -0.4464  1.8921 -0.0436
 6923TIP3    H242329   3.015   1.735   2.275  2.2628 -0.4886 -0.7562
 6924TIP3   OH242330   2.479   2.557   0.700  0.1023 -0.2704 -0.0697
 6924TIP3    H142331   2.564   2.513   0.702  0.3035  0.1212  0.1239
 6924TIP3    H242332   2.439   2.534   0.784  0.5241  0.5269  0.3564
 6925TIP3   OH242333   0.334   5.397   1.103 -0.0025 -0.1380 -0.1371
 6925TIP3    H142334   0.325   5.488   1.076 -0.5693 -0.2456 -0.3255
 6925TIP3    H242335   0.389   5.400   1.180  0.6195  0.2921 -0.5937
 6926TIP3   OH242336   6.189   1.897   1.898 -0.1013  0.1536  0.1225
 6926TIP3    H142337   6.261   1.938   1.946  2.1239 -1.2570 -1.8078
 6926TIP3    H242338   6.158   1.828   1.956 -0.6431  1.3851  1.3780
 6927TIP3   OH242339   2.436   6.184   6.587  0.1816 -0.1881  0.1071
 6927TIP3    H142340   2.483   6.253   6.633  0.3405 -0.2466  0.0304
 6927TIP3    H242341   2.504   6.125   6.554  0.1420  0.5458 -1.3209
 6928TIP3   OH242342   1.828   1.434   6.694  0.4030  0.7753 -0.0101
 6928TIP3    H142343   1.878   1.437   6.613  0.3583  2.7557  0.0030
 6928TIP3    H242344   1.883   1.478   6.758 -0.5780  1.3641  0.4498
 6929TIP3   OH242345   3.883   3.142   1.397  0.2550  0.5092 -0.1900
 6929TIP3    H142346   3.815   3.095   1.349  0.5901  0.6670 -0.8317
 6929TIP3    H242347   3.957   3.081   1.399  0.9651  1.2485 -1.6961
 6930TIP3   OH242348   4.074   4.607   6.270 -0.2991  0.2022  0.2952
 6930TIP3    H142349   4.079   4.539   6.203 -0.2163  0.6489 -0.1535
 6930TIP3    H242350   4.006   4.576   6.330 -2.9861  1.4483 -1.8815
 6931TIP3   OH242351   5.623   6.333   7.993  0.3195  0.6896 -0.0213
 6931TIP3    H142352   5.686   6.380   7.939  1.3343 -1.1849 -0.5495
 6931TIP3    H242353   5.542   6.334   7.943 -0.0827  2.9172  0.5571
 6932TIP3   OH242354   5.071   6.184   0.275 -0.1524  0.2463 -0.5584
 6932TIP3    H142355   5.164   6.187   0.256  0.1657 -1.2242  0.5421
 6932TIP3    H242356   5.031   6.152   0.194  0.4141  0.0439 -0.7639
 6933TIP3   OH242357   0.768   5.568   0.849 -0.3122 -0.3446 -0.4596
 6933TIP3    H142358   0.728   5.502   0.904 -0.4241  0.2142  0.1428
 6933TIP3    H242359   0.855   5.581   0.887  0.2377 -1.1235 -1.3999
 6934TIP3   OH242360   6.219   5.220   7.078  0.2315 -0.4906 -0.9363
 6934TIP3    H142361   6.179   5.251   7.160  0.9739 -0.8052 -0.4492
 6934TIP3    H242362   6.150   5.234   7.012 -0.6263 -0.8559 -0.1478
 6935TIP3   OH242363   0.323   3.594   0.372  0.1636  0.2225  0.0317
 6935TIP3    H142364   0.279   3.548   0.301  0.8758 -0.1993 -0.1479
 6935TIP3    H242365   0.414   3.602   0.343  0.8423 -1.3658  1.5535
 6936TIP3   OH242366   3.714   0.993   1.860  0.0929  0.6399 -0.2093
 6936TIP3    H142367   3.708   0.900   1.883  2.1920  0.7172  0.9371
 6936TIP3    H242368   3.634   1.011   1.812 -1.1254 -1.3728  0.9206
 6937TIP3   OH242369   2.558   4.511   0.050 -0.2076 -0.0851  0.8234
 6937TIP3    H142370   2.653   4.518   0.059 -0.1634  0.5983  0.0093
 6937TIP3    H242371   2.534   4.586  -0.005 -1.5688  1.4276  3.3088
 6938TIP3   OH242372   1.031   6.137   0.831  0.0323  0.1298 -0.1103
 6938TIP3    H142373   1.090   6.062   0.819 -1.0547 -0.6760 -0.5180
 6938TIP3    H242374   1.034   6.154   0.925  2.3131  1.2976 -0.3171
 6939TIP3   OH242375   3.763   1.996   0.657  0.0470 -0.1883  0.1708
 6939TIP3    H142376   3.756   1.967   0.566  0.6008  1.3350 -0.3932
 6939TIP3    H242377   3.683   2.047   0.672  0.6993  0.9233 -0.0132
 6940TIP3   OH242378   6.765   2.683   6.482  0.5262 -0.3777 -0.4858
 6940TIP3    H142379   6.822   2.722   6.416 -0.3819  0.2350 -0.9343
 6940TIP3    H242380   6.711   2.756   6.513 -0.8235 -1.1445 -0.9353
 6941TIP3   OH242381   0.285   2.772   0.612 -0.1739 -0.5937  0.3919
 6941TIP3    H142382   0.268   2.852   0.661 -0.3200 -0.6938  0.5063
 6941TIP3    H242383   0.234   2.704   0.657  1.3766 -1.1325  1.4126
 6942TIP3   OH242384   0.497   5.113   7.470  0.4913 -0.0735  0.2199
 6942TIP3    H142385   0.467   5.022   7.481  2.4019 -0.5728  2.1737
 6942TIP3    H242386   0.585   5.104   7.434  0.8681  0.9643  0.8474
 6943TIP3   OH242387   0.071   4.016   7.710 -0.3085 -0.0434 -0.1053
 6943TIP3    H142388   0.072   4.110   7.693  0.7503 -0.2340 -1.2174
 6943TIP3    H242389  -0.022   3.992   7.708 -0.5782  0.9643  0.1196
 6944TIP3   OH242390   0.432   4.189   1.391  0.4214 -0.1411  0.4256
 6944TIP3    H142391   0.457   4.280   1.401  1.2442 -0.0339 -1.8459
 6944TIP3    H242392   0.346   4.182   1.432  0.5721  1.5232  1.0753
 6945TIP3   OH242393   6.496   2.486   6.578 -0.0001  0.3766 -0.1076
 6945TIP3    H142394   6.478   2.406   6.530  3.0338 -0.9705  0.7377
 6945TIP3    H242395   6.563   2.461   6.642  0.2626  3.3521  0.9508
 6946TIP3   OH242396   6.248   4.674   6.286  0.0023  0.0345 -0.4238
 6946TIP3    H142397   6.253   4.764   6.319  1.9734 -0.1780 -0.0302
 6946TIP3    H242398   6.158   4.648   6.302 -0.2238  1.4373  0.8349
 6947TIP3   OH242399   5.153   2.976   1.298  0.0217  0.1172 -0.2520
 6947TIP3    H142400   5.084   3.019   1.248  0.5150  0.7651 -0.3948
 6947TIP3    H242401   5.107   2.916   1.357 -0.5304 -1.6908 -2.3718
 6948TIP3   OH242402   0.721   5.108   1.690 -0.0342  0.4711 -0.2024
 6948TIP3    H142403   0.650   5.161   1.726  1.2035  1.8268  0.3501
 6948TIP3    H242404   0.740   5.149   1.605  1.6674  1.6797  0.7093
 6949TIP3   OH242405   5.863   6.342   0.229 -0.4364  0.2017  0.3915
 6949TIP3    H142406   5.936   6.392   0.192 -0.5840  0.2879  0.2135
 6949TIP3    H242407   5.900   6.255   0.245 -0.2277  0.3161  0.5339
 6950TIP3   OH242408   0.547   6.715   0.467  0.0980  0.2452  0.4787
 6950TIP3    H142409   0.508   6.776   0.530 -3.3165  0.5802 -1.6438
 6950TIP3    H242410   0.568   6.770   0.391  1.4277 -0.5420  0.2610
 6951TIP3   OH242411   3.521   6.055   6.373 -0.3766  0.4491  0.8019
 6951TIP3    H142412   3.443   6.108   6.360  0.0503  1.4771  2.1835
 6951TIP3    H242413   3.492   5.965   6.355 -2.0172  0.7359  1.7832
 6952TIP3   OH242414   5.798   4.521   7.387  0.2921 -0.2345  0.0291
 6952TIP3    H142415   5.888   4.539   7.413  0.5317  0.5167 -1.1849
 6952TIP3    H242416   5.767   4.454   7.447  1.8013 -0.8044  0.1979
 6953TIP3   OH242417   3.304   1.771   7.471  0.2926  0.1442  0.2463
 6953TIP3    H142418   3.270   1.730   7.392  0.0402  0.3628  0.2414
 6953TIP3    H242419   3.293   1.865   7.456 -1.7164  0.1543  1.4034
 6954TIP3   OH242420   3.588   3.397   0.966  0.2595 -0.2643 -0.5761
 6954TIP3    H142421   3.533   3.464   0.926  0.6567  0.8899  0.7183
 6954TIP3    H242422   3.545   3.314   0.944 -0.2384  0.3804 -2.2232
 6955TIP3   OH242423   5.667   0.355   7.535 -0.0428  0.2200 -0.3074
 6955TIP3    H142424   5.718   0.423   7.580  1.1518 -0.8205 -0.0469
 6955TIP3    H242425   5.651   0.289   7.602  1.8155 -1.3882 -1.3582
 6956TIP3   OH242426   2.605   5.986   7.746  0.4376  0.0921  0.3214
 6956TIP3    H142427   2.583   5.997   7.839  0.2710  1.4705  0.1374
 6956TIP3    H242428   2.591   6.072   7.708  1.1851 -0.2832 -0.8531
 6957TIP3   OH242429   0.655   5.604   0.344  0.3636  0.5556 -0.5626
 6957TIP3    H142430   0.748   5.596   0.362 -0.2540 -0.5597  2.8551
 6957TIP3    H242431   0.626   5.678   0.397 -1.0589 -0.6243  0.4049
 6958TIP3   OH242432   3.554   1.219   6.043  0.1280  0.1168  0.2674
 6958TIP3    H142433   3.513   1.248   5.961  0.7522 -0.8818 -0.4210
 6958TIP3    H242434   3.647   1.235   6.030  0.7706 -3.5211 -0.8419
 6959TIP3   OH242435   2.766   0.274   5.598  0.1474  0.1569 -0.6948
 6959TIP3    H142436   2.785   0.361   5.564  1.0643 -0.3648 -1.5657
 6959TIP3    H242437   2.721   0.289   5.681  0.2570  1.4483 -0.8627
 6960TIP3   OH242438   3.838   5.379   0.200 -0.3586  0.2744 -0.5570
 6960TIP3    H142439   3.872   5.356   0.113  0.3610 -0.3626 -0.1230
 6960TIP3    H242440   3.779   5.452   0.184 -1.0955 -0.5432 -1.7311
 6961TIP3   OH242441   7.133   4.458   6.474 -0.2972 -0.2890  0.7105
 6961TIP3    H142442   7.147   4.428   6.564 -0.9658 -0.6551  0.6961
 6961TIP3    H242443   7.221   4.471   6.439 -0.0236  1.1738  1.8516
 6962TIP3   OH242444   0.421   4.555   2.302  0.0027  0.0626  0.1491
 6962TIP3    H142445   0.513   4.551   2.277  0.5346  1.7605  1.6412
 6962TIP3    H242446   0.387   4.631   2.254 -0.4808 -0.2300  0.0245
 6963TIP3   OH242447   3.616   0.370   6.473 -0.5360 -0.1340 -0.1584
 6963TIP3    H142448   3.595   0.361   6.566 -3.7191  2.6814 -0.4216
 6963TIP3    H242449   3.668   0.450   6.468  0.2094 -0.6413 -0.7767
 6964TIP3   OH242450   1.288   2.977   8.035  0.1637  0.2358 -0.2643
 6964TIP3    H142451   1.368   2.980   8.088  0.9494 -0.3876 -1.3635
 6964TIP3    H242452   1.249   3.064   8.046  2.2966  1.4699 -1.6305
 6965TIP3   OH242453   1.678   4.579   6.660  0.4191 -0.7440 -0.1264
 6965TIP3    H142454   1.625   4.499   6.661 -0.3355 -0.2784 -1.1931
 6965TIP3    H242455   1.749   4.561   6.722 -0.1571 -1.9475  0.2242
 6966TIP3   OH242456   1.175   5.875   0.852 -0.3174  0.3672  0.5217
 6966TIP3    H142457   1.223   5.795   0.829  0.7645  1.0757  0.2625
 6966TIP3    H242458   1.208   5.900   0.938  2.5239  2.8035 -1.0782
 6967TIP3   OH242459   5.960   7.124   6.359 -0.1806 -0.5832  0.4397
 6967TIP3    H142460   6.034   7.066   6.342 -0.9942 -1.6910  0.5459
 6967TIP3    H242461   5.984   7.170   6.439  0.8645 -0.1074 -0.1293
 6968TIP3   OH242462   0.389   5.045   1.007 -0.0125  0.5456 -0.2695
 6968TIP3    H142463   0.479   5.036   0.977  0.0571 -0.5949  0.2310
 6968TIP3    H242464   0.396   5.045   1.103 -0.6781 -1.6088 -0.1608
 6969TIP3   OH242465   3.889   5.010   6.299  0.3863 -0.5002  0.4330
 6969TIP3    H142466   3.925   5.082   6.248  0.2711 -0.5935  0.2221
 6969TIP3    H242467   3.944   5.007   6.378  0.5732 -0.3698  0.3076
 6970TIP3   OH242468   0.743   0.882   0.459 -0.1440  0.0095 -0.1248
 6970TIP3    H142469   0.763   0.875   0.366 -1.3153  0.3849 -0.4288
 6970TIP3    H242470   0.828   0.889   0.502  0.3821  2.3125 -1.3902
 6971TIP3   OH242471   7.041   3.786   5.507 -0.2225  0.5066 -0.0776
 6971TIP3    H142472   7.091   3.708   5.529  0.9747  0.4868 -2.5519
 6971TIP3    H242473   6.956   3.773   5.551  0.6574 -1.1595  1.2472
 6972TIP3   OH242474   4.064   5.363   1.321  0.4260 -0.2360  0.2427
 6972TIP3    H142475   4.057   5.305   1.246 -1.1074  0.7525 -0.4354
 6972TIP3    H242476   3.989   5.341   1.376 -0.4816  1.3516 -0.2708
 6973TIP3   OH242477   2.541   1.732   0.099  0.1699  0.0893  0.0957
 6973TIP3    H142478   2.473   1.732   0.032 -0.8704  1.2590  1.1232
 6973TIP3    H242479   2.612   1.680   0.060 -1.4312 -1.5062 -0.8387
 6974TIP3   OH242480   6.095   3.016   6.449 -0.2803  0.2860 -0.1936
 6974TIP3    H142481   6.018   2.985   6.496  0.0485 -1.0212 -0.4497
 6974TIP3    H242482   6.065   3.029   6.359  0.1017 -1.8010 -0.6822
 6975TIP3   OH242483   2.408   4.124   7.771  0.3747 -0.5663  0.7464
 6975TIP3    H142484   2.388   4.040   7.729 -0.1108 -0.3191  0.4685
 6975TIP3    H242485   2.380   4.190   7.707 -1.5207 -0.1596  1.9012
 6976TIP3   OH242486   6.952   4.741   0.762 -0.1386  0.3000 -0.6208
 6976TIP3    H142487   6.966   4.747   0.856 -1.4324 -0.1186 -0.3812
 6976TIP3    H242488   7.039   4.753   0.724  0.2049  1.8167  0.5568
 6977TIP3   OH242489   0.874   0.729   6.518 -0.2491 -0.5132  0.3552
 6977TIP3    H142490   0.796   0.674   6.522  0.4604 -1.6015 -0.3047
 6977TIP3    H242491   0.851   0.798   6.456 -0.8430 -0.5515  0.5212
 6978TIP3   OH242492   2.455   0.798   0.786  0.3542 -0.3533 -0.4184
 6978TIP3    H142493   2.487   0.755   0.864  1.3570 -1.4438 -1.3982
 6978TIP3    H242494   2.399   0.733   0.743 -0.3656  0.3048 -0.5155
 6979TIP3   OH242495   5.295   2.710   6.606  0.2377  0.6443  0.2609
 6979TIP3    H142496   5.386   2.723   6.579  0.1676  0.9465  0.1645
 6979TIP3    H242497   5.293   2.738   6.697 -0.2858  3.0789 -0.4134
 6980TIP3   OH242498   5.883   3.123   7.401 -0.5924 -0.2397 -0.0184
 6980TIP3    H142499   5.817   3.140   7.469  0.6414 -1.6140  1.5962
 6980TIP3    H242500   5.832   3.115   7.321 -2.4104 -1.0436  1.1405
 6981TIP3   OH242501   2.788   0.648   0.656  0.5597  0.2739 -0.1021
 6981TIP3    H142502   2.733   0.659   0.578  0.8910  1.0304 -0.2361
 6981TIP3    H242503   2.789   0.553   0.672 -1.6835  0.2949  0.5494
 6982TIP3   OH242504   1.508   4.682   6.446  0.6685  0.5231  0.7056
 6982TIP3    H142505   1.559   4.612   6.405  1.6517  1.6452 -0.0417
 6982TIP3    H242506   1.534   4.679   6.539  1.5391  0.5946  0.4714
 6983TIP3   OH242507   5.151   2.629   0.512  0.1990 -0.4891 -0.6552
 6983TIP3    H142508   5.197   2.567   0.455 -1.1052 -1.1376 -1.0519
 6983TIP3    H242509   5.064   2.591   0.522 -0.1245  0.4915  0.4064
 6984TIP3   OH242510   5.679   0.987   7.317 -0.6259  0.1809 -0.1831
 6984TIP3    H142511   5.613   1.010   7.251  1.7791  2.8698 -1.8654
 6984TIP3    H242512   5.737   1.063   7.321  2.0208 -1.7474  1.6865
 6985TIP3   OH242513   5.466   4.031   7.802  0.5844  0.8181  0.1213
 6985TIP3    H142514   5.375   4.036   7.775  0.7057 -1.1971 -0.8420
 6985TIP3    H242515   5.465   3.975   7.880  1.0808 -0.1830 -0.5641
 6986TIP3   OH242516   5.397   0.940   1.581  0.3523 -0.1879  0.2016
 6986TIP3    H142517   5.463   1.008   1.567  0.2336 -0.1131 -0.0023
 6986TIP3    H242518   5.342   0.975   1.651  1.0950 -0.6727  1.0533
 6987TIP3   OH242519   1.938   1.720   6.576 -0.4272  0.2652 -0.1033
 6987TIP3    H142520   1.938   1.642   6.520 -1.7258  0.4670 -0.4325
 6987TIP3    H242521   2.028   1.727   6.607  0.1452 -0.3189 -1.5110
 6988TIP3   OH242522   4.422   0.643   0.500  0.5562  0.2587 -0.6788
 6988TIP3    H142523   4.392   0.642   0.409 -2.3341  0.0855  0.1572
 6988TIP3    H242524   4.381   0.721   0.538  1.9605  0.4930  0.4313
 6989TIP3   OH242525   5.455   3.709   0.680 -0.1344 -0.0126 -0.2650
 6989TIP3    H142526   5.482   3.623   0.713 -0.0245 -0.0212 -0.3764
 6989TIP3    H242527   5.376   3.730   0.730 -0.0104 -0.0566 -0.0509
 6990TIP3   OH242528   1.274   2.051   6.927 -0.2612  0.2916  0.4169
 6990TIP3    H142529   1.201   2.009   6.973  0.0002  0.9492  1.4591
 6990TIP3    H242530   1.280   2.138   6.966 -1.1681  1.5837 -2.0956
 6991TIP3   OH242531   2.171   0.052   1.606  0.8340  0.2865 -0.0844
 6991TIP3    H142532   2.182  -0.039   1.635 -0.5281 -0.6644 -2.3381
 6991TIP3    H242533   2.107   0.088   1.667 -0.4333 -1.0384 -0.5596
 6992TIP3   OH242534   6.863   2.874   2.403  0.6924 -0.2044  0.2912
 6992TIP3    H142535   6.787   2.894   2.459  1.4576 -0.5667  1.4759
 6992TIP3    H242536   6.831   2.892   2.314 -0.3870  0.9158  0.8581
 6993TIP3   OH242537   4.450   6.610   6.920  0.6031 -1.2614 -0.2916
 6993TIP3    H142538   4.453   6.704   6.938 -0.2418 -1.3378  0.3483
 6993TIP3    H242539   4.510   6.597   6.847 -0.5668  0.0549 -1.5645
 6994TIP3   OH242540   1.751   1.749   0.526  0.0368  0.0591  0.2037
 6994TIP3    H142541   1.691   1.790   0.464  0.1560 -1.2268 -0.7953
 6994TIP3    H242542   1.723   1.658   0.529 -1.0919  0.3890  3.4129
 6995TIP3   OH242543   6.656   2.916   6.965  0.1108  0.3613 -0.1849
 6995TIP3    H142544   6.586   2.852   6.949 -1.2663  1.9363 -0.6593
 6995TIP3    H242545   6.715   2.871   7.026 -2.6376 -0.1183  2.3575
 6996TIP3   OH242546   3.534   6.221   1.402 -0.1794  0.2037  0.8909
 6996TIP3    H142547   3.461   6.233   1.341 -0.3215  0.9529  1.1936
 6996TIP3    H242548   3.601   6.281   1.371  0.7280 -1.2250  0.0078
 6997TIP3   OH242549   3.223   0.944   7.226  0.1663  0.3074 -0.4553
 6997TIP3    H142550   3.133   0.977   7.224  0.5055  1.2653 -1.4894
 6997TIP3    H242551   3.270   1.006   7.281  0.0461 -0.6672  0.7836
 6998TIP3   OH242552   5.736   2.385   7.135  0.8609 -0.1204 -0.1372
 6998TIP3    H142553   5.798   2.442   7.180  0.6976  0.6125 -0.8138
 6998TIP3    H242554   5.671   2.363   7.202  0.5180  1.0960 -0.0406
 6999TIP3   OH242555   6.522   1.713   2.004  0.4561 -0.6751 -0.6966
 6999TIP3    H142556   6.488   1.712   1.914  0.9024 -0.6989 -0.8680
 6999TIP3    H242557   6.583   1.639   2.007  2.4151  0.8090 -1.1638
 7000TIP3   OH242558   1.403   6.675   0.523  0.6267 -0.4896  0.0365
 7000TIP3    H142559   1.481   6.633   0.487  0.5826  0.1979 -0.8640
 7000TIP3    H242560   1.383   6.746   0.463 -0.4886 -0.4296  0.4513
 7001TIP3   OH242561   5.468   4.669   0.709 -1.2500  0.1888  0.1298
 7001TIP3    H142562   5.393   4.617   0.679 -2.6102  1.6496  0.8102
 7001TIP3    H242563   5.525   4.675   0.633 -2.4804  0.1412 -0.8443
 7002TIP3   OH242564   3.270   0.322   6.648 -0.3578 -0.3225 -0.0863
 7002TIP3    H142565   3.285   0.407   6.607 -2.9176  0.5497  0.5957
 7002TIP3    H242566   3.219   0.273   6.584  0.0358 -0.8786  0.0214
 7003TIP3   OH242567   4.828   1.599   6.387  0.1207  0.1066  0.1115
 7003TIP3    H142568   4.839   1.521   6.333  1.3730  1.7383 -2.1333
 7003TIP3    H242569   4.786   1.663   6.330 -1.0017  1.0851  1.9244
 7004TIP3   OH242570   0.591   1.533   6.920  0.4649 -0.0598  0.5528
 7004TIP3    H142571   0.554   1.622   6.923  0.9912  0.4611 -3.2641
 7004TIP3    H242572   0.609   1.512   7.012 -3.5537  2.0356  2.1032
 7005TIP3   OH242573   6.741   6.681   7.686  0.1572 -0.4528 -0.4804
 7005TIP3    H142574   6.835   6.686   7.670  0.3677 -1.1153  0.4273
 7005TIP3    H242575   6.730   6.718   7.774 -0.5006  0.0762 -0.7759
 7006TIP3   OH242576   0.001   4.027   0.011  0.3416 -0.0174 -0.0330
 7006TIP3    H142577   0.057   4.049   0.086  1.6353 -0.6986 -0.7766
 7006TIP3    H242578  -0.017   4.112  -0.031  1.7720  0.1042 -0.4332
 7007TIP3   OH242579   4.521   0.846   5.847  0.2987 -0.0096 -0.6678
 7007TIP3    H142580   4.585   0.863   5.778  0.2295 -0.5124 -0.8529
 7007TIP3    H242581   4.453   0.793   5.805 -0.5065  0.9304 -0.6154
 7008TIP3   OH242582   2.016   4.479   1.003  0.1211  0.6273  0.1719
 7008TIP3    H142583   1.949   4.476   0.934  0.6642  1.1818 -0.3944
 7008TIP3    H242584   1.967   4.489   1.084 -0.4692  1.5080 -0.2799
 7009TIP3   OH242585   3.559   6.762   6.239 -0.2470  0.4852  0.0883
 7009TIP3    H142586   3.614   6.758   6.161 -3.1533 -0.3752 -2.1065
 7009TIP3    H242587   3.606   6.710   6.304  1.0919 -0.9980 -1.9440
 7010TIP3   OH242588   0.430   4.512   0.195  0.0250  0.6145 -0.8738
 7010TIP3    H142589   0.361   4.461   0.236  1.1520  0.6686  1.2244
 7010TIP3    H242590   0.496   4.448   0.171  0.4469  0.8320 -0.3134
 7011TIP3   OH242591   0.204   4.040   2.359 -0.2131 -0.1092 -0.2502
 7011TIP3    H142592   0.109   4.042   2.360 -0.2440 -0.2873  1.7942
 7011TIP3    H242593   0.230   4.132   2.358 -0.4187 -0.0549 -0.5241
 7012TIP3   OH242594   0.934   0.285   2.013 -0.9868  0.0322 -0.5947
 7012TIP3    H142595   0.973   0.198   2.012  1.6178  0.8518  3.6124
 7012TIP3    H242596   0.854   0.275   2.064 -0.7722 -0.0061 -0.2549
 7013TIP3   OH242597   0.519   6.221   6.904  0.3944 -0.0891 -0.1499
 7013TIP3    H142598   0.472   6.139   6.892 -0.1163  0.3340 -1.1464
 7013TIP3    H242599   0.578   6.204   6.977 -0.2899 -1.0776  0.1985
 7014TIP3   OH242600   6.659   4.389   7.353 -0.2121 -0.2082  0.5947
 7014TIP3    H142601   6.678   4.300   7.380  0.3169 -0.5272 -0.7357
 7014TIP3    H242602   6.593   4.380   7.284  1.6937  0.1608 -1.4137
 7015TIP3   OH242603   0.916   4.910   6.126 -0.6407  0.0378  0.1767
 7015TIP3    H142604   1.011   4.910   6.114 -0.3318 -1.8500  1.9141
 7015TIP3    H242605   0.904   4.951   6.212 -1.1608 -1.5057  0.8793
 7016TIP3   OH242606   2.105   4.708   1.885 -0.4814 -0.0494  0.0216
 7016TIP3    H142607   2.026   4.667   1.919  0.4239  0.7452  3.5337
 7016TIP3    H242608   2.175   4.648   1.909  0.1770 -0.0063 -1.6675
 7017TIP3   OH242609   6.216   6.950   6.562 -0.6476  0.1451  0.3228
 7017TIP3    H142610   6.145   6.886   6.571  1.0649 -1.7561  0.9650
 7017TIP3    H242611   6.207   7.006   6.640 -2.3888  1.0078 -0.4388
 7018TIP3   OH242612   3.833   1.629   0.742 -0.1025 -0.3178 -0.6846
 7018TIP3    H142613   3.836   1.598   0.832  0.2650  0.0584 -0.5649
 7018TIP3    H242614   3.744   1.663   0.731  0.7428  2.6343  0.5749
 7019TIP3   OH242615   1.555   3.156   6.913  0.1403 -0.0732 -0.0418
 7019TIP3    H142616   1.554   3.119   7.002 -1.2081 -0.5167 -0.2203
 7019TIP3    H242617   1.481   3.216   6.911 -1.2266 -1.7060 -1.5064
 7020TIP3   OH242618   0.225   4.707   0.163 -0.6783 -0.9379  0.1597
 7020TIP3    H142619   0.314   4.714   0.127 -1.2274 -1.0975 -1.2890
 7020TIP3    H242620   0.236   4.656   0.243  0.7786  0.6054  1.0176
 7021TIP3   OH242621   5.043   2.475   7.914  0.8718  0.0040  0.8977
 7021TIP3    H142622   5.133   2.507   7.917  0.9488 -0.2635  1.4523
 7021TIP3    H242623   5.046   2.401   7.853  0.8173  0.6426  0.1073
 7022TIP3   OH242624   4.317   0.703   7.228 -0.0989  0.1844 -0.2875
 7022TIP3    H142625   4.236   0.751   7.208  0.5011  0.2571 -2.8511
 7022TIP3    H242626   4.362   0.697   7.145  1.6279 -1.6225  0.7072
 7023TIP3   OH242627   4.741   0.455   7.050 -0.3504  0.4725 -0.2494
 7023TIP3    H142628   4.819   0.441   7.104  0.4994 -2.3273 -2.0143
 7023TIP3    H242629   4.686   0.378   7.068 -1.0608  0.6190 -1.7032
 7024TIP3   OH242630   6.726   0.960   1.748  0.2684  0.0458 -0.3468
 7024TIP3    H142631   6.714   1.023   1.820  0.9896 -1.0897  0.8139
 7024TIP3    H242632   6.652   0.976   1.689  0.7043  2.3224 -0.3714
 7025TIP3   OH242633   3.866   5.856   5.862 -0.8202 -0.3211 -0.7225
 7025TIP3    H142634   3.830   5.775   5.898  2.8806 -1.6108  0.6141
 7025TIP3    H242635   3.902   5.831   5.777 -1.0555  0.3156 -1.0127
 7026TIP3   OH242636   0.351   2.647   7.307 -0.4517 -0.3269 -0.6760
 7026TIP3    H142637   0.382   2.670   7.219  0.9285  2.3152  0.4149
 7026TIP3    H242638   0.405   2.573   7.333  0.5592  0.1828 -1.2743
 7027TIP3   OH242639   6.770   2.366   1.720  0.4509  0.2126 -0.1826
 7027TIP3    H142640   6.705   2.410   1.775  0.9226 -0.4358  0.9269
 7027TIP3    H242641   6.852   2.374   1.769  0.9301 -0.2104 -0.8949
 7028TIP3   OH242642   4.322   0.751   6.215  0.0142  0.1734  0.3648
 7028TIP3    H142643   4.290   0.808   6.145  2.1089  1.4168  0.3338
 7028TIP3    H242644   4.367   0.680   6.169 -0.3035 -0.0769  0.4383
 7029TIP3   OH242645   3.186   6.398   0.857 -0.1978 -0.6198  0.2845
 7029TIP3    H142646   3.241   6.321   0.845  0.6672  0.2935 -2.5979
 7029TIP3    H242647   3.247   6.472   0.848 -1.4011  0.3985  0.2401
 7030TIP3   OH242648   1.989   3.541   7.037  0.0354 -0.0407  0.5736
 7030TIP3    H142649   2.042   3.467   7.007 -0.6159 -0.0279 -0.7052
 7030TIP3    H242650   2.001   3.542   7.132  2.6390  0.2160  0.3203
 7031TIP3   OH242651   2.551   5.934   6.846  0.0226  0.2699  0.4579
 7031TIP3    H142652   2.464   5.943   6.807  0.6632  1.3613 -0.7851
 7031TIP3    H242653   2.604   6.001   6.802  1.7330 -0.9957  0.5150
 7032TIP3   OH242654   1.926   4.547   6.769 -0.2976  0.0641 -0.9390
 7032TIP3    H142655   1.926   4.455   6.742 -1.0444 -0.7757  1.6609
 7032TIP3    H242656   2.012   4.580   6.741  0.7210 -1.9418 -0.3718
 7033TIP3   OH242657   2.152   3.067   7.143  0.4885  0.7585  0.4432
 7033TIP3    H142658   2.166   3.091   7.234 -0.7099 -0.3715  0.9653
 7033TIP3    H242659   2.090   2.995   7.147 -1.5172  2.2745 -1.4050
 7034TIP3   OH242660   3.667   0.287   7.012 -0.1346  0.3440  0.1460
 7034TIP3    H142661   3.699   0.207   7.053 -0.3483  0.5841  0.7894
 7034TIP3    H242662   3.593   0.314   7.066 -0.6477  0.4743 -0.6032
 7035TIP3   OH242663   0.621   5.936   7.937 -0.5785  0.2379  0.4212
 7035TIP3    H142664   0.609   5.998   7.865 -1.1651 -0.3611 -0.0212
 7035TIP3    H242665   0.710   5.902   7.925 -0.2824  0.9341  0.6277
 7036TIP3   OH242666   2.055   5.087   7.423 -0.1599 -0.0210 -0.2601
 7036TIP3    H142667   2.139   5.049   7.396  1.0886  0.1564  2.9355
 7036TIP3    H242668   2.053   5.173   7.380  0.9965 -0.2537 -0.8244
 7037TIP3   OH242669   2.517   2.131   1.578  0.2843 -0.1610  0.2072
 7037TIP3    H142670   2.567   2.194   1.629  0.1321 -0.2505  0.4704
 7037TIP3    H242671   2.426   2.153   1.594  0.2183 -0.7481  0.7001
 7038TIP3   OH242672   2.076   0.807   6.499  0.1438 -0.1999 -0.8907
 7038TIP3    H142673   2.126   0.779   6.422 -0.9802 -0.8132 -1.4238
 7038TIP3    H242674   2.055   0.726   6.545  1.2148  0.2025  0.3420
 7039TIP3   OH242675   6.322   0.093   0.900 -0.0887 -0.3882 -0.2232
 7039TIP3    H142676   6.255   0.089   0.967 -0.2474  1.9362 -0.1834
 7039TIP3    H242677   6.278   0.063   0.820 -1.2066  1.0991 -0.1994
 7040TIP3   OH242678   3.126   4.998   7.243  0.6369 -0.8244  0.3131
 7040TIP3    H142679   3.144   5.039   7.328  3.3490 -1.8013  0.2978
 7040TIP3    H242680   3.141   5.067   7.179 -3.0097  0.3983  0.5657
 7041TIP3   OH242681   6.725   0.883   7.084 -0.1279  0.2493  0.1545
 7041TIP3    H142682   6.668   0.871   7.008  0.0192  0.5416 -0.0019
 7041TIP3    H242683   6.774   0.963   7.066  0.1038  0.1746  0.4341
 7042TIP3   OH242684   6.471   6.843   0.887 -0.1271  0.0152  0.3258
 7042TIP3    H142685   6.535   6.911   0.912  1.3890 -1.4054  0.4917
 7042TIP3    H242686   6.516   6.793   0.819 -2.1678  0.6227 -1.5437
 7043TIP3   OH242687   3.163   0.060   1.158  0.1296  0.0264 -0.6588
 7043TIP3    H142688   3.216  -0.008   1.117  0.2391  1.2728 -2.7792
 7043TIP3    H242689   3.089   0.071   1.098  0.1477  1.7912 -0.3988
 7044TIP3   OH242690   1.222   0.176   7.295 -0.2980 -0.2649  0.4014
 7044TIP3    H142691   1.268   0.233   7.234  1.3616 -1.0398  0.8826
 7044TIP3    H242692   1.129   0.195   7.279  0.0347 -0.5015 -2.4190
 7045TIP3   OH242693   0.619   6.159   6.631 -0.2825  0.5306  0.2186
 7045TIP3    H142694   0.527   6.142   6.650 -0.1651 -0.2581  0.1207
 7045TIP3    H242695   0.653   6.200   6.711 -0.4541 -0.2118  0.6803
 7046TIP3   OH242696   1.102   1.601   1.718  0.0497 -0.0904  0.0849
 7046TIP3    H142697   1.024   1.550   1.700  0.5581 -1.3679  1.3106
 7046TIP3    H242698   1.071   1.675   1.770 -0.4415 -0.2142 -0.0317
 7047TIP3   OH242699   3.139   6.992   7.918 -0.6756 -0.3311 -0.5269
 7047TIP3    H142700   3.125   7.086   7.929 -0.6150 -0.1998 -1.5011
 7047TIP3    H242701   3.058   6.952   7.949 -0.0645 -0.0860  1.5389
 7048TIP3   OH242702   4.138   5.879   2.151 -0.2810  0.2306  0.1101
 7048TIP3    H142703   4.108   5.796   2.188  2.0695 -0.2744  1.0447
 7048TIP3    H242704   4.108   5.946   2.212  0.0459 -0.2103  0.7637
 7049TIP3   OH242705   4.343   5.890   1.946  0.1458  0.6667  0.0905
 7049TIP3    H142706   4.287   5.862   2.018  0.6367  2.1645  1.1142
 7049TIP3    H242707   4.334   5.986   1.945  0.4394  0.7049 -1.6064
 7050TIP3   OH242708   3.409   3.759   0.255  0.2186 -0.1702  0.6702
 7050TIP3    H142709   3.491   3.755   0.206 -0.8338  2.0244 -1.4930
 7050TIP3    H242710   3.359   3.683   0.225  0.2254  0.2745 -0.5243
 7051TIP3   OH242711   5.588   0.007   1.071  0.4936 -0.0544 -0.0205
 7051TIP3    H142712   5.504   0.053   1.072  0.1562 -0.5026 -2.2948
 7051TIP3    H242713   5.622   0.021   0.983  1.5262 -2.1387 -0.0081
 7052TIP3   OH242714   2.213   5.153   1.620 -0.2637 -0.2961 -0.8803
 7052TIP3    H142715   2.293   5.136   1.670 -1.1649  1.8235  1.5357
 7052TIP3    H242716   2.173   5.067   1.609 -0.6264 -0.9137  3.3548
 7053TIP3   OH242717   1.855   1.345   7.814  0.2809  0.1973  0.0134
 7053TIP3    H142718   1.837   1.281   7.883  2.4860  0.1419  0.6146
 7053TIP3    H242719   1.874   1.427   7.861 -0.4013  0.7512 -0.6500
 7054TIP3   OH242720   0.732   5.271   0.086  0.0393  0.5877  0.2910
 7054TIP3    H142721   0.638   5.278   0.070  0.0753  0.8817  0.2137
 7054TIP3    H242722   0.738   5.226   0.171 -0.1877  1.4630  0.7796
 7055TIP3   OH242723   6.040   3.753   1.970 -0.0458  0.4300 -0.2434
 7055TIP3    H142724   5.991   3.701   1.907  1.0353 -1.0643  0.1062
 7055TIP3    H242725   6.030   3.843   1.939 -1.9933  0.0523 -0.8405
 7056TIP3   OH242726   7.048   4.557   1.611 -0.3375 -0.4423  0.0699
 7056TIP3    H142727   7.060   4.584   1.520 -2.3980  1.1368  0.1937
 7056TIP3    H242728   6.957   4.528   1.616 -0.1835 -0.7727  1.5716
 7057TIP3   OH242729   0.916   0.015   6.542 -0.0744 -0.0783 -0.2216
 7057TIP3    H142730   0.889   0.057   6.623  0.0466  3.0235 -1.6234
 7057TIP3    H242731   0.836   0.014   6.489 -0.0441 -1.6279 -0.2720
 7058TIP3   OH242732   2.194   4.792   6.957 -0.0202  0.1198  0.0595
 7058TIP3    H142733   2.274   4.768   6.909  0.1027 -0.5828  0.5989
 7058TIP3    H242734   2.206   4.884   6.979  0.7423 -0.0383  0.3252
 7059TIP3   OH242735   1.485   0.429   0.735 -0.2399  0.1646 -0.5871
 7059TIP3    H142736   1.473   0.383   0.652 -1.9677 -0.8519  0.1781
 7059TIP3    H242737   1.399   0.429   0.776  0.5934  0.5081  1.2925
 7060TIP3   OH242738   6.699   5.468   0.624 -0.0972 -0.6046 -0.3974
 7060TIP3    H142739   6.679   5.533   0.557 -0.7436 -0.6631 -0.2703
 7060TIP3    H242740   6.653   5.389   0.595 -1.9098 -0.1402  0.9995
 7061TIP3   OH242741   5.104   5.355   7.349  0.5325 -0.2301  0.2768
 7061TIP3    H142742   5.099   5.396   7.436  1.0193 -0.2495  0.3163
 7061TIP3    H242743   5.190   5.381   7.315 -0.5369  1.6288 -1.1341
 7062TIP3   OH242744   6.812   4.253   7.091  0.1077 -0.6491  0.3129
 7062TIP3    H142745   6.726   4.236   7.129 -0.9353  0.2116 -1.5145
 7062TIP3    H242746   6.826   4.180   7.030 -0.5159  0.4525 -1.2270
 7063TIP3   OH242747   3.410   7.022   6.596  0.1293  0.4448 -0.5279
 7063TIP3    H142748   3.498   7.052   6.618 -0.7183  3.4501 -0.8076
 7063TIP3    H242749   3.408   7.023   6.501 -0.8197  2.6826 -0.5445
 7064TIP3   OH242750   5.782   4.565   1.673  0.5269 -0.1085  0.9377
 7064TIP3    H142751   5.697   4.565   1.717  0.9469  0.3125  1.7795
 7064TIP3    H242752   5.773   4.630   1.603 -1.0932 -2.8260 -1.6033
 7065TIP3   OH242753   6.056   5.472   2.089 -0.2419 -0.4770  0.1626
 7065TIP3    H142754   6.075   5.379   2.075  2.5297 -0.1615  1.1460
 7065TIP3    H242755   6.058   5.482   2.184  0.0742  0.6638  0.0465
 7066TIP3   OH242756   4.957   0.415   7.212  0.1056 -0.1479 -0.7700
 7066TIP3    H142757   5.031   0.357   7.229 -0.8118 -0.8408  1.1088
 7066TIP3    H242758   4.997   0.502   7.205  1.0232 -0.2302  1.9391
 7067TIP3   OH242759   1.217   3.964   5.551  0.3536 -0.0381  0.4633
 7067TIP3    H142760   1.135   3.989   5.593  0.2463 -0.4231  0.4859
 7067TIP3    H242761   1.203   3.874   5.521  0.0470  0.5769 -1.3684
 7068TIP3   OH242762   5.530   0.639   1.112  0.0571 -0.0117 -0.2019
 7068TIP3    H142763   5.596   0.659   1.046  1.1252  2.3831  1.4822
 7068TIP3    H242764   5.469   0.712   1.109 -0.4604 -0.3812  0.7656
 7069TIP3   OH242765   5.808   1.900   0.233  0.4985 -0.0888 -0.0061
 7069TIP3    H142766   5.772   1.813   0.253 -1.1327  0.2215 -1.3453
 7069TIP3    H242767   5.824   1.940   0.319 -1.1041 -0.7901  0.6609
 7070TIP3   OH242768   7.009   3.165   0.240 -0.6921 -0.0402  0.1718
 7070TIP3    H142769   7.000   3.250   0.197 -0.8678 -0.7312 -1.1789
 7070TIP3    H242770   7.082   3.178   0.301 -0.3032  0.9018 -0.4614
 7071TIP3   OH242771   5.315   1.876   5.922 -0.5345 -0.2360 -0.0473
 7071TIP3    H142772   5.257   1.929   5.868 -0.6420  0.5785  0.8279
 7071TIP3    H242773   5.403   1.908   5.902 -0.6971  1.4962  1.6669
 7072TIP3   OH242774   3.025   3.739   7.178 -0.2785 -0.8541  0.0241
 7072TIP3    H142775   3.050   3.648   7.166  0.9076 -0.5418 -0.0523
 7072TIP3    H242776   3.105   3.782   7.207 -1.3914 -0.2786  2.4691
 7073TIP3   OH242777   1.904   4.048   6.324 -0.4006  0.1932 -0.1519
 7073TIP3    H142778   1.844   3.974   6.337  2.3245 -1.8175  2.4592
 7073TIP3    H242779   1.976   4.011   6.272  0.9976  0.9824  1.1488
 7074TIP3   OH242780   3.612   1.761   0.665 -0.3254 -0.2936  0.2909
 7074TIP3    H142781   3.673   1.834   0.676  1.1640 -0.4631 -4.5351
 7074TIP3    H242782   3.533   1.801   0.627 -0.4616 -0.8854 -0.0615
 7075TIP3   OH242783   0.017   6.499   6.834 -0.3261  0.5882  0.1715
 7075TIP3    H142784  -0.074   6.468   6.833 -0.2850  0.2656 -2.7785
 7075TIP3    H242785   0.067   6.424   6.865 -0.9096  0.1864  0.1688
 7076TIP3   OH242786   2.922   6.300   5.636 -0.2302  0.0579 -0.3218
 7076TIP3    H142787   2.964   6.385   5.649  0.7497 -0.7366  2.3168
 7076TIP3    H242788   2.995   6.238   5.626 -0.7866 -0.8582  0.9132
 7077TIP3   OH242789   4.701   1.598   7.973  0.1647 -0.4219  0.1771
 7077TIP3    H142790   4.717   1.548   8.053  1.0327 -0.7562 -0.1798
 7077TIP3    H242791   4.624   1.557   7.933 -2.8790  2.2478  2.7663
 7078TIP3   OH242792   3.442   2.297   7.212 -0.0982  0.2056  0.4957
 7078TIP3    H142793   3.437   2.201   7.206  0.6272  0.1548  0.5305
 7078TIP3    H242794   3.358   2.324   7.247  0.3319 -0.5801  2.2442
   7.14717   7.14717   8.03841
