Title
42794
    1SAPS     N    1   3.006   3.533   6.221  0.4352  0.7146 -0.1155
    1SAPS   HN1    2   3.091   3.563   6.168  0.4574  0.4784 -0.2145
    1SAPS   HN2    3   2.946   3.471   6.163 -1.7815  0.3014  2.5228
    1SAPS   HN3    4   2.952   3.620   6.240 -1.3249  0.2917 -2.9625
    1SAPS   C12    5   3.034   3.484   6.356 -0.2467  0.1829  0.3705
    1SAPS  H12A    6   3.079   3.563   6.415 -0.8350  2.3964 -2.0792
    1SAPS   C13    7   2.920   3.422   6.440  1.3777 -1.0648  0.2637
    1SAPS  O13A    8   2.803   3.409   6.391 -0.2051 -0.3258  0.0752
    1SAPS  O13B    9   2.954   3.354   6.544 -0.2620  0.2512  0.2138
    1SAPS   C11   10   3.151   3.378   6.341 -0.7196  0.2369 -0.1782
    1SAPS  H11A   11   3.106   3.286   6.299 -1.2008  0.2680  0.2569
    1SAPS  H11B   12   3.184   3.348   6.443 -0.4458 -2.9482 -1.1744
    1SAPS     P   13   3.396   3.396   6.218  0.2580  0.3648  0.0338
    1SAPS   O13   14   3.475   3.417   6.339  0.1645  0.4636  0.3445
    1SAPS   O14   15   3.389   3.261   6.166  0.3518 -0.3874 -0.5373
    1SAPS   O12   16   3.252   3.432   6.255  0.5451 -0.5811  0.6795
    1SAPS   O11   17   3.432   3.500   6.098 -0.0999  0.0304 -0.5370
    1SAPS    C1   18   3.576   3.495   6.068 -0.0947  0.2712 -0.0175
    1SAPS    HA   19   3.631   3.547   6.149  0.3516  1.0014 -0.7823
    1SAPS    HB   20   3.629   3.398   6.074 -2.0336 -0.7842  0.6330
    1SAPS    C2   21   3.613   3.554   5.933  0.0952 -0.1601 -0.0147
    1SAPS    HS   22   3.712   3.510   5.908  1.3239  1.6478  1.5516
    1SAPS   O21   23   3.602   3.701   5.934  0.3523  0.2117 -0.0381
    1SAPS   C21   24   3.672   3.758   5.845 -0.1384 -0.6850  0.7668
    1SAPS   O22   25   3.763   3.710   5.773  0.1085  0.2479  0.0700
    1SAPS   C22   26   3.640   3.908   5.862 -0.0289 -0.2886 -0.0605
    1SAPS   H2R   27   3.559   3.931   5.934 -2.2487  0.5891 -2.7794
    1SAPS   H2S   28   3.733   3.939   5.914 -0.7692  1.4122  0.2948
    1SAPS    C3   29   3.523   3.487   5.831  0.7857  0.3091 -0.7427
    1SAPS    HX   30   3.418   3.524   5.837  1.3861  2.3536 -2.3222
    1SAPS    HY   31   3.505   3.382   5.863  1.3004  1.0792  2.2673
    1SAPS   O31   32   3.573   3.483   5.693 -0.3050 -0.5358  0.6793
    1SAPS   C31   33   3.673   3.400   5.664 -0.6212  0.1820  0.0768
    1SAPS   O32   34   3.725   3.319   5.744 -0.0930 -0.0798 -0.1298
    1SAPS   C32   35   3.709   3.420   5.516  0.4742 -0.0786  0.9355
    1SAPS   H2X   36   3.745   3.524   5.505 -0.9615  0.4355  0.9895
    1SAPS   H2Y   37   3.622   3.419   5.447  1.2559 -1.8417 -0.0751
    1SAPS   C23   38   3.625   3.990   5.731 -0.1563  0.4758 -0.2780
    1SAPS   H3R   39   3.705   3.957   5.661 -1.2968  0.1099 -1.4271
    1SAPS   H3S   40   3.643   4.095   5.761  2.4158 -0.4638  1.6547
    1SAPS   C24   41   3.482   3.979   5.672 -0.7146  0.0057 -0.0737
    1SAPS   H4R   42   3.470   4.049   5.586 -2.0580 -1.1038 -0.8173
    1SAPS   H4S   43   3.408   4.010   5.748 -0.2394  0.4458  0.2139
    1SAPS   C25   44   3.461   3.846   5.607 -0.0547 -0.2280  0.2221
    1SAPS   H5R   45   3.393   3.778   5.662 -0.2283 -1.7707 -1.8346
    1SAPS   C26   46   3.500   3.810   5.485 -0.3171 -0.2673  0.3977
    1SAPS   H6R   47   3.475   3.713   5.440  0.1421  0.3336 -1.1636
    1SAPS   C27   48   3.570   3.893   5.381 -0.6641  0.2012 -0.4278
    1SAPS   H7R   49   3.581   3.995   5.424  0.3270  0.1596 -0.5799
    1SAPS   H7S   50   3.498   3.898   5.297 -1.0751 -2.0809 -0.2202
    1SAPS   C28   51   3.700   3.824   5.350  0.1853 -0.0559 -0.1339
    1SAPS   H8R   52   3.769   3.799   5.432  1.1574 -1.2239 -1.2678
    1SAPS   C29   53   3.729   3.768   5.232 -0.5150  0.3983 -0.6530
    1SAPS   H9R   54   3.828   3.721   5.222 -0.5105  0.3798 -0.5189
    1SAPS  C210   55   3.635   3.767   5.114  0.2900 -0.0591 -0.3247
    1SAPS  H10R   56   3.533   3.736   5.144  0.3335 -0.2417 -0.3675
    1SAPS  H10S   57   3.661   3.677   5.055 -0.0838 -0.7886  0.6101
    1SAPS  C211   58   3.628   3.884   5.020 -0.2530 -0.6577 -0.9744
    1SAPS  H11R   59   3.584   3.982   5.044 -1.0105 -0.9910 -0.9960
    1SAPS  C212   60   3.692   3.883   4.903 -0.9721  0.1529 -0.0797
    1SAPS  H12R   61   3.692   3.966   4.832 -0.5145 -1.7226 -2.3047
    1SAPS  C213   62   3.777   3.770   4.842  0.4387  0.0422 -0.0609
    1SAPS  H13R   63   3.785   3.797   4.734 -1.8491  0.1753 -0.2023
    1SAPS  H13S   64   3.726   3.674   4.860 -1.2670  0.9175 -0.1588
    1SAPS  C214   65   3.911   3.752   4.902 -0.0999  0.3725  0.3982
    1SAPS  H14R   66   3.917   3.780   5.008  0.4372  2.7161 -0.2329
    1SAPS  C215   67   4.019   3.707   4.843 -0.5564  0.2561 -0.3690
    1SAPS  H15R   68   4.114   3.712   4.899 -0.6390  0.4808 -0.2488
    1SAPS  C216   69   4.044   3.663   4.703 -0.1294 -0.0303  0.3032
    1SAPS  H16R   70   4.150   3.633   4.691  0.4072  1.5239  1.0179
    1SAPS  H16S   71   4.030   3.747   4.631 -0.8079  0.7176  1.3005
    1SAPS  C217   72   3.959   3.540   4.651 -0.3002  0.2812 -0.7097
    1SAPS  H17R   73   3.852   3.560   4.676 -0.5212 -0.7615 -0.7657
    1SAPS  H17S   74   3.986   3.455   4.718  0.0541  1.3861  0.5601
    1SAPS  C218   75   3.972   3.523   4.503 -0.0078  0.1061  0.5256
    1SAPS  H18R   76   3.943   3.422   4.469 -1.9138  0.7816  0.0638
    1SAPS  H18S   77   4.079   3.540   4.479 -0.0971  2.8745  1.8850
    1SAPS  C219   78   3.896   3.621   4.411 -0.4464 -0.0668  1.0250
    1SAPS  H19R   79   3.937   3.721   4.438  0.7871  0.0929 -1.3181
    1SAPS  H19S   80   3.786   3.624   4.425 -0.4649  2.6651  0.5207
    1SAPS  C220   81   3.946   3.582   4.267  0.5209 -0.3128 -0.3579
    1SAPS  H20R   82   4.056   3.568   4.272  0.4315 -0.5093  1.7268
    1SAPS  H20S   83   3.927   3.656   4.186  2.4726  1.2475  0.5406
    1SAPS  H20T   84   3.906   3.483   4.239 -2.0305  0.2803  1.0110
    1SAPS   C33   85   3.827   3.333   5.450  0.2550  0.8073  0.4410
    1SAPS   H3X   86   3.815   3.222   5.446  0.5848  0.7938 -0.3065
    1SAPS   H3Y   87   3.908   3.359   5.521  0.8308  1.6866 -0.5107
    1SAPS   C34   88   3.870   3.384   5.313  0.5262  0.0075  0.5425
    1SAPS   H4X   89   3.976   3.354   5.296  0.1119 -1.3366  0.2591
    1SAPS   H4Y   90   3.876   3.494   5.325  1.6497 -0.2484  2.4461
    1SAPS   C35   91   3.784   3.340   5.198 -0.3190  0.7097 -0.0876
    1SAPS   H5X   92   3.681   3.378   5.214  0.0525  1.5757  0.2308
    1SAPS   H5Y   93   3.780   3.229   5.187  2.3429  0.2117  3.1086
    1SAPS   C36   94   3.832   3.417   5.075  0.1146  0.0473  0.2006
    1SAPS   H6X   95   3.933   3.378   5.053  0.8266  1.4981  0.8466
    1SAPS   H6Y   96   3.840   3.528   5.082 -1.5177  0.3330 -1.7275
    1SAPS   C37   97   3.746   3.386   4.943  0.3652 -0.2754  0.4903
    1SAPS   H7X   98   3.782   3.440   4.854 -2.4764  1.4286  0.3178
    1SAPS   H7Y   99   3.650   3.440   4.958  1.2699  1.0566  1.6314
    1SAPS   C38  100   3.728   3.236   4.907 -0.2448  0.6319  0.2011
    1SAPS   H8X  101   3.629   3.198   4.940 -0.2223 -0.8137 -1.3580
    1SAPS   H8Y  102   3.806   3.183   4.966  2.1167  0.7670 -2.6745
    1SAPS   C39  103   3.765   3.205   4.762 -0.1913  0.2786  0.0612
    1SAPS   H9X  104   3.773   3.094   4.773 -3.6044 -0.0938 -0.6716
    1SAPS   H9Y  105   3.865   3.242   4.733  0.6160 -1.7156  0.2366
    1SAPS  C310  106   3.655   3.227   4.654 -0.0062  0.2585 -0.7084
    1SAPS  H10X  107   3.586   3.308   4.686  1.5673  1.1962  0.3506
    1SAPS  H10Y  108   3.597   3.132   4.653 -1.0955  0.8984 -0.0183
    1SAPS  C311  109   3.696   3.244   4.502  0.1990  0.3731 -0.1058
    1SAPS  H11X  110   3.745   3.343   4.494 -0.1062  0.5816  0.5474
    1SAPS  H11Y  111   3.609   3.248   4.433 -1.6052 -2.0283  1.9178
    1SAPS  C312  112   3.787   3.136   4.450 -0.0175  0.9240 -0.3693
    1SAPS  H12X  113   3.736   3.038   4.446 -0.0230  0.9881 -1.9933
    1SAPS  H12Y  114   3.873   3.120   4.519  0.8629  0.6039 -1.5244
    1SAPS  C313  115   3.842   3.165   4.307  0.3913 -0.4061  0.2498
    1SAPS  H13X  116   3.908   3.081   4.278 -0.1254 -0.3662 -1.1232
    1SAPS  H13Y  117   3.892   3.264   4.301  1.7283 -1.2160 -2.7795
    1SAPS  C314  118   3.741   3.155   4.189 -0.8191 -0.0718  0.0662
    1SAPS  H14X  119   3.788   3.183   4.093  0.5024 -2.5056 -0.0410
    1SAPS  H14Y  120   3.658   3.220   4.224  0.1969  1.4255 -0.2868
    1SAPS  C315  121   3.664   3.025   4.177 -0.5697  0.7632  0.2020
    1SAPS  H15X  122   3.626   3.003   4.280  2.4379 -0.7209  1.0575
    1SAPS  H15Y  123   3.723   2.938   4.143 -0.1100 -0.0539  2.9658
    1SAPS  C316  124   3.546   3.043   4.082 -0.0123 -0.4296 -0.2565
    1SAPS  H16X  125   3.589   3.083   3.988 -0.4596  0.1067 -0.2400
    1SAPS  H16Y  126   3.478   3.127   4.108  0.7825  0.0505  0.2996
    1SAPS  C317  127   3.450   2.926   4.064  0.2089 -0.1566 -0.0820
    1SAPS  H17X  128   3.371   2.970   4.000  0.1986 -0.2753 -0.1514
    1SAPS  H17Y  129   3.390   2.914   4.156 -0.8272  1.5702 -0.5079
    1SAPS  C318  130   3.496   2.795   4.003 -0.7636 -0.0619 -0.2485
    1SAPS  H18X  131   3.525   2.809   3.897 -2.2110 -0.6218 -0.7316
    1SAPS  H18Y  132   3.406   2.730   4.008 -0.8403  0.0259 -0.4890
    1SAPS  H18Z  133   3.585   2.765   4.062 -0.8566 -0.3793 -0.2727
    2SAPS     N  134   4.486   5.336   6.501  0.0861  0.1330 -0.4870
    2SAPS   HN1  135   4.500   5.393   6.416 -2.3407  2.6173  0.7341
    2SAPS   HN2  136   4.581   5.321   6.542  1.2359  1.0809 -2.7400
    2SAPS   HN3  137   4.443   5.242   6.485 -0.4892  0.0937  1.1721
    2SAPS   C12  138   4.399   5.421   6.593 -0.1886  0.1102  0.2306
    2SAPS  H12A  139   4.355   5.358   6.669  1.0735 -0.2304  0.6781
    2SAPS   C13  140   4.467   5.538   6.669  0.6912  0.2589 -0.3076
    2SAPS  O13A  141   4.585   5.569   6.652 -0.0398  0.7309  0.3201
    2SAPS  O13B  142   4.397   5.596   6.754  0.2471  0.4188  0.0284
    2SAPS   C11  143   4.293   5.480   6.499  0.4384 -0.8917  0.0726
    2SAPS  H11A  144   4.238   5.561   6.552  1.5119  0.7369 -1.2510
    2SAPS  H11B  145   4.220   5.399   6.478 -0.9295  0.4871 -0.6001
    2SAPS     P  146   4.257   5.578   6.252 -0.3644  0.2646 -0.2904
    2SAPS   O13  147   4.167   5.683   6.299 -0.4614 -0.5485  0.2376
    2SAPS   O14  148   4.350   5.611   6.141  0.2335  0.3017 -0.0449
    2SAPS   O12  149   4.345   5.537   6.372 -0.2450 -0.3279  0.5803
    2SAPS   O11  150   4.184   5.458   6.206  0.4851  0.2177 -0.0020
    2SAPS    C1  151   4.073   5.406   6.270  0.3409  0.3452 -0.1181
    2SAPS    HA  152   4.105   5.312   6.320 -1.2700  0.6408  1.5386
    2SAPS    HB  153   4.033   5.468   6.353 -0.4786 -0.1913 -0.1045
    2SAPS    C2  154   3.962   5.371   6.167 -0.3172  0.4390 -0.2399
    2SAPS    HS  155   3.894   5.301   6.220  1.9675 -0.0783  2.1133
    2SAPS   O21  156   4.023   5.320   6.052 -0.1754  0.1344  0.8161
    2SAPS   C21  157   4.068   5.194   6.051  0.1120 -0.1984 -0.1451
    2SAPS   O22  158   4.053   5.123   6.152 -0.7100 -0.2101  0.1451
    2SAPS   C22  159   4.120   5.159   5.910  0.1501  0.2564 -0.5501
    2SAPS   H2R  160   4.030   5.172   5.846 -0.4598 -1.4713 -0.0624
    2SAPS   H2S  161   4.198   5.236   5.890  1.8400 -1.8600 -2.2052
    2SAPS    C3  162   3.880   5.499   6.129  0.0170  0.1145  0.0222
    2SAPS    HX  163   3.838   5.544   6.222 -1.1956  3.9395 -2.2830
    2SAPS    HY  164   3.792   5.477   6.065  0.1906  3.1406 -1.3341
    2SAPS   O31  165   3.959   5.601   6.063 -0.1171 -0.3094  0.2406
    2SAPS   C31  166   3.991   5.582   5.932  0.6145 -0.1888  0.1301
    2SAPS   O32  167   3.947   5.496   5.860  0.4681 -0.2605 -0.3100
    2SAPS   C32  168   4.088   5.691   5.894  0.2598 -0.0173  0.0096
    2SAPS   H2X  169   4.176   5.681   5.960 -0.4177 -0.9369  0.7920
    2SAPS   H2Y  170   4.040   5.791   5.901 -0.0092 -0.1994  0.8390
    2SAPS   C23  171   4.183   5.015   5.888 -0.0082 -0.6193  0.3850
    2SAPS   H3R  172   4.098   4.949   5.915 -1.4315  0.2538 -1.7785
    2SAPS   H3S  173   4.261   5.003   5.966 -0.2795  1.6340  1.0397
    2SAPS   C24  174   4.242   5.002   5.749 -0.5837 -0.3534  0.6271
    2SAPS   H4R  175   4.306   4.912   5.743  2.2064  1.5894  0.0705
    2SAPS   H4S  176   4.305   5.093   5.736  0.7753 -1.0988  1.9270
    2SAPS   C25  177   4.126   4.992   5.653 -0.9982 -0.1357  0.2365
    2SAPS   H5R  178   4.053   4.912   5.670 -1.5120 -0.1414 -1.8810
    2SAPS   C26  179   4.111   5.065   5.542 -0.0367  0.4233 -0.1292
    2SAPS   H6R  180   4.035   5.017   5.480 -0.4898  0.9665 -0.0010
    2SAPS   C27  181   4.197   5.165   5.475  0.4139 -0.7797  0.3951
    2SAPS   H7R  182   4.189   5.149   5.366 -0.9434 -0.8264  0.4895
    2SAPS   H7S  183   4.302   5.146   5.504  0.6627 -1.7470 -1.1446
    2SAPS   C28  184   4.171   5.313   5.495 -0.6557  0.6008  0.4343
    2SAPS   H8R  185   4.196   5.348   5.596  0.0507 -0.6049  0.6919
    2SAPS   C29  186   4.124   5.406   5.415  0.3974 -0.4600  0.3785
    2SAPS   H9R  187   4.103   5.504   5.459 -3.1514 -1.3654  0.8667
    2SAPS  C210  188   4.081   5.388   5.273  0.6634 -0.5466  1.0542
    2SAPS  H10R  189   3.991   5.448   5.248 -0.0140 -0.6458  3.1195
    2SAPS  H10S  190   4.043   5.284   5.263 -0.8774  0.2624 -2.1215
    2SAPS  C211  191   4.210   5.434   5.187 -0.2342 -0.2850 -0.1370
    2SAPS  H11R  192   4.300   5.372   5.194  0.2477  0.2129 -1.7331
    2SAPS  C212  193   4.214   5.546   5.110 -0.5968  0.5768 -0.0986
    2SAPS  H12R  194   4.307   5.561   5.053 -0.5964  0.7626 -0.0475
    2SAPS  C213  195   4.099   5.644   5.099 -0.2576  0.0256 -0.0032
    2SAPS  H13R  196   4.098   5.691   5.199 -2.3609  1.5109 -0.6829
    2SAPS  H13S  197   3.998   5.598   5.088 -0.2436 -0.3401  1.3073
    2SAPS  C214  198   4.129   5.751   4.992 -0.0938 -0.0036 -0.1857
    2SAPS  H14R  199   4.096   5.728   4.890 -0.8740  1.0740 -0.1805
    2SAPS  C215  200   4.204   5.862   5.018 -0.1058  0.2004  0.4474
    2SAPS  H15R  201   4.210   5.940   4.941  0.6906 -0.1441  0.1523
    2SAPS  C216  202   4.270   5.905   5.138 -0.0271 -0.4839 -0.3271
    2SAPS  H16R  203   4.248   5.841   5.226 -0.5516  1.2354  0.8204
    2SAPS  H16S  204   4.219   6.001   5.160  0.0848 -0.5651  0.3031
    2SAPS  C217  205   4.422   5.921   5.133 -0.0542 -0.4125  0.0133
    2SAPS  H17R  206   4.443   5.964   5.233  0.7555 -0.3618 -0.1796
    2SAPS  H17S  207   4.438   5.993   5.050 -1.1362 -0.3667 -0.1624
    2SAPS  C218  208   4.500   5.796   5.110 -0.2347  0.5618  0.3942
    2SAPS  H18R  209   4.457   5.761   5.014  2.8249 -2.1513 -0.0846
    2SAPS  H18S  210   4.474   5.728   5.194 -0.7874 -0.4689 -0.5972
    2SAPS  C219  211   4.649   5.821   5.099 -0.1664 -0.3502 -0.7304
    2SAPS  H19R  212   4.697   5.849   5.195 -2.6044  1.8498 -0.0938
    2SAPS  H19S  213   4.662   5.913   5.039 -0.1342  0.2996  0.2551
    2SAPS  C220  214   4.720   5.705   5.031 -0.0162  0.5780  0.6397
    2SAPS  H20R  215   4.719   5.722   4.922  1.2854 -1.4176  0.2874
    2SAPS  H20S  216   4.668   5.613   5.064  0.5889 -0.2401 -0.6492
    2SAPS  H20T  217   4.826   5.704   5.066  0.5399 -0.8375 -1.0762
    2SAPS   C33  218   4.144   5.656   5.754 -0.5458 -0.1651  0.5170
    2SAPS   H3X  219   4.065   5.638   5.678  2.0684 -0.2444 -2.2750
    2SAPS   H3Y  220   4.198   5.560   5.765  0.9912  0.7060  0.6325
    2SAPS   C34  221   4.256   5.751   5.713 -0.0797  0.4975 -0.3765
    2SAPS   H4X  222   4.323   5.758   5.802 -0.2524  0.6396 -0.2595
    2SAPS   H4Y  223   4.230   5.855   5.685 -0.4488  0.4309 -0.2862
    2SAPS   C35  224   4.319   5.705   5.580  0.0340 -0.5968  0.2357
    2SAPS   H5X  225   4.381   5.795   5.565 -1.7871  0.4567 -1.1408
    2SAPS   H5Y  226   4.243   5.704   5.499 -0.0088 -0.3479  0.2752
    2SAPS   C36  227   4.401   5.587   5.581 -0.2283 -0.4235 -0.4901
    2SAPS   H6X  228   4.342   5.497   5.606 -0.9067  0.4809  1.3087
    2SAPS   H6Y  229   4.479   5.604   5.658  2.0849 -1.5422 -2.5240
    2SAPS   C37  230   4.482   5.575   5.452 -0.0769 -0.1931  0.5075
    2SAPS   H7X  231   4.549   5.663   5.447 -0.9664  0.4203 -0.8365
    2SAPS   H7Y  232   4.409   5.585   5.369  1.0625 -3.0535 -0.9195
    2SAPS   C38  233   4.560   5.448   5.430  0.2547  0.2913  0.5087
    2SAPS   H8X  234   4.479   5.375   5.453 -1.1033  1.0788 -1.6126
    2SAPS   H8Y  235   4.643   5.442   5.504 -1.4799 -0.1698  2.4852
    2SAPS   C39  236   4.612   5.437   5.286  0.3811  0.1827 -0.3648
    2SAPS   H9X  237   4.705   5.498   5.277  1.3097 -1.3001 -1.0685
    2SAPS   H9Y  238   4.538   5.477   5.213  0.2910  2.0256  0.7098
    2SAPS  C310  239   4.645   5.292   5.250 -1.5400  0.3420  0.6371
    2SAPS  H10X  240   4.549   5.236   5.260 -1.0779 -0.3818  1.0743
    2SAPS  H10Y  241   4.717   5.263   5.330  0.1445 -1.9785 -1.6400
    2SAPS  C311  242   4.706   5.266   5.112  0.2711  0.5707 -0.2531
    2SAPS  H11X  243   4.753   5.166   5.116 -1.0572 -0.0490  0.3364
    2SAPS  H11Y  244   4.787   5.337   5.088  1.9226 -1.0589  0.4333
    2SAPS  C312  245   4.589   5.258   5.009  0.2769  0.4406  0.3563
    2SAPS  H12X  246   4.512   5.333   5.034  0.2249  1.1787 -1.8698
    2SAPS  H12Y  247   4.546   5.156   5.018  0.8442  0.2334  0.7873
    2SAPS  C313  248   4.627   5.283   4.857 -1.1008 -0.3648  0.2691
    2SAPS  H13X  249   4.691   5.202   4.815 -1.0602 -0.7326  1.0365
    2SAPS  H13Y  250   4.705   5.363   4.854 -0.8252 -0.6327  0.3023
    2SAPS  C314  251   4.515   5.329   4.772  0.5332 -0.8096  0.2399
    2SAPS  H14X  252   4.472   5.421   4.816 -1.1979 -1.3467 -0.2781
    2SAPS  H14Y  253   4.432   5.255   4.771 -0.9094  0.7760 -1.3467
    2SAPS  C315  254   4.556   5.367   4.626 -0.2015  0.1222  0.0111
    2SAPS  H15X  255   4.601   5.285   4.566  2.5038  1.6071 -0.0927
    2SAPS  H15Y  256   4.633   5.446   4.640 -0.4170 -0.3067  4.0508
    2SAPS  C316  257   4.438   5.431   4.541 -0.9785 -0.0254 -0.2662
    2SAPS  H16X  258   4.477   5.473   4.445  0.8662 -0.9652  0.0565
    2SAPS  H16Y  259   4.403   5.515   4.606 -1.7366 -2.2569  2.2942
    2SAPS  C317  260   4.320   5.335   4.512 -0.4926  0.3998  0.4297
    2SAPS  H17X  261   4.253   5.403   4.456 -0.5087  1.4317  1.6955
    2SAPS  H17Y  262   4.281   5.306   4.612 -0.4679  1.0499  0.6267
    2SAPS  C318  263   4.360   5.215   4.426 -0.5278 -0.0433 -0.1272
    2SAPS  H18X  264   4.438   5.149   4.470  2.0334  2.5545 -0.6403
    2SAPS  H18Y  265   4.409   5.256   4.335  2.4812 -1.8316  0.6002
    2SAPS  H18Z  266   4.272   5.150   4.406  1.3104 -2.0217 -2.0519
    3SAPS     N  267   4.864   5.424   6.397  0.0186 -0.1993  0.5998
    3SAPS   HN1  268   4.761   5.409   6.391  0.2394 -1.0037 -1.7708
    3SAPS   HN2  269   4.883   5.460   6.492  3.3276 -1.1491  0.3402
    3SAPS   HN3  270   4.901   5.477   6.315  1.7918 -0.0109  1.5114
    3SAPS   C12  271   4.918   5.282   6.421  0.2257 -0.0875  0.0271
    3SAPS  H12A  272   5.023   5.280   6.446  0.0779  0.4708  0.7141
    3SAPS   C13  273   4.853   5.207   6.529 -0.1020 -0.4697 -0.0922
    3SAPS  O13A  274   4.750   5.252   6.580 -0.0589  0.3758 -0.2128
    3SAPS  O13B  275   4.892   5.087   6.557  0.4696  0.6929  0.5474
    3SAPS   C11  276   4.908   5.213   6.281  0.0704  0.7037  0.2556
    3SAPS  H11A  277   4.925   5.290   6.204  0.8223  0.6872  0.4001
    3SAPS  H11B  278   4.805   5.174   6.266 -0.3605  0.6592  2.9695
    3SAPS     P  279   5.142   5.120   6.199 -0.4540 -0.0212  0.2464
    3SAPS   O13  280   5.199   5.243   6.264  0.7385  0.3590  0.5664
    3SAPS   O14  281   5.212   4.993   6.225 -0.0833  0.5563  0.7609
    3SAPS   O12  282   5.006   5.109   6.272 -0.1901 -0.0606  0.1087
    3SAPS   O11  283   5.110   5.124   6.042 -0.4790 -0.1540 -0.3644
    3SAPS    C1  284   5.013   5.042   5.982  0.0063  0.8023  0.6314
    3SAPS    HA  285   4.927   5.032   6.050  0.6131 -0.2068  1.2649
    3SAPS    HB  286   4.979   5.095   5.891  0.8626 -0.7106 -0.6062
    3SAPS    C2  287   5.073   4.900   5.955 -0.1347  0.6916  0.0795
    3SAPS    HS  288   5.117   4.858   6.048  2.9909  1.9544 -0.7408
    3SAPS   O21  289   5.176   4.909   5.854  0.4321  0.4462 -0.5742
    3SAPS   C21  290   5.227   4.796   5.811 -0.1685 -0.0438 -0.0183
    3SAPS   O22  291   5.225   4.690   5.873  0.1617  0.0924  0.3318
    3SAPS   C22  292   5.300   4.816   5.683  0.0678 -0.9348  0.1669
    3SAPS   H2R  293   5.244   4.881   5.613  0.9316  1.4743  1.6489
    3SAPS   H2S  294   5.394   4.872   5.703  0.1203 -0.5485 -1.0926
    3SAPS    C3  295   4.950   4.807   5.924  0.4265 -0.3614  0.2740
    3SAPS    HX  296   4.875   4.821   6.005 -0.0934 -0.9408 -0.0991
    3SAPS    HY  297   4.972   4.700   5.945  1.1962 -0.0002  1.3653
    3SAPS   O31  298   4.896   4.830   5.792 -0.0535 -0.5928  0.1980
    3SAPS   C31  299   4.776   4.884   5.782  0.2453 -0.2228 -0.5696
    3SAPS   O32  300   4.699   4.906   5.874 -0.3592  0.0790 -0.0912
    3SAPS   C32  301   4.744   4.909   5.634 -0.2625 -0.7857  0.1302
    3SAPS   H2X  302   4.667   4.990   5.634  1.5746  1.0183 -0.9982
    3SAPS   H2Y  303   4.694   4.819   5.592  1.5249 -1.4070 -0.7100
    3SAPS   C23  304   5.340   4.684   5.620  0.3944 -0.0646 -0.8853
    3SAPS   H3R  305   5.410   4.639   5.694  0.1489  0.2121 -0.4870
    3SAPS   H3S  306   5.407   4.710   5.535  0.1961 -0.7035 -1.2356
    3SAPS   C24  307   5.238   4.568   5.586 -0.3454  0.9669  0.6318
    3SAPS   H4R  308   5.191   4.530   5.680 -0.4164 -0.2439  0.1083
    3SAPS   H4S  309   5.282   4.481   5.534 -0.8389  0.1575  1.5446
    3SAPS   C25  310   5.130   4.624   5.505 -0.1472 -0.0827  0.0942
    3SAPS   H5R  311   5.041   4.670   5.549 -0.1330  1.4039 -1.3624
    3SAPS   C26  312   5.152   4.650   5.371 -0.3912 -0.4904 -0.4846
    3SAPS   H6R  313   5.074   4.702   5.314 -0.2991  0.9712  0.6976
    3SAPS   C27  314   5.278   4.628   5.288 -0.0899  0.4131  0.6486
    3SAPS   H7R  315   5.369   4.606   5.348 -1.0947 -1.1347  1.6201
    3SAPS   H7S  316   5.320   4.717   5.236  1.1387 -1.3024 -1.4235
    3SAPS   C28  317   5.239   4.528   5.190 -0.0671 -0.3451 -0.1937
    3SAPS   H8R  318   5.137   4.531   5.148  0.3517  0.0491 -1.2043
    3SAPS   C29  319   5.327   4.431   5.155  0.6921  0.2479  0.7886
    3SAPS   H9R  320   5.293   4.341   5.101  0.7524  0.0711  1.0453
    3SAPS  C210  321   5.473   4.422   5.208 -0.8027  0.4761 -0.1875
    3SAPS  H10R  322   5.458   4.391   5.314 -0.9149  1.9427  0.2268
    3SAPS  H10S  323   5.532   4.516   5.207 -0.8905  0.5274 -3.1293
    3SAPS  C211  324   5.566   4.317   5.149  0.1117 -0.8440  0.7059
    3SAPS  H11R  325   5.648   4.284   5.215  0.0269 -1.2540  0.6078
    3SAPS  C212  326   5.591   4.278   5.021 -0.3856 -0.5650 -0.4457
    3SAPS  H12R  327   5.661   4.196   5.000 -0.3392 -0.4705 -0.6696
    3SAPS  C213  328   5.522   4.329   4.895 -0.4274  0.3266  0.7769
    3SAPS  H13R  329   5.533   4.440   4.904  0.2135  0.3326  0.0340
    3SAPS  H13S  330   5.415   4.303   4.891  0.4164 -3.2437 -0.6087
    3SAPS  C214  331   5.575   4.286   4.763  0.1284  0.1780  0.0547
    3SAPS  H14R  332   5.585   4.177   4.756  0.9063  0.2111  0.5126
    3SAPS  C215  333   5.606   4.369   4.660  0.1586 -0.0766 -1.1600
    3SAPS  H15R  334   5.650   4.312   4.576 -1.3005  1.6597 -3.1542
    3SAPS  C216  335   5.600   4.512   4.635 -0.1356 -0.2937 -0.1693
    3SAPS  H16R  336   5.707   4.536   4.616  0.2053 -1.4025  0.2737
    3SAPS  H16S  337   5.577   4.561   4.732  2.1592 -1.2498  0.9131
    3SAPS  C217  338   5.503   4.549   4.521  0.0647 -0.7786  0.4791
    3SAPS  H17R  339   5.500   4.660   4.519  2.7892 -0.6621 -3.4466
    3SAPS  H17S  340   5.406   4.496   4.532  1.1199 -2.9144 -0.0685
    3SAPS  C218  341   5.551   4.504   4.384 -0.3462 -1.1960 -0.5948
    3SAPS  H18R  342   5.568   4.394   4.388  1.0365 -0.9590  1.5613
    3SAPS  H18S  343   5.653   4.537   4.356 -0.9070  1.6037  0.4806
    3SAPS  C219  344   5.457   4.538   4.281 -0.0835 -0.6635 -0.9001
    3SAPS  H19R  345   5.358   4.493   4.306 -0.9390  1.9961  0.7316
    3SAPS  H19S  346   5.448   4.649   4.274  0.7036 -0.4461  1.2455
    3SAPS  C220  347   5.500   4.474   4.149 -0.4311 -0.1974 -0.8416
    3SAPS  H20R  348   5.526   4.371   4.181 -0.9464 -0.6259 -1.7940
    3SAPS  H20S  349   5.587   4.524   4.102  0.4509 -1.8606 -1.0181
    3SAPS  H20T  350   5.420   4.463   4.072 -0.0387  1.9604 -1.5971
    3SAPS   C33  351   4.853   4.959   5.542 -1.1617  0.1557 -0.4364
    3SAPS   H3X  352   4.934   4.884   5.552 -1.4445 -0.3523 -1.8395
    3SAPS   H3Y  353   4.890   5.061   5.567  2.1656 -0.1314 -3.8022
    3SAPS   C34  354   4.798   4.969   5.398 -0.3044  0.0818 -0.5380
    3SAPS   H4X  355   4.860   5.048   5.351  1.9066 -1.9483 -1.0988
    3SAPS   H4Y  356   4.690   4.996   5.404 -0.4976 -0.6267 -0.7592
    3SAPS   C35  357   4.810   4.845   5.307 -0.0364  0.6962 -0.1562
    3SAPS   H5X  358   4.913   4.804   5.298 -0.3478 -0.4452  1.2863
    3SAPS   H5Y  359   4.757   4.756   5.346  0.0789 -0.0641 -1.6979
    3SAPS   C36  360   4.751   4.879   5.165  0.4896  0.6865 -0.1866
    3SAPS   H6X  361   4.811   4.954   5.109  0.2745  1.1606  0.2061
    3SAPS   H6Y  362   4.665   4.944   5.192  0.5426  0.5943  0.2009
    3SAPS   C37  363   4.698   4.755   5.081 -0.4542  0.0732  0.5932
    3SAPS   H7X  364   4.637   4.803   5.001 -1.8519 -1.6825  0.5844
    3SAPS   H7Y  365   4.624   4.698   5.141 -0.0714  1.8376  2.7995
    3SAPS   C38  366   4.815   4.665   5.031  0.1129  1.2473 -0.2500
    3SAPS   H8X  367   4.768   4.576   4.985  1.0147 -0.0395  1.2798
    3SAPS   H8Y  368   4.870   4.624   5.118  0.8634 -0.0836 -1.3521
    3SAPS   C39  369   4.916   4.741   4.943  0.0871  0.1142  0.2561
    3SAPS   H9X  370   4.970   4.815   5.006 -0.4510  1.7595 -1.1622
    3SAPS   H9Y  371   4.855   4.798   4.870 -0.7966 -2.3643 -1.0001
    3SAPS  C310  372   5.014   4.636   4.886  0.0799  0.1916  0.7925
    3SAPS  H10X  373   4.973   4.603   4.789  0.0060  0.4039  0.7501
    3SAPS  H10Y  374   5.028   4.553   4.958 -1.5030  0.2472  1.1781
    3SAPS  C311  375   5.161   4.676   4.877  0.2779  0.2468  0.2602
    3SAPS  H11X  376   5.222   4.584   4.861 -0.2596  0.4664 -3.5287
    3SAPS  H11Y  377   5.201   4.719   4.971 -1.0489  1.0721  0.4439
    3SAPS  C312  378   5.192   4.779   4.762 -0.1446  0.1629  0.5478
    3SAPS  H12X  379   5.134   4.867   4.795  2.0603  2.2834 -1.0626
    3SAPS  H12Y  380   5.150   4.737   4.668  1.3870 -2.9746  1.2125
    3SAPS  C313  381   5.337   4.815   4.746  0.0160 -0.8054 -0.7209
    3SAPS  H13X  382   5.402   4.726   4.749 -1.0373 -1.5401  0.5045
    3SAPS  H13Y  383   5.380   4.885   4.820 -0.1101  1.0275 -2.3120
    3SAPS  C314  384   5.361   4.888   4.617 -0.1332  0.4873 -0.2686
    3SAPS  H14X  385   5.303   4.982   4.609  0.8514  0.9001 -3.1596
    3SAPS  H14Y  386   5.344   4.820   4.530  0.6613  1.2289 -1.0043
    3SAPS  C315  387   5.505   4.930   4.599  0.0533  0.4058  0.5561
    3SAPS  H15X  388   5.566   4.862   4.663  1.1446 -0.1891 -1.0731
    3SAPS  H15Y  389   5.519   5.030   4.644 -2.3779  0.7437  0.6154
    3SAPS  C316  390   5.544   4.927   4.452 -0.0446  0.2040 -0.4422
    3SAPS  H16X  391   5.471   4.997   4.406 -1.4311  0.2045  1.7128
    3SAPS  H16Y  392   5.521   4.829   4.405 -1.5503 -0.5273  1.7371
    3SAPS  C317  393   5.695   4.953   4.407  0.1518  0.3258 -0.3356
    3SAPS  H17X  394   5.720   5.048   4.459  2.7406 -0.4175 -0.1603
    3SAPS  H17Y  395   5.697   4.959   4.297  1.0932  2.3232 -0.2314
    3SAPS  C318  396   5.797   4.847   4.465 -0.4641  0.6946  0.7829
    3SAPS  H18X  397   5.899   4.862   4.423 -0.3233  0.4401  1.0411
    3SAPS  H18Y  398   5.764   4.742   4.447 -1.1973  0.7850  1.5713
    3SAPS  H18Z  399   5.798   4.853   4.576 -0.1926 -0.9544  0.8842
    4SAPS     N  400   2.528   2.388   6.267 -0.1149  0.3983 -1.1601
    4SAPS   HN1  401   2.468   2.425   6.190  0.8783  1.0655 -1.6171
    4SAPS   HN2  402   2.568   2.461   6.329 -0.1276 -1.6635  1.3485
    4SAPS   HN3  403   2.595   2.317   6.231 -1.1666 -1.2331  0.0447
    4SAPS   C12  404   2.441   2.302   6.357  0.2079 -0.1727 -0.2175
    4SAPS  H12A  405   2.509   2.249   6.422 -0.8855 -1.1471  0.1627
    4SAPS   C13  406   2.342   2.380   6.448 -0.1397 -0.4969  0.0515
    4SAPS  O13A  407   2.335   2.504   6.442 -0.1052  0.1265  0.0995
    4SAPS  O13B  408   2.257   2.309   6.510  0.1459  0.6549  0.1275
    4SAPS   C11  409   2.353   2.201   6.267 -0.4326  0.1213 -0.7192
    4SAPS  H11A  410   2.275   2.259   6.213 -1.5366  1.2730  1.9709
    4SAPS  H11B  411   2.298   2.132   6.335 -1.8906  1.9065 -0.0352
    4SAPS     P  412   2.387   1.981   6.129  0.1215  0.3645 -0.5306
    4SAPS   O13  413   2.440   1.882   6.220  0.0888  0.4506  0.0303
    4SAPS   O14  414   2.244   1.985   6.103  0.0156 -0.0226 -0.1875
    4SAPS   O12  415   2.431   2.120   6.181 -0.4666 -0.6474 -0.4247
    4SAPS   O11  416   2.467   1.970   5.988 -0.3576 -0.0919 -0.4801
    4SAPS    C1  417   2.560   2.082   5.957 -0.6474  0.0396 -0.5108
    4SAPS    HA  418   2.615   2.121   6.045 -1.2965 -0.8956  0.3348
    4SAPS    HB  419   2.635   2.044   5.884 -0.0866 -0.4735  0.3169
    4SAPS    C2  420   2.492   2.206   5.901  0.2951 -0.1774  0.2851
    4SAPS    HS  421   2.401   2.222   5.964  0.9046  0.0632  1.1079
    4SAPS   O21  422   2.458   2.185   5.769 -0.3786  0.1932  0.3523
    4SAPS   C21  423   2.343   2.226   5.722  0.1426  0.3088  0.0422
    4SAPS   O22  424   2.261   2.291   5.789  0.1790  0.0665 -0.1194
    4SAPS   C22  425   2.348   2.202   5.568 -0.3167 -0.1423 -0.5256
    4SAPS   H2R  426   2.447   2.229   5.526 -0.3072 -1.0184 -1.0780
    4SAPS   H2S  427   2.343   2.092   5.559  1.6640 -0.5987  2.9398
    4SAPS    C3  428   2.579   2.334   5.899  0.5052 -0.1502 -0.7741
    4SAPS    HX  429   2.620   2.359   5.999  3.9873  0.6812 -2.3131
    4SAPS    HY  430   2.509   2.415   5.869 -1.4128 -1.3981  0.2383
    4SAPS   O31  431   2.691   2.320   5.807  0.3540  0.0250 -0.2868
    4SAPS   C31  432   2.767   2.426   5.793  0.6282 -0.7195 -0.1744
    4SAPS   O32  433   2.748   2.534   5.846 -0.0423  0.0245 -0.5400
    4SAPS   C32  434   2.873   2.390   5.682  0.1583  0.1204 -0.2688
    4SAPS   H2X  435   2.890   2.280   5.671 -1.5301 -0.2791  0.8824
    4SAPS   H2Y  436   2.966   2.442   5.710  0.1551  1.4454 -2.5809
    4SAPS   C23  437   2.233   2.261   5.497 -0.2869  0.4416 -0.3286
    4SAPS   H3R  438   2.221   2.371   5.496  0.0061  0.4768 -1.4657
    4SAPS   H3S  439   2.148   2.244   5.567 -1.4655 -1.2881 -2.1128
    4SAPS   C24  440   2.201   2.200   5.355 -0.0259  0.8574  0.1755
    4SAPS   H4R  441   2.092   2.209   5.334 -0.2061 -0.0576  0.7082
    4SAPS   H4S  442   2.209   2.090   5.366  2.0356  1.0687  1.0510
    4SAPS   C25  443   2.288   2.242   5.238  0.1732  0.1472 -0.2363
    4SAPS   H5R  444   2.281   2.351   5.223 -2.5845  0.3701  2.0740
    4SAPS   C26  445   2.359   2.157   5.165 -0.4593 -0.8181 -1.1440
    4SAPS   H6R  446   2.417   2.191   5.078 -1.2868  1.8904 -0.6563
    4SAPS   C27  447   2.375   2.002   5.181  0.0641 -0.6998  0.3496
    4SAPS   H7R  448   2.383   1.974   5.288  0.8931 -0.3180  0.4003
    4SAPS   H7S  449   2.469   1.962   5.137  0.0585  3.0562 -3.3875
    4SAPS   C28  450   2.259   1.924   5.115 -0.6545 -0.0920 -0.4202
    4SAPS   H8R  451   2.162   1.923   5.167 -0.4363 -1.1046 -0.0232
    4SAPS   C29  452   2.258   1.883   4.984 -0.1627 -0.7866 -0.2524
    4SAPS   H9R  453   2.156   1.864   4.948 -0.0740  0.0451 -0.9708
    4SAPS  C210  454   2.367   1.901   4.879 -0.4875 -0.5166  0.1472
    4SAPS  H10R  455   2.441   1.977   4.911 -2.4452  2.4166 -1.9322
    4SAPS  H10S  456   2.326   1.933   4.780  0.2502  1.0711  0.3522
    4SAPS  C211  457   2.428   1.767   4.850 -0.0161  0.2653  0.4025
    4SAPS  H11R  458   2.374   1.681   4.891 -1.2034 -0.0962 -1.8472
    4SAPS  C212  459   2.544   1.744   4.782 -0.1530 -0.1546  0.4873
    4SAPS  H12R  460   2.575   1.641   4.757 -0.4947  0.3930 -2.4104
    4SAPS  C213  461   2.635   1.852   4.714  0.4220  0.8800 -1.0374
    4SAPS  H13R  462   2.607   1.957   4.737 -1.3787 -0.1201  1.4866
    4SAPS  H13S  463   2.617   1.849   4.604 -3.3468  0.2756 -0.4838
    4SAPS  C214  464   2.782   1.825   4.748 -0.0225  0.0612  0.0413
    4SAPS  H14R  465   2.816   1.746   4.680 -1.4247  1.1596 -2.0088
    4SAPS  C215  466   2.858   1.884   4.843  0.7523  0.0411  0.6140
    4SAPS  H15R  467   2.966   1.864   4.836  1.0190  1.7341 -0.4575
    4SAPS  C216  468   2.812   1.988   4.935 -0.6583  0.4741  0.3601
    4SAPS  H16R  469   2.705   1.972   4.962 -0.4164 -2.5253 -0.2001
    4SAPS  H16S  470   2.826   2.087   4.889  1.4382  0.4099  0.8369
    4SAPS  C217  471   2.896   1.987   5.068  0.2699  0.2018  0.4289
    4SAPS  H17R  472   2.919   1.885   5.106 -0.5628 -0.7820 -1.5860
    4SAPS  H17S  473   2.833   2.043   5.141 -0.1147  2.8313 -1.8336
    4SAPS  C218  474   3.017   2.076   5.046  0.3175 -0.2488 -1.0611
    4SAPS  H18R  475   2.985   2.175   5.009 -1.2946 -0.1288  0.5235
    4SAPS  H18S  476   3.076   2.036   4.961 -0.8553  0.0713 -2.0440
    4SAPS  C219  477   3.097   2.104   5.167  0.7213 -0.5133  0.7429
    4SAPS  H19R  478   3.189   2.161   5.141 -0.6407  1.7130  0.6852
    4SAPS  H19S  479   3.117   2.010   5.222  0.2199 -1.3674 -0.5300
    4SAPS  C220  480   3.024   2.195   5.267 -0.1385 -0.3774  0.5797
    4SAPS  H20R  481   3.000   2.290   5.215 -1.1417 -0.7763  0.2961
    4SAPS  H20S  482   3.080   2.205   5.362  1.8870 -3.1341 -0.2460
    4SAPS  H20T  483   2.923   2.155   5.289  0.7772 -3.0530  0.1452
    4SAPS   C33  484   2.821   2.435   5.543  0.5006 -0.5219 -0.0948
    4SAPS   H3X  485   2.914   2.440   5.482  1.1372 -1.5488  0.7580
    4SAPS   H3Y  486   2.787   2.539   5.562  1.8171  0.1891 -1.5269
    4SAPS   C34  487   2.713   2.342   5.484  0.1630  0.3685  0.5476
    4SAPS   H4X  488   2.634   2.315   5.558 -1.5674 -1.0445 -1.7541
    4SAPS   H4Y  489   2.750   2.240   5.459 -4.1390 -1.3102  0.5799
    4SAPS   C35  490   2.638   2.422   5.373 -0.4123  0.6415 -0.0439
    4SAPS   H5X  491   2.591   2.511   5.419 -0.4866 -1.0211  3.2608
    4SAPS   H5Y  492   2.555   2.362   5.329 -1.2984 -0.1944  2.6634
    4SAPS   C36  493   2.732   2.467   5.264  0.5670 -0.7386  0.3888
    4SAPS   H6X  494   2.772   2.378   5.212 -3.0460 -4.1696  3.1738
    4SAPS   H6Y  495   2.819   2.533   5.285 -0.1746 -0.2533  2.0057
    4SAPS   C37  496   2.643   2.553   5.160 -0.2371 -0.2287 -0.3108
    4SAPS   H7X  497   2.705   2.618   5.094 -0.9572  0.0944 -0.6799
    4SAPS   H7Y  498   2.581   2.625   5.217 -0.6061  0.8235 -1.9903
    4SAPS   C38  499   2.557   2.471   5.059  0.1240 -0.3675  0.7790
    4SAPS   H8X  500   2.520   2.541   4.980 -1.3641 -3.1450 -1.0804
    4SAPS   H8Y  501   2.469   2.432   5.113 -0.2970 -4.4302 -2.5440
    4SAPS   C39  502   2.629   2.357   4.989 -0.1831  0.2198  0.2418
    4SAPS   H9X  503   2.631   2.266   5.052  1.6029  1.2483  1.7479
    4SAPS   H9Y  504   2.737   2.385   4.982 -0.1700  0.9382  2.8027
    4SAPS  C310  505   2.577   2.341   4.846  0.0770 -0.3063  1.1496
    4SAPS  H10X  506   2.467   2.330   4.851  0.0077  0.7117  2.0688
    4SAPS  H10Y  507   2.616   2.243   4.810 -0.5371 -1.1400  2.7309
    4SAPS  C311  508   2.611   2.451   4.751  0.3177 -0.0462  0.0178
    4SAPS  H11X  509   2.719   2.475   4.761  0.0470  0.3424  2.3275
    4SAPS  H11Y  510   2.561   2.549   4.767 -1.5213 -0.6226 -2.0906
    4SAPS  C312  511   2.576   2.434   4.599  0.5521  0.2687  0.0768
    4SAPS  H12X  512   2.467   2.451   4.587  0.7919  1.4990 -0.5049
    4SAPS  H12Y  513   2.599   2.331   4.564 -4.5640 -1.4016  1.1621
    4SAPS  C313  514   2.650   2.540   4.515 -0.5655 -0.4641 -0.9145
    4SAPS  H13X  515   2.756   2.515   4.537 -0.3303  2.2812  1.3910
    4SAPS  H13Y  516   2.624   2.639   4.558  0.5619  0.4292 -2.2520
    4SAPS  C314  517   2.625   2.537   4.361  1.0143  0.1997  0.3706
    4SAPS  H14X  518   2.651   2.437   4.321 -0.2140 -0.3878  1.0089
    4SAPS  H14Y  519   2.676   2.609   4.293 -0.3451  0.4281 -0.4312
    4SAPS  C315  520   2.480   2.543   4.320 -0.1373  0.5482 -0.0903
    4SAPS  H15X  521   2.439   2.645   4.337 -0.3345  0.5175 -0.3841
    4SAPS  H15Y  522   2.414   2.478   4.381 -0.1246  0.0071 -0.6505
    4SAPS  C316  523   2.454   2.492   4.178 -0.3310 -0.2446 -0.1467
    4SAPS  H16X  524   2.491   2.388   4.161  0.6004 -0.0068  0.4273
    4SAPS  H16Y  525   2.512   2.546   4.100 -0.3029 -0.5739 -0.3545
    4SAPS  C317  526   2.311   2.495   4.137 -0.4178 -0.3793 -0.1093
    4SAPS  H17X  527   2.298   2.605   4.131  1.9687  0.0762  2.3529
    4SAPS  H17Y  528   2.252   2.458   4.224  0.7357  1.2605  1.4197
    4SAPS  C318  529   2.284   2.413   4.017 -0.1045  0.5833  0.5419
    4SAPS  H18X  530   2.197   2.446   3.956 -0.0411 -1.1648 -0.5245
    4SAPS  H18Y  531   2.258   2.307   4.039  0.4357  0.7814  2.2511
    4SAPS  H18Z  532   2.370   2.417   3.947 -0.9533  0.0052 -0.5481
    5SAPS     N  533   6.120   4.763   6.193  0.1205 -0.1755  0.4541
    5SAPS   HN1  534   6.176   4.848   6.216  1.2517 -1.0179  0.8284
    5SAPS   HN2  535   6.137   4.744   6.092  1.6738 -0.0853  0.6881
    5SAPS   HN3  536   6.018   4.786   6.190  0.1343 -0.1423  0.1542
    5SAPS   C12  537   6.147   4.638   6.264  0.0386 -0.3362 -1.2895
    5SAPS  H12A  538   6.253   4.621   6.256  0.2516  0.5767 -0.4156
    5SAPS   C13  539   6.120   4.647   6.418  1.1245  0.0291  0.2592
    5SAPS  O13A  540   6.085   4.761   6.467  0.1380 -0.1933 -0.7585
    5SAPS  O13B  541   6.137   4.539   6.481  0.2807  1.0204 -0.5011
    5SAPS   C11  542   6.064   4.533   6.195 -0.4367 -0.6188  0.3263
    5SAPS  H11A  543   5.956   4.559   6.191 -0.4417 -0.7079 -0.1462
    5SAPS  H11B  544   6.069   4.437   6.251 -0.1210  0.5035  2.2441
    5SAPS     P  545   6.124   4.372   5.988 -0.2619 -0.0405  0.4695
    5SAPS   O13  546   6.255   4.370   5.915 -0.2807  0.2267 -0.1396
    5SAPS   O14  547   6.107   4.271   6.088  0.4357 -0.2355 -0.2929
    5SAPS   O12  548   6.116   4.518   6.060 -0.9861 -0.0765 -0.1072
    5SAPS   O11  549   6.002   4.381   5.891  0.7152  0.0987 -0.0941
    5SAPS    C1  550   5.890   4.451   5.933 -0.2934 -0.5306 -0.0698
    5SAPS    HA  551   5.853   4.400   6.025 -0.2305  0.1722  0.3488
    5SAPS    HB  552   5.919   4.556   5.955 -0.8428  0.0606 -2.1332
    5SAPS    C2  553   5.785   4.450   5.820  0.5369 -0.9252 -0.6188
    5SAPS    HS  554   5.688   4.478   5.867 -1.1771 -1.3820 -3.7629
    5SAPS   O21  555   5.776   4.326   5.756  0.1381  0.4735 -0.6348
    5SAPS   C21  556   5.740   4.222   5.824 -0.6944 -0.4072 -0.5693
    5SAPS   O22  557   5.696   4.222   5.939 -0.7993  0.6316 -0.0117
    5SAPS   C22  558   5.754   4.099   5.740 -0.1700  0.4185  0.4279
    5SAPS   H2R  559   5.753   4.009   5.805 -2.4707  0.1988  0.1494
    5SAPS   H2S  560   5.655   4.095   5.689  0.0123 -1.9033  0.2066
    5SAPS    C3  561   5.821   4.553   5.710 -0.3716  0.1289  0.2009
    5SAPS    HX  562   5.831   4.649   5.764  1.7780 -0.8926  1.6972
    5SAPS    HY  563   5.735   4.560   5.639  1.0967  1.0667 -1.5310
    5SAPS   O31  564   5.930   4.504   5.633  0.9923 -0.9602  1.2289
    5SAPS   C31  565   6.024   4.596   5.614  0.0237 -0.1616  0.4120
    5SAPS   O32  566   6.039   4.700   5.677  0.1144 -0.0098 -0.4337
    5SAPS   C32  567   6.110   4.555   5.499  0.0580  0.3868  0.4621
    5SAPS   H2X  568   6.130   4.446   5.491 -0.2997  0.3345  0.2856
    5SAPS   H2Y  569   6.210   4.605   5.500 -0.5140  1.5531  0.4670
    5SAPS   C23  570   5.869   4.109   5.639  0.2738  0.2527 -0.3298
    5SAPS   H3R  571   5.958   4.120   5.704 -0.4513 -1.3810  0.9691
    5SAPS   H3S  572   5.877   4.193   5.566  0.8265  1.0808  0.6710
    5SAPS   C24  573   5.887   3.977   5.555  0.9368  0.3198  0.1456
    5SAPS   H4R  574   5.901   3.885   5.617  1.2838  1.6932  2.1633
    5SAPS   H4S  575   5.986   3.999   5.509  0.2942  0.9758 -0.9319
    5SAPS   C25  576   5.777   3.961   5.454 -0.2156  0.4529 -0.3892
    5SAPS   H5R  577   5.678   3.937   5.495 -0.2856  0.6267 -0.4561
    5SAPS   C26  578   5.781   3.984   5.322  0.1534  0.3222 -0.5929
    5SAPS   H6R  579   5.689   3.969   5.264 -0.5837 -1.5464  0.9948
    5SAPS   C27  580   5.911   4.028   5.248 -0.5706 -0.6369 -0.0315
    5SAPS   H7R  581   5.895   3.986   5.147  1.2144 -0.1036 -0.5671
    5SAPS   H7S  582   6.001   3.972   5.282 -1.0702 -0.7545  1.1142
    5SAPS   C28  583   5.936   4.178   5.256 -0.2236 -0.5891  0.2545
    5SAPS   H8R  584   5.886   4.241   5.332  0.6222 -0.9236  1.1052
    5SAPS   C29  585   5.980   4.245   5.151 -0.3672  0.1984 -0.1721
    5SAPS   H9R  586   5.987   4.354   5.165  1.5296  0.1083 -0.2010
    5SAPS  C210  587   6.016   4.192   5.015 -0.3692 -0.2413  0.0670
    5SAPS  H10R  588   5.992   4.084   5.010  0.6528 -0.4560 -0.2086
    5SAPS  H10S  589   6.126   4.207   5.007 -0.2084 -1.5002 -0.0579
    5SAPS  C211  590   5.939   4.276   4.911 -0.9831  0.0447 -0.8898
    5SAPS  H11R  591   5.835   4.304   4.934 -0.3069  1.4560  0.5663
    5SAPS  C212  592   5.995   4.321   4.795  0.5118 -0.6825  0.6512
    5SAPS  H12R  593   5.937   4.360   4.711 -0.0407  0.1219  1.3993
    5SAPS  C213  594   6.141   4.294   4.754  0.1481 -0.2615 -0.2012
    5SAPS  H13R  595   6.148   4.281   4.644  0.7333 -1.3404 -0.0349
    5SAPS  H13S  596   6.169   4.197   4.798 -0.3594  0.4768  1.8123
    5SAPS  C214  597   6.235   4.407   4.813  0.1168  0.6810 -0.5220
    5SAPS  H14R  598   6.197   4.454   4.905 -2.3471 -1.2037 -0.5259
    5SAPS  C215  599   6.336   4.470   4.751 -0.3148  0.3562 -0.6850
    5SAPS  H15R  600   6.395   4.545   4.805 -0.8021  1.6418 -1.9030
    5SAPS  C216  601   6.382   4.442   4.609 -0.2963  0.7279  0.4856
    5SAPS  H16R  602   6.396   4.531   4.544  0.0959  0.5509  0.3268
    5SAPS  H16S  603   6.313   4.374   4.554 -1.5908  1.4807  1.1756
    5SAPS  C217  604   6.526   4.377   4.620 -0.3178  0.7146 -0.4890
    5SAPS  H17R  605   6.521   4.281   4.676  1.1283 -0.5946 -2.5113
    5SAPS  H17S  606   6.595   4.451   4.665 -0.2601  0.8329 -0.7657
    5SAPS  C218  607   6.574   4.340   4.482  0.4864  0.3334  0.5803
    5SAPS  H18R  608   6.488   4.293   4.429 -0.9735  0.2646  2.9423
    5SAPS  H18S  609   6.646   4.260   4.511 -1.6964 -1.1292  2.0909
    5SAPS  C219  610   6.641   4.457   4.400 -0.5621 -0.2432  1.3866
    5SAPS  H19R  611   6.715   4.510   4.463 -1.9792  1.8840  1.2904
    5SAPS  H19S  612   6.557   4.523   4.369  1.0083  0.9977 -0.2951
    5SAPS  C220  613   6.718   4.411   4.275  0.5299  0.0046 -0.3329
    5SAPS  H20R  614   6.785   4.333   4.317  1.0064  0.3257 -0.4939
    5SAPS  H20S  615   6.776   4.492   4.225 -0.9635  0.2248 -1.7361
    5SAPS  H20T  616   6.654   4.359   4.201 -0.3698  1.1479 -0.3676
    5SAPS   C33  617   6.063   4.599   5.363  0.2715 -0.5519  0.1111
    5SAPS   H3X  618   6.005   4.693   5.357 -1.0123 -1.4312 -1.4061
    5SAPS   H3Y  619   6.000   4.520   5.318 -2.6961  1.8730 -0.1814
    5SAPS   C34  620   6.185   4.613   5.275 -0.0926 -0.8755 -0.4881
    5SAPS   H4X  621   6.239   4.517   5.257 -0.5665 -1.2076 -0.1526
    5SAPS   H4Y  622   6.261   4.685   5.311 -0.6944  0.1650 -1.2653
    5SAPS   C35  623   6.149   4.665   5.134 -0.7718  0.2094 -0.0189
    5SAPS   H5X  624   6.089   4.758   5.144  1.0877  1.3412  0.8677
    5SAPS   H5Y  625   6.082   4.585   5.096 -2.2485  1.1183  0.6344
    5SAPS   C36  626   6.263   4.701   5.045 -0.1590  0.1234 -0.5935
    5SAPS   H6X  627   6.339   4.623   5.024  1.1698 -0.5287  5.6944
    5SAPS   H6Y  628   6.324   4.777   5.097  1.2548 -0.5155 -1.2847
    5SAPS   C37  629   6.228   4.767   4.913 -0.1460 -0.4816 -0.1313
    5SAPS   H7X  630   6.149   4.842   4.936  0.9256  1.0497 -1.3753
    5SAPS   H7Y  631   6.187   4.690   4.845  0.0901 -0.6836 -0.0448
    5SAPS   C38  632   6.340   4.850   4.842  0.3127 -0.3436 -0.1882
    5SAPS   H8X  633   6.443   4.810   4.842  0.7761  0.7946 -1.6022
    5SAPS   H8Y  634   6.357   4.932   4.916  3.9973 -1.6988  0.5844
    5SAPS   C39  635   6.311   4.888   4.698  0.3336 -0.2924  0.0295
    5SAPS   H9X  636   6.371   4.979   4.676 -1.6115  0.8582 -0.5461
    5SAPS   H9Y  637   6.205   4.907   4.674  0.4999  0.8888  0.1878
    5SAPS  C310  638   6.343   4.789   4.588 -0.4595 -1.0440 -0.0941
    5SAPS  H10X  639   6.254   4.723   4.585  0.3899 -2.1926 -0.6086
    5SAPS  H10Y  640   6.427   4.722   4.620 -0.8165 -1.0550  0.8143
    5SAPS  C311  641   6.377   4.841   4.452 -0.5768 -0.8052 -1.1317
    5SAPS  H11X  642   6.397   4.770   4.369  2.2048 -1.1692 -0.2183
    5SAPS  H11Y  643   6.472   4.897   4.466  0.3590 -2.3222 -1.4030
    5SAPS  C312  644   6.260   4.935   4.399 -0.6079 -0.7521  0.1187
    5SAPS  H12X  645   6.238   5.026   4.458 -0.1090 -0.1393 -0.6436
    5SAPS  H12Y  646   6.172   4.866   4.401 -2.2372  1.2965  1.1110
    5SAPS  C313  647   6.287   4.973   4.260 -0.3703 -0.0864  0.2081
    5SAPS  H13X  648   6.320   4.885   4.200 -0.3833 -0.0065  0.0843
    5SAPS  H13Y  649   6.370   5.046   4.246 -0.0238 -0.6559 -0.7689
    5SAPS  C314  650   6.161   5.026   4.190  0.6128 -0.3514 -0.4156
    5SAPS  H14X  651   6.076   4.961   4.221 -0.1178 -0.3234 -2.2897
    5SAPS  H14Y  652   6.173   5.022   4.079 -2.4422 -0.2302 -0.7786
    5SAPS  C315  653   6.143   5.172   4.228  0.1937 -1.2074 -0.2265
    5SAPS  H15X  654   6.228   5.225   4.180 -1.1409  1.3969  0.1520
    5SAPS  H15Y  655   6.141   5.180   4.339  1.3711 -0.3647 -0.2595
    5SAPS  C316  656   6.005   5.231   4.192 -0.6703 -0.6310 -0.3701
    5SAPS  H16X  657   5.938   5.205   4.277 -4.1393  0.2646 -2.7495
    5SAPS  H16Y  658   5.975   5.179   4.099  2.5659 -1.1769 -1.1645
    5SAPS  C317  659   5.993   5.386   4.168 -0.1686  0.8670  0.2828
    5SAPS  H17X  660   6.073   5.429   4.104  0.7930  2.0718  2.2263
    5SAPS  H17Y  661   6.025   5.424   4.267  0.6142  1.8339 -0.3324
    5SAPS  C318  662   5.851   5.426   4.133  0.3283  0.1983 -0.3478
    5SAPS  H18X  663   5.836   5.533   4.111  1.0935  0.2737 -0.5235
    5SAPS  H18Y  664   5.789   5.402   4.222 -1.3892  0.9577 -1.3091
    5SAPS  H18Z  665   5.802   5.371   4.050  0.7956 -0.4511 -0.1988
    6SAPS     N  666   1.546   5.374   6.359  0.3540 -0.4765  0.2698
    6SAPS   HN1  667   1.582   5.279   6.383 -0.3133 -0.5654  0.9358
    6SAPS   HN2  668   1.578   5.400   6.263 -0.8274  0.3122  0.0889
    6SAPS   HN3  669   1.584   5.443   6.427  1.1640  0.2927 -0.9553
    6SAPS   C12  670   1.394   5.360   6.358  0.0432  0.2566 -0.2930
    6SAPS  H12A  671   1.357   5.282   6.294  0.1376 -0.2943  0.3219
    6SAPS   C13  672   1.340   5.322   6.500  0.3608 -0.2322 -0.2824
    6SAPS  O13A  673   1.415   5.312   6.603 -0.4579 -0.2006  0.0275
    6SAPS  O13B  674   1.214   5.323   6.517  0.2001 -0.0366 -0.1413
    6SAPS   C11  675   1.329   5.491   6.308  0.1710 -0.3758  0.5089
    6SAPS  H11A  676   1.352   5.573   6.379  2.9678  0.3985 -1.2322
    6SAPS  H11B  677   1.220   5.473   6.317  0.2141 -0.5643  0.6538
    6SAPS     P  678   1.407   5.640   6.115  0.2226  0.3076 -0.0977
    6SAPS   O13  679   1.291   5.729   6.142  0.2328 -0.3395 -0.7529
    6SAPS   O14  680   1.538   5.677   6.170 -0.3557 -0.3761 -0.5456
    6SAPS   O12  681   1.362   5.505   6.174 -0.2793 -0.1907 -0.6731
    6SAPS   O11  682   1.420   5.623   5.956 -0.5652 -0.7178 -0.0230
    6SAPS    C1  683   1.392   5.506   5.880 -0.2600 -0.0779  0.1282
    6SAPS    HA  684   1.484   5.444   5.868 -1.2496 -1.6764  0.6410
    6SAPS    HB  685   1.306   5.448   5.919 -0.0102 -0.3165  0.3255
    6SAPS    C2  686   1.349   5.549   5.735  0.0527  0.0605  0.2792
    6SAPS    HS  687   1.300   5.458   5.694  0.5341 -0.3512  0.6197
    6SAPS   O21  688   1.462   5.593   5.658  0.1872  0.2215 -0.6542
    6SAPS   C21  689   1.455   5.571   5.530 -0.1514  0.5265 -0.0851
    6SAPS   O22  690   1.372   5.508   5.469  0.7228 -0.3324 -0.5324
    6SAPS   C22  691   1.566   5.650   5.451 -0.0377  0.3190  0.1567
    6SAPS   H2R  692   1.664   5.631   5.499  1.3433  1.5087 -2.0908
    6SAPS   H2S  693   1.570   5.596   5.353  0.9730  0.7700 -0.0582
    6SAPS    C3  694   1.237   5.666   5.744 -1.3543 -0.1335 -0.8395
    6SAPS    HX  695   1.289   5.758   5.776  0.6906 -1.2451 -0.9321
    6SAPS    HY  696   1.165   5.639   5.825  0.1329  0.2617  0.6276
    6SAPS   O31  697   1.176   5.688   5.612  0.3025  0.0409 -0.7719
    6SAPS   C31  698   1.058   5.640   5.601  0.3989  0.8730  0.5646
    6SAPS   O32  699   0.979   5.623   5.692 -0.1350  0.5148 -0.0782
    6SAPS   C32  700   1.011   5.609   5.457 -0.2343 -0.0048 -0.2756
    6SAPS   H2X  701   1.099   5.651   5.405 -1.3674  0.2486 -2.0630
    6SAPS   H2Y  702   0.923   5.675   5.441  0.8721  1.4374 -0.4771
    6SAPS   C23  703   1.526   5.797   5.436  0.2330  0.1598 -0.4439
    6SAPS   H3R  704   1.621   5.842   5.399  1.8005 -0.9649  2.0921
    6SAPS   H3S  705   1.515   5.841   5.537  0.3176  0.6539 -0.6490
    6SAPS   C24  706   1.411   5.846   5.341 -0.1017 -0.0571  0.6366
    6SAPS   H4R  707   1.401   5.956   5.347  0.9221  0.2736 -2.6648
    6SAPS   H4S  708   1.308   5.815   5.368  0.4112 -1.8913  0.5868
    6SAPS   C25  709   1.426   5.812   5.195 -0.0054 -0.0071  0.6493
    6SAPS   H5R  710   1.399   5.708   5.173  0.7976  0.1364 -1.1008
    6SAPS   C26  711   1.476   5.888   5.099  0.1125 -0.1353 -0.0377
    6SAPS   H6R  712   1.488   5.855   4.995  0.8971  1.4943 -0.4850
    6SAPS   C27  713   1.527   6.032   5.116 -0.1024  0.1319  0.2246
    6SAPS   H7R  714   1.619   6.037   5.054 -0.0840  0.2538  0.2633
    6SAPS   H7S  715   1.572   6.050   5.216 -1.3303  3.5350  0.2111
    6SAPS   C28  716   1.435   6.151   5.085  0.0601  0.2969  0.2304
    6SAPS   H8R  717   1.390   6.196   5.175 -1.6509 -2.1494  0.6526
    6SAPS   C29  718   1.388   6.189   4.969  0.9578 -0.4031 -0.4354
    6SAPS   H9R  719   1.317   6.273   4.968  2.3669  0.8430  1.3337
    6SAPS  C210  720   1.418   6.126   4.838 -0.2033 -0.4993  0.3672
    6SAPS  H10R  721   1.472   6.029   4.844  0.7780  0.1470  2.4526
    6SAPS  H10S  722   1.490   6.195   4.789 -0.4752 -0.1347  0.4777
    6SAPS  C211  723   1.292   6.104   4.759 -0.1737 -0.4881 -0.7605
    6SAPS  H11R  724   1.196   6.116   4.811  1.1209  1.2149  1.3336
    6SAPS  C212  725   1.296   6.073   4.633  0.4354 -0.5664 -0.0314
    6SAPS  H12R  726   1.199   6.059   4.582  0.9806 -0.1883 -1.2037
    6SAPS  C213  727   1.418   6.045   4.549  0.8518 -0.5104 -0.4202
    6SAPS  H13R  728   1.437   5.940   4.519 -1.0502 -0.9165 -0.2481
    6SAPS  H13S  729   1.513   6.079   4.598  0.2110 -1.0794  1.2639
    6SAPS  C214  730   1.408   6.121   4.416 -0.4385 -0.7227  0.0512
    6SAPS  H14R  731   1.343   6.210   4.408 -1.6239 -1.6861 -1.2521
    6SAPS  C215  732   1.487   6.092   4.321 -0.1521 -0.6441  0.5711
    6SAPS  H15R  733   1.480   6.159   4.234 -1.0026 -1.9439 -0.3832
    6SAPS  C216  734   1.596   5.985   4.324  0.2895  0.6798  0.5848
    6SAPS  H16R  735   1.613   5.942   4.425  0.5629 -1.0307 -0.1699
    6SAPS  H16S  736   1.695   6.026   4.297  1.1489 -0.8894  1.2851
    6SAPS  C217  737   1.562   5.877   4.214 -0.1745  0.1310  0.2774
    6SAPS  H17R  738   1.468   5.824   4.241 -1.6763  3.6717  2.4376
    6SAPS  H17S  739   1.647   5.806   4.218 -1.2578 -1.0872  2.4539
    6SAPS  C218  740   1.540   5.931   4.070  1.2776 -0.0065 -0.6431
    6SAPS  H18R  741   1.471   6.018   4.077  0.5745 -0.5873 -0.1984
    6SAPS  H18S  742   1.486   5.852   4.014 -0.7253  1.6781 -1.1766
    6SAPS  C219  743   1.666   5.975   3.999  0.1537  0.0101 -0.6549
    6SAPS  H19R  744   1.754   5.910   4.016  1.8407  2.1580 -0.8661
    6SAPS  H19S  745   1.691   6.073   4.045 -1.2784 -0.2046  0.6228
    6SAPS  C220  746   1.644   5.985   3.849 -0.4472 -0.7543  0.2942
    6SAPS  H20R  747   1.570   6.067   3.833  0.0758 -0.8617 -2.8507
    6SAPS  H20S  748   1.614   5.887   3.806 -1.3365  0.6426 -2.4005
    6SAPS  H20T  749   1.742   6.011   3.804 -1.0687  0.3727 -0.4477
    6SAPS   C33  750   0.995   5.461   5.409 -0.7816  0.3893  0.2190
    6SAPS   H3X  751   0.920   5.420   5.480 -0.2851  0.2224  0.6513
    6SAPS   H3Y  752   1.090   5.405   5.422 -1.0903 -0.2483 -0.2692
    6SAPS   C34  753   0.923   5.443   5.276  0.1878  0.6071  0.0013
    6SAPS   H4X  754   0.835   5.510   5.271 -1.2113 -1.0116  2.1735
    6SAPS   H4Y  755   0.869   5.346   5.266 -0.2840  1.0659 -2.3484
    6SAPS   C35  756   1.016   5.462   5.155  1.0166 -0.1841 -0.3535
    6SAPS   H5X  757   1.085   5.548   5.171 -0.6163  1.4860 -2.0889
    6SAPS   H5Y  758   0.962   5.473   5.058  1.5742  1.5511 -0.4856
    6SAPS   C36  759   1.100   5.338   5.134  0.4601 -0.0667 -0.7165
    6SAPS   H6X  760   1.034   5.258   5.094 -1.6120  1.3270 -0.1647
    6SAPS   H6Y  761   1.142   5.298   5.229 -1.9086 -1.5595 -0.2350
    6SAPS   C37  762   1.218   5.347   5.034  0.3021  0.2694  0.3808
    6SAPS   H7X  763   1.171   5.356   4.934  0.2510 -1.0707  0.2795
    6SAPS   H7Y  764   1.259   5.245   5.041  0.8972  0.5467  1.0337
    6SAPS   C38  765   1.322   5.456   5.064 -0.3244  0.4170  0.3376
    6SAPS   H8X  766   1.360   5.423   5.163 -0.0085  2.0678  0.7685
    6SAPS   H8Y  767   1.275   5.557   5.070 -2.7454 -0.6685  0.5480
    6SAPS   C39  768   1.446   5.473   4.975 -0.7319  0.0895 -0.0290
    6SAPS   H9X  769   1.479   5.370   4.952 -1.2781  0.3238 -1.8778
    6SAPS   H9Y  770   1.522   5.536   5.028 -1.8418  1.1049  0.4017
    6SAPS  C310  771   1.411   5.540   4.841  0.0354  0.7701 -0.1064
    6SAPS  H10X  772   1.384   5.647   4.853 -1.1401  0.5743 -0.8686
    6SAPS  H10Y  773   1.328   5.486   4.791  2.0224 -2.0918 -0.4192
    6SAPS  C311  774   1.528   5.543   4.743 -0.2913  0.6186  0.3380
    6SAPS  H11X  775   1.548   5.438   4.713 -0.2873  1.0770 -1.3176
    6SAPS  H11Y  776   1.622   5.593   4.774 -1.1686  1.7039  1.3067
    6SAPS  C312  777   1.485   5.613   4.608  0.3027  0.3835  0.2010
    6SAPS  H12X  778   1.437   5.709   4.638 -0.0257  0.6625 -1.1918
    6SAPS  H12Y  779   1.401   5.554   4.566  1.0766  0.9590 -2.1919
    6SAPS  C313  780   1.597   5.621   4.504 -0.0267 -0.5880 -0.0376
    6SAPS  H13X  781   1.675   5.697   4.522 -0.5585  0.4976 -2.1499
    6SAPS  H13Y  782   1.554   5.658   4.409  0.3035  1.5958  0.6459
    6SAPS  C314  783   1.660   5.482   4.484 -0.9295  0.5422  0.2946
    6SAPS  H14X  784   1.588   5.397   4.477  1.2520 -1.5728  2.6867
    6SAPS  H14Y  785   1.714   5.455   4.577 -2.2045 -1.6969  0.4316
    6SAPS  C315  786   1.761   5.472   4.365  0.2779 -0.2806 -0.1082
    6SAPS  H15X  787   1.844   5.540   4.396 -0.4712  0.4120  0.3993
    6SAPS  H15Y  788   1.713   5.519   4.276 -1.5503 -1.8908  0.0030
    6SAPS  C316  789   1.795   5.323   4.336 -0.2745  0.4172  0.3356
    6SAPS  H16X  790   1.782   5.267   4.431 -0.4514 -1.0992 -0.5624
    6SAPS  H16Y  791   1.903   5.314   4.313 -0.5319 -0.9379 -0.4363
    6SAPS  C317  792   1.719   5.254   4.225  0.2750  0.1901 -0.3812
    6SAPS  H17X  793   1.724   5.308   4.128 -0.3422 -1.8628 -1.5821
    6SAPS  H17Y  794   1.613   5.239   4.256 -0.4417  2.8428 -1.4180
    6SAPS  C318  795   1.772   5.107   4.205 -0.3034  0.0357 -0.1418
    6SAPS  H18X  796   1.705   5.052   4.136 -1.6076 -0.6986  1.6481
    6SAPS  H18Y  797   1.772   5.048   4.300 -1.8658  3.4467  2.0657
    6SAPS  H18Z  798   1.876   5.102   4.167 -0.3999 -1.5650 -0.2582
    7SAPS     N  799   2.927   0.004   6.386 -0.1896 -0.5941  0.1134
    7SAPS   HN1  800   2.986   0.052   6.458  0.0416 -0.2102 -0.3297
    7SAPS   HN2  801   2.926   0.058   6.297 -2.8348  1.5655  1.3693
    7SAPS   HN3  802   2.827  -0.006   6.411 -0.4073  1.3864  0.1330
    7SAPS   C12  803   3.000  -0.121   6.345 -0.5631 -0.0490 -0.2022
    7SAPS  H12A  804   3.068  -0.097   6.265  2.5977 -2.6238  1.6358
    7SAPS   C13  805   3.075  -0.183   6.458 -0.0956 -0.5993 -0.3342
    7SAPS  O13A  806   3.087  -0.126   6.570  0.1060 -0.1380  0.3061
    7SAPS  O13B  807   3.138  -0.291   6.442  0.1887 -0.2418 -0.8447
    7SAPS   C11  808   2.890  -0.219   6.288 -0.1281 -0.1980 -0.3350
    7SAPS  H11A  809   2.816  -0.240   6.368  0.3197 -0.2242  0.0773
    7SAPS  H11B  810   2.939  -0.316   6.267 -0.5627  0.2127 -3.3945
    7SAPS     P  811   2.732  -0.243   6.096  0.2386  0.4395  0.1974
    7SAPS   O13  812   2.710  -0.383   6.151 -0.8304  0.2596 -0.3137
    7SAPS   O14  813   2.605  -0.170   6.071  0.0943  0.1551  1.0144
    7SAPS   O12  814   2.826  -0.163   6.177  0.2325  0.3737  0.0046
    7SAPS   O11  815   2.806  -0.267   5.963 -0.3241  0.3209  0.2407
    7SAPS    C1  816   2.904  -0.175   5.915 -0.5128  0.6176 -0.7934
    7SAPS    HA  817   2.972  -0.143   5.996 -0.6549  2.3203 -1.3299
    7SAPS    HB  818   2.966  -0.226   5.838 -2.4387 -0.1691 -1.8739
    7SAPS    C2  819   2.847  -0.050   5.842 -0.0357  0.1999  0.1935
    7SAPS    HS  820   2.781  -0.006   5.919  1.1360  1.1013  0.6927
    7SAPS   O21  821   2.757  -0.095   5.736 -0.2651 -0.3034 -0.1917
    7SAPS   C21  822   2.653  -0.022   5.706  1.4084 -0.4805 -0.6928
    7SAPS   O22  823   2.621   0.085   5.761  0.6179  0.1863  0.1748
    7SAPS   C22  824   2.590  -0.073   5.580  0.5281 -0.0031  0.7017
    7SAPS   H2R  825   2.647  -0.158   5.536 -0.2067 -0.9871  1.6308
    7SAPS   H2S  826   2.490  -0.108   5.614  1.1053 -1.0712  1.3312
    7SAPS    C3  827   2.952   0.046   5.789  0.5563  0.0776  0.0496
    7SAPS    HX  828   3.010   0.092   5.872  1.0291  0.1710 -0.3360
    7SAPS    HY  829   2.900   0.131   5.741  0.1119 -1.6173 -2.5552
    7SAPS   O31  830   3.031  -0.034   5.696  0.5470  0.0863  0.2178
    7SAPS   C31  831   3.016  -0.024   5.567  1.1883 -0.0448  0.2488
    7SAPS   O32  832   2.945   0.051   5.505  0.3141 -0.2391  0.0815
    7SAPS   C32  833   3.101  -0.130   5.499 -0.8135 -0.2520  0.3405
    7SAPS   H2X  834   3.083  -0.216   5.568  1.3302 -1.2181 -0.2746
    7SAPS   H2Y  835   3.200  -0.080   5.505 -1.5649  1.1477  1.4683
    7SAPS   C23  836   2.586   0.035   5.469  0.5321 -0.3124 -0.2832
    7SAPS   H3R  837   2.691   0.034   5.435  1.1334  1.3710  1.4594
    7SAPS   H3S  838   2.578   0.138   5.511  1.1283 -0.8447  1.1658
    7SAPS   C24  839   2.496   0.001   5.357 -0.6182 -0.0011 -0.1073
    7SAPS   H4R  840   2.518   0.062   5.267  1.5760 -0.1239  0.3345
    7SAPS   H4S  841   2.396   0.042   5.383  0.9136  3.1313  1.0915
    7SAPS   C25  842   2.494  -0.147   5.311  0.0820 -0.5098  0.1368
    7SAPS   H5R  843   2.469  -0.215   5.394  1.0287 -0.7423  0.2394
    7SAPS   C26  844   2.508  -0.193   5.186  0.6638  0.9519  0.8968
    7SAPS   H6R  845   2.509  -0.301   5.169  0.3727  0.9929  0.6077
    7SAPS   C27  846   2.528  -0.125   5.051 -0.7641  1.0853 -0.2867
    7SAPS   H7R  847   2.580  -0.029   5.069 -0.9701  1.2968 -0.8023
    7SAPS   H7S  848   2.424  -0.094   5.025 -1.6637 -1.7230 -0.1853
    7SAPS   C28  849   2.601  -0.222   4.962 -0.3184 -0.4880  0.0289
    7SAPS   H8R  850   2.563  -0.325   4.956  1.1843 -0.9659 -1.7104
    7SAPS   C29  851   2.702  -0.191   4.879 -0.3659 -0.2107  0.0599
    7SAPS   H9R  852   2.742  -0.265   4.808  0.3390  0.5758 -0.3736
    7SAPS  C210  853   2.759  -0.051   4.862 -0.4618  0.3976  0.0069
    7SAPS  H10R  854   2.674   0.021   4.857 -1.1431 -0.0490  4.1190
    7SAPS  H10S  855   2.795  -0.032   4.758  1.9255 -0.2310  0.6806
    7SAPS  C211  856   2.842  -0.001   4.973  0.3170  0.1133  0.0656
    7SAPS  H11R  857   2.797  -0.029   5.069  0.1433 -0.7709 -0.2681
    7SAPS  C212  858   2.961   0.063   4.970 -1.0887 -0.0037  0.5247
    7SAPS  H12R  859   3.013   0.089   5.063  1.6388  0.6315 -1.1180
    7SAPS  C213  860   3.032   0.093   4.842  0.6279 -0.3198  0.7193
    7SAPS  H13R  861   3.016   0.008   4.772  0.8617  0.5228 -0.3733
    7SAPS  H13S  862   3.143   0.087   4.848  0.6059 -1.1451  0.4671
    7SAPS  C214  863   2.988   0.224   4.784 -0.0781  0.1827  0.7732
    7SAPS  H14R  864   2.958   0.304   4.855  1.1328 -0.8084  2.4473
    7SAPS  C215  865   2.985   0.248   4.651  0.5091  0.6003  0.1002
    7SAPS  H15R  866   2.926   0.339   4.633 -1.2599 -0.8727 -1.7932
    7SAPS  C216  867   3.017   0.158   4.538  0.0678  0.9738  0.5700
    7SAPS  H16R  868   2.932   0.087   4.531  0.3422  0.8787 -2.2327
    7SAPS  H16S  869   3.119   0.117   4.560  0.7996  1.9934 -0.8578
    7SAPS  C217  870   3.019   0.225   4.396 -0.6357 -0.3219 -0.2820
    7SAPS  H17R  871   3.112   0.286   4.407  0.7569 -2.4898  0.4464
    7SAPS  H17S  872   2.929   0.286   4.374 -0.2211  1.7703  3.4829
    7SAPS  C218  873   3.028   0.111   4.292  0.3383 -0.0742 -0.6019
    7SAPS  H18R  874   2.932   0.054   4.292 -0.7918  1.6926  3.2028
    7SAPS  H18S  875   3.106   0.037   4.322  0.1584  0.4664  1.2117
    7SAPS  C219  876   3.050   0.165   4.148  0.5519 -0.1168  0.2319
    7SAPS  H19R  877   3.133   0.239   4.152  0.6291 -0.2753  1.5663
    7SAPS  H19S  878   2.957   0.213   4.111  0.8065 -1.3232 -2.0972
    7SAPS  C220  879   3.079   0.056   4.041 -0.7413  0.3040  0.3967
    7SAPS  H20R  880   2.992  -0.013   4.043  1.2543 -2.3405 -0.8450
    7SAPS  H20S  881   3.168  -0.008   4.055 -1.7849 -1.0479  0.8975
    7SAPS  H20T  882   3.077   0.097   3.937  3.4330  0.1132  0.1756
    7SAPS   C33  883   3.066  -0.162   5.356 -1.1027 -0.5270  0.1583
    7SAPS   H3X  884   3.142  -0.231   5.316 -0.4270 -0.7941  1.8845
    7SAPS   H3Y  885   3.076  -0.069   5.295  3.7239 -0.4826  0.8956
    7SAPS   C34  886   2.927  -0.213   5.321 -0.5167 -0.0336  0.0229
    7SAPS   H4X  887   2.904  -0.198   5.213 -2.6659  2.2460  0.7503
    7SAPS   H4Y  888   2.858  -0.152   5.383  1.3355  1.2444  0.8671
    7SAPS   C35  889   2.886  -0.361   5.333 -0.3242 -0.8310 -0.0489
    7SAPS   H5X  890   2.779  -0.379   5.308 -0.4249  0.1369 -0.3384
    7SAPS   H5Y  891   2.896  -0.390   5.440  1.2331  2.2807  0.7324
    7SAPS   C36  892   2.987  -0.457   5.254  0.5763  0.2520 -0.2646
    7SAPS   H6X  893   2.971  -0.554   5.305 -0.5626  0.1779 -0.7608
    7SAPS   H6Y  894   3.093  -0.430   5.277 -0.7964  2.4885  4.0737
    7SAPS   C37  895   2.958  -0.491   5.105  0.0458  0.3542 -0.9746
    7SAPS   H7X  896   2.853  -0.500   5.070 -0.8702 -0.4980  1.8328
    7SAPS   H7Y  897   3.004  -0.591   5.091  2.3801  1.0676  1.1277
    7SAPS   C38  898   3.015  -0.382   5.011  0.7475  0.1228 -0.0966
    7SAPS   H8X  899   3.117  -0.351   5.043  1.5985 -0.0847 -2.4896
    7SAPS   H8Y  900   2.950  -0.294   5.028 -1.6938 -1.6228 -0.0543
    7SAPS   C39  901   2.999  -0.414   4.863  0.1817 -0.1630 -0.4229
    7SAPS   H9X  902   2.893  -0.419   4.831  0.2881  1.0936 -0.9892
    7SAPS   H9Y  903   3.028  -0.520   4.851  1.9872  0.2280  0.3937
    7SAPS  C310  904   3.071  -0.323   4.763  0.1661 -0.3826 -0.1323
    7SAPS  H10X  905   3.181  -0.330   4.774 -0.0189 -1.2963  1.2045
    7SAPS  H10Y  906   3.042  -0.219   4.791  0.4998 -0.3156 -0.0266
    7SAPS  C311  907   3.033  -0.352   4.617 -0.6010  0.0015  0.5051
    7SAPS  H11X  908   2.930  -0.311   4.602 -0.3749  0.8997  1.3452
    7SAPS  H11Y  909   3.043  -0.460   4.593 -0.2856  0.3619 -1.0435
    7SAPS  C312  910   3.112  -0.268   4.514  0.5308 -0.2926 -0.7587
    7SAPS  H12X  911   3.220  -0.291   4.525  0.2315 -1.0676  0.6837
    7SAPS  H12Y  912   3.112  -0.158   4.528  1.3329 -0.2251 -1.2417
    7SAPS  C313  913   3.070  -0.304   4.369  0.2309  0.3671 -0.1709
    7SAPS  H13X  914   2.973  -0.251   4.357  0.5117  0.6292 -1.3938
    7SAPS  H13Y  915   3.058  -0.415   4.372  0.4160  0.3801  1.8010
    7SAPS  C314  916   3.169  -0.269   4.252 -0.8559  0.7588  0.2600
    7SAPS  H14X  917   3.218  -0.170   4.258  0.8808 -0.0628  0.1093
    7SAPS  H14Y  918   3.118  -0.261   4.153 -1.6880 -2.7293  0.3193
    7SAPS  C315  919   3.277  -0.371   4.236  0.5514 -0.7056  0.2466
    7SAPS  H15X  920   3.243  -0.456   4.173 -1.7145  0.1154  0.3240
    7SAPS  H15Y  921   3.290  -0.418   4.335  1.3925  0.5695  0.7524
    7SAPS  C316  922   3.409  -0.312   4.183  0.3547  0.3340  1.2879
    7SAPS  H16X  923   3.489  -0.389   4.182  0.3794  0.3609  1.1867
    7SAPS  H16Y  924   3.448  -0.229   4.246 -1.8563  1.4640  1.2190
    7SAPS  C317  925   3.397  -0.268   4.039 -0.1222  0.5793 -0.0491
    7SAPS  H17X  926   3.333  -0.178   4.034  1.3122  1.6844  0.9633
    7SAPS  H17Y  927   3.356  -0.360   3.992 -2.5934  1.1584  0.9105
    7SAPS  C318  928   3.530  -0.218   3.977 -0.2228  0.0596 -0.1526
    7SAPS  H18X  929   3.609  -0.289   4.011 -1.2239 -1.6725 -1.4365
    7SAPS  H18Y  930   3.553  -0.113   4.007 -0.8513  0.4840 -1.1778
    7SAPS  H18Z  931   3.519  -0.222   3.867 -0.1195 -2.1343 -0.0996
    8SAPS     N  932   2.468   0.054   6.026 -0.4350 -0.1320  0.1519
    8SAPS   HN1  933   2.492   0.076   5.927 -0.4409  3.6656  0.9320
    8SAPS   HN2  934   2.511  -0.035   6.059 -0.2549  0.7960  2.4609
    8SAPS   HN3  935   2.367   0.029   6.033 -0.7050  1.5760  2.8322
    8SAPS   C12  936   2.523   0.158   6.119 -0.3794 -0.1087  0.4033
    8SAPS  H12A  937   2.488   0.257   6.095 -3.6634 -1.1731  0.5227
    8SAPS   C13  938   2.479   0.133   6.259 -0.0675  0.0364 -0.4776
    8SAPS  O13A  939   2.406   0.032   6.288  0.1968  0.1946 -0.1916
    8SAPS  O13B  940   2.483   0.226   6.344  0.1786  0.8355  0.2902
    8SAPS   C11  941   2.677   0.152   6.111  0.3233 -0.0720 -0.3849
    8SAPS  H11A  942   2.711   0.164   6.006  0.2081 -2.5931 -0.7337
    8SAPS  H11B  943   2.704   0.051   6.149 -1.7809 -0.8530 -0.9047
    8SAPS     P  944   2.875   0.295   6.178 -0.3212  0.0878  0.0810
    8SAPS   O13  945   2.914   0.385   6.283  0.4582 -0.0768  0.3649
    8SAPS   O14  946   2.957   0.173   6.159 -0.5900  0.0789 -0.1237
    8SAPS   O12  947   2.730   0.248   6.203  0.1635  0.0083  0.4014
    8SAPS   O11  948   2.849   0.378   6.046  0.2872 -0.2358  0.8531
    8SAPS    C1  949   2.861   0.518   6.040  0.3234  1.0803  0.1039
    8SAPS    HA  950   2.953   0.563   6.084  0.0993  2.7575 -1.0966
    8SAPS    HB  951   2.870   0.548   5.934  2.1141 -1.5080 -0.5261
    8SAPS    C2  952   2.733   0.592   6.089  0.1774 -0.5615 -0.1290
    8SAPS    HS  953   2.686   0.548   6.179  0.5481  0.7540  0.7120
    8SAPS   O21  954   2.638   0.582   5.983  0.4863  0.0672 -0.0882
    8SAPS   C21  955   2.510   0.581   6.025  0.0021 -0.7779 -0.0416
    8SAPS   O22  956   2.477   0.592   6.140  0.3356  0.4040 -0.8050
    8SAPS   C22  957   2.421   0.559   5.902  0.5663  0.3992 -0.5258
    8SAPS   H2R  958   2.471   0.599   5.811 -0.1662  1.3416 -0.5183
    8SAPS   H2S  959   2.412   0.451   5.875 -1.9507  0.3641  0.3711
    8SAPS    C3  960   2.767   0.739   6.117 -0.3583 -0.6477 -0.4763
    8SAPS    HX  961   2.830   0.732   6.209  0.4173 -0.5618 -0.9997
    8SAPS    HY  962   2.681   0.796   6.156  0.2661 -0.5737  0.8237
    8SAPS   O31  963   2.836   0.812   6.013 -0.8767  0.5631  0.3417
    8SAPS   C31  964   2.747   0.878   5.937 -0.0866 -0.4824  0.7058
    8SAPS   O32  965   2.626   0.881   5.950  0.5195  0.0987 -0.1937
    8SAPS   C32  966   2.814   0.930   5.814 -0.4055 -0.4707  0.3999
    8SAPS   H2X  967   2.912   0.978   5.839 -0.9955  0.7710  0.3683
    8SAPS   H2Y  968   2.753   1.009   5.766  1.8304  1.5349  0.7292
    8SAPS   C23  969   2.286   0.634   5.911 -0.4266 -0.8749 -0.1163
    8SAPS   H3R  970   2.251   0.605   6.013 -1.1813  1.4290  0.3032
    8SAPS   H3S  971   2.200   0.601   5.850 -1.7183  0.4499  0.9476
    8SAPS   C24  972   2.300   0.788   5.913 -0.1245 -0.2403 -0.3852
    8SAPS   H4R  973   2.378   0.818   5.986 -0.2317  0.1155 -0.4162
    8SAPS   H4S  974   2.200   0.824   5.943 -1.1196 -1.7698 -1.7829
    8SAPS   C25  975   2.333   0.843   5.774 -0.0664 -0.4623  1.1693
    8SAPS   H5R  976   2.441   0.849   5.750 -0.1390 -0.2956  0.8848
    8SAPS   C26  977   2.242   0.869   5.670  0.0984 -0.1969 -0.1601
    8SAPS   H6R  978   2.276   0.904   5.572 -2.7042 -1.1240 -1.5122
    8SAPS   C27  979   2.096   0.842   5.675  0.3247 -0.9194 -0.1528
    8SAPS   H7R  980   2.071   0.783   5.766 -1.2139  0.4315  0.3075
    8SAPS   H7S  981   2.064   0.776   5.591  0.7525 -1.7819  0.3543
    8SAPS   C28  982   2.009   0.962   5.673 -0.2681 -0.1824  0.2887
    8SAPS   H8R  983   1.982   1.000   5.772  1.0969 -0.6911  0.8613
    8SAPS   C29  984   1.962   1.031   5.564 -0.6858 -0.1821  0.1833
    8SAPS   H9R  985   1.885   1.108   5.581 -1.2510 -1.0265  1.5153
    8SAPS  C210  986   1.987   1.001   5.417 -0.2992 -0.3614 -0.6087
    8SAPS  H10R  987   1.888   1.028   5.373  0.2951 -0.8184 -2.2673
    8SAPS  H10S  988   2.005   0.892   5.405  0.9642 -0.2624  0.2815
    8SAPS  C211  989   2.089   1.079   5.340  0.5499  0.8955  0.3571
    8SAPS  H11R  990   2.092   1.187   5.362  0.9926  0.4559  2.6079
    8SAPS  C212  991   2.159   1.028   5.237  0.1084 -0.7320  0.3497
    8SAPS  H12R  992   2.230   1.096   5.188 -1.7452  0.1940 -1.0797
    8SAPS  C213  993   2.150   0.887   5.177 -0.1475  0.1176  0.4329
    8SAPS  H13R  994   2.163   0.901   5.068  2.1884 -2.9260  0.2587
    8SAPS  H13S  995   2.056   0.835   5.204 -0.4561  1.5492  2.2291
    8SAPS  C214  996   2.267   0.813   5.233  0.1212  0.1906  0.2237
    8SAPS  H14R  997   2.250   0.769   5.332 -1.0462  2.1202  0.8980
    8SAPS  C215  998   2.391   0.799   5.187 -0.5403 -0.5975  0.2976
    8SAPS  H15R  999   2.462   0.732   5.237  0.1712 -0.7511 -0.9017
    8SAPS  C216 1000   2.441   0.857   5.062  0.2261 -0.3614 -0.3221
    8SAPS  H16R 1001   2.530   0.920   5.083 -0.0352 -0.2558  0.4684
    8SAPS  H16S 1002   2.369   0.926   5.015 -1.1712 -1.2062  0.5559
    8SAPS  C217 1003   2.463   0.758   4.944 -0.7074  0.1402 -0.2145
    8SAPS  H17R 1004   2.376   0.689   4.943 -2.1040  1.8422 -1.1700
    8SAPS  H17S 1005   2.558   0.706   4.967 -0.5827  0.2340 -0.5040
    8SAPS  C218 1006   2.485   0.830   4.809  0.4048 -0.2954 -0.3884
    8SAPS  H18R 1007   2.565   0.907   4.812  0.3104 -0.2157  0.1356
    8SAPS  H18S 1008   2.386   0.870   4.777  0.5367  1.6110  1.4972
    8SAPS  C219 1009   2.525   0.728   4.697 -0.1681  0.0092 -0.2218
    8SAPS  H19R 1010   2.427   0.675   4.702 -0.4598  0.7909  4.5175
    8SAPS  H19S 1011   2.608   0.660   4.726 -1.1564 -1.1226  0.0050
    8SAPS  C220 1012   2.538   0.786   4.558  0.7267  0.4505  0.0705
    8SAPS  H20R 1013   2.452   0.850   4.528  1.4286  1.7798  0.8554
    8SAPS  H20S 1014   2.536   0.702   4.485  2.3227  0.4438  0.0213
    8SAPS  H20T 1015   2.621   0.859   4.547  1.4980 -0.8676 -3.2571
    8SAPS   C33 1016   2.842   0.808   5.718 -0.0405 -0.1919  0.5249
    8SAPS   H3X 1017   2.907   0.727   5.759  0.5425  0.2157  0.4051
    8SAPS   H3Y 1018   2.888   0.844   5.624  2.0227 -0.1723  1.4975
    8SAPS   C34 1019   2.711   0.738   5.665  1.3524  0.3202  0.7345
    8SAPS   H4X 1020   2.648   0.807   5.606  0.6355 -0.5225  0.5052
    8SAPS   H4Y 1021   2.641   0.707   5.746 -0.6013  0.4468 -0.8824
    8SAPS   C35 1022   2.741   0.614   5.576  1.1220 -0.3141 -1.2135
    8SAPS   H5X 1023   2.833   0.555   5.594 -1.6080 -4.0143  1.1078
    8SAPS   H5Y 1024   2.762   0.651   5.473  2.4407  0.5754 -0.6460
    8SAPS   C36 1025   2.618   0.518   5.564 -0.7845 -0.5157 -0.2094
    8SAPS   H6X 1026   2.525   0.576   5.547 -1.2154 -1.4344 -1.0518
    8SAPS   H6Y 1027   2.598   0.474   5.664 -0.2570  4.8061  2.3854
    8SAPS   C37 1028   2.640   0.413   5.461  0.1658  0.4578 -0.0292
    8SAPS   H7X 1029   2.563   0.334   5.471  1.7775 -1.1950 -0.2552
    8SAPS   H7Y 1030   2.741   0.368   5.477  1.5680  3.6649  0.4053
    8SAPS   C38 1031   2.632   0.463   5.317  0.3169  0.6799  0.5617
    8SAPS   H8X 1032   2.713   0.536   5.295  1.6869 -1.2608 -1.0258
    8SAPS   H8Y 1033   2.537   0.516   5.292 -0.6761 -1.7745 -1.0975
    8SAPS   C39 1034   2.634   0.355   5.215  0.1738  0.0752  0.1082
    8SAPS   H9X 1035   2.569   0.267   5.231  0.9111 -0.5212 -0.1725
    8SAPS   H9Y 1036   2.740   0.323   5.209 -0.1731 -0.9267 -0.7395
    8SAPS  C310 1037   2.598   0.416   5.078  0.2955 -0.8971 -0.5091
    8SAPS  H10X 1038   2.666   0.500   5.055  1.5594 -0.8989  2.9418
    8SAPS  H10Y 1039   2.497   0.460   5.089  1.3393  1.0990  1.5163
    8SAPS  C311 1040   2.590   0.306   4.970  0.7120 -0.5042 -0.2672
    8SAPS  H11X 1041   2.511   0.230   4.988  0.2189  0.1524  0.3455
    8SAPS  H11Y 1042   2.682   0.245   4.964  1.3265  0.5077 -1.6137
    8SAPS  C312 1043   2.552   0.367   4.835 -0.1848 -0.0809 -0.6500
    8SAPS  H12X 1044   2.639   0.419   4.788  0.4303 -1.2437 -0.8342
    8SAPS  H12Y 1045   2.468   0.433   4.863  0.6918 -0.6984  3.6647
    8SAPS  C313 1046   2.497   0.264   4.734  0.1400  0.5847 -0.2229
    8SAPS  H13X 1047   2.407   0.218   4.780  1.7133 -2.4212 -0.0449
    8SAPS  H13Y 1048   2.579   0.198   4.699 -0.8789 -1.0002  0.3331
    8SAPS  C314 1049   2.450   0.340   4.606 -0.4286 -0.0344  0.3423
    8SAPS  H14X 1050   2.532   0.396   4.556 -2.7406  0.4103 -3.1933
    8SAPS  H14Y 1051   2.376   0.417   4.639  1.1173  1.6145 -0.0101
    8SAPS  C315 1052   2.395   0.246   4.499  0.8116  0.0024 -0.3159
    8SAPS  H15X 1053   2.343   0.158   4.541  0.3259  0.7114  0.5946
    8SAPS  H15Y 1054   2.477   0.226   4.427  0.7107  2.7327 -1.2846
    8SAPS  C316 1055   2.286   0.318   4.422 -0.6232  0.2620  0.0422
    8SAPS  H16X 1056   2.338   0.405   4.377 -1.9781  1.7267  1.2227
    8SAPS  H16Y 1057   2.202   0.349   4.489 -1.3583 -0.1695 -0.6692
    8SAPS  C317 1058   2.221   0.235   4.304 -0.5549 -0.2912 -0.4062
    8SAPS  H17X 1059   2.299   0.174   4.254 -1.8843 -0.1935 -2.6767
    8SAPS  H17Y 1060   2.187   0.314   4.234 -0.8925  0.0866  0.1713
    8SAPS  C318 1061   2.106   0.144   4.343 -0.3585  0.1222 -0.3530
    8SAPS  H18X 1062   2.039   0.178   4.424  1.1149  1.8780  0.1618
    8SAPS  H18Y 1063   2.162   0.056   4.383 -1.1392 -0.4389 -0.4943
    8SAPS  H18Z 1064   2.050   0.115   4.252  0.6225  0.0698 -0.9459
    9SAPS     N 1065   6.949   6.247   6.239 -0.2259 -0.2603 -0.1406
    9SAPS   HN1 1066   7.043   6.224   6.276 -0.6440 -2.0239 -0.1365
    9SAPS   HN2 1067   6.900   6.156   6.237  0.6802 -0.7816  1.1392
    9SAPS   HN3 1068   6.967   6.281   6.142  2.1494 -0.5574  0.1501
    9SAPS   C12 1069   6.888   6.348   6.332 -0.1006 -0.3497 -0.3472
    9SAPS  H12A 1070   6.849   6.296   6.418  1.3072 -0.3215  0.3194
    9SAPS   C13 1071   6.989   6.438   6.392 -0.3067 -0.7263 -0.3913
    9SAPS  O13A 1072   7.105   6.455   6.348  0.3472 -0.4289 -0.1055
    9SAPS  O13B 1073   6.949   6.523   6.476 -0.6759 -0.0298  0.0824
    9SAPS   C11 1074   6.770   6.430   6.262 -0.3671  0.2506 -0.0026
    9SAPS  H11A 1075   6.810   6.489   6.176  1.0794  2.3672  2.0731
    9SAPS  H11B 1076   6.724   6.488   6.345  0.7055  1.0353  0.0474
    9SAPS     P 1077   6.523   6.369   6.174  0.0175 -0.5392 -0.0117
    9SAPS   O13 1078   6.432   6.302   6.267  0.3011 -0.0171 -0.2321
    9SAPS   O14 1079   6.508   6.518   6.162  0.4835  0.8314  0.0115
    9SAPS   O12 1080   6.674   6.336   6.208 -0.8076  0.1167 -0.4151
    9SAPS   O11 1081   6.508   6.300   6.034  0.4761 -0.0993 -0.2516
    9SAPS    C1 1082   6.621   6.246   5.967  0.0510 -0.5349  0.4079
    9SAPS    HA 1083   6.694   6.329   5.976 -0.4413 -0.1512  0.9345
    9SAPS    HB 1084   6.646   6.148   6.013 -2.5440 -2.4855 -2.1373
    9SAPS    C2 1085   6.600   6.233   5.811  0.2032  0.5270  0.3355
    9SAPS    HS 1086   6.673   6.302   5.764 -0.5189  0.4177 -0.9988
    9SAPS   O21 1087   6.461   6.265   5.773 -0.1450  0.1515  0.0422
    9SAPS   C21 1088   6.428   6.392   5.759 -0.7088 -0.2816 -0.0544
    9SAPS   O22 1089   6.505   6.488   5.774  0.2441  0.2540  0.5678
    9SAPS   C22 1090   6.280   6.409   5.724 -0.0215 -0.0828  0.1662
    9SAPS   H2R 1091   6.258   6.340   5.640  1.8164 -1.2764  0.6263
    9SAPS   H2S 1092   6.234   6.366   5.815 -0.4540 -0.4225 -0.2091
    9SAPS    C3 1093   6.615   6.085   5.761  0.4804 -0.6236 -0.3585
    9SAPS    HX 1094   6.547   6.030   5.830 -0.5603  2.3029  1.0445
    9SAPS    HY 1095   6.718   6.051   5.783 -0.6257 -2.7832  1.7013
    9SAPS   O31 1096   6.580   6.073   5.625 -0.0456 -0.0631  0.1030
    9SAPS   C31 1097   6.475   6.000   5.592  0.1215 -0.3594  0.3014
    9SAPS   O32 1098   6.416   5.928   5.672 -0.1947  0.0441 -0.1117
    9SAPS   C32 1099   6.434   6.022   5.444  1.1255  0.1568  0.0004
    9SAPS   H2X 1100   6.367   5.943   5.405 -0.3567  2.0968 -1.4122
    9SAPS   H2Y 1101   6.531   6.008   5.392  0.6684  0.4172 -0.9318
    9SAPS   C23 1102   6.244   6.560   5.724 -0.0676  0.1110  0.3947
    9SAPS   H3R 1103   6.298   6.619   5.647 -0.1252  0.2078  0.4286
    9SAPS   H3S 1104   6.274   6.601   5.823  0.6829  0.4690  0.0262
    9SAPS   C24 1105   6.089   6.582   5.716 -0.0389  0.0728 -0.2881
    9SAPS   H4R 1106   6.035   6.533   5.800 -1.3524  2.3001  0.1912
    9SAPS   H4S 1107   6.059   6.530   5.622 -1.0876  0.1973 -0.0274
    9SAPS   C25 1108   6.046   6.718   5.707  0.3507 -0.8033  0.5628
    9SAPS   H5R 1109   6.057   6.769   5.804 -3.6895  0.5025  0.4135
    9SAPS   C26 1110   6.006   6.784   5.592 -0.5786 -0.7612 -0.6091
    9SAPS   H6R 1111   5.986   6.891   5.607  1.3036 -0.3136 -1.0636
    9SAPS   C27 1112   6.007   6.728   5.454  0.6620 -0.9570  0.7343
    9SAPS   H7R 1113   6.073   6.640   5.438  0.4225 -1.1558  0.8247
    9SAPS   H7S 1114   6.036   6.803   5.377  0.5095 -0.8477  0.7827
    9SAPS   C28 1115   5.872   6.668   5.421  0.2509  0.6470 -0.2636
    9SAPS   H8R 1116   5.791   6.709   5.484  0.7578  0.5355  0.4616
    9SAPS   C29 1117   5.852   6.569   5.331 -0.0446  0.1825 -0.4384
    9SAPS   H9R 1118   5.745   6.544   5.319 -0.0426  0.3550 -0.8068
    9SAPS  C210 1119   5.939   6.488   5.235 -0.0131 -0.0913 -0.3107
    9SAPS  H10R 1120   5.872   6.450   5.155  0.1051 -1.0140  0.0268
    9SAPS  H10S 1121   5.963   6.395   5.291 -2.5857  1.1534  3.0662
    9SAPS  C211 1122   6.064   6.559   5.174  0.0732 -0.0600  0.1063
    9SAPS  H11R 1123   6.078   6.664   5.204 -2.8184  0.4262 -0.0786
    9SAPS  C212 1124   6.148   6.497   5.088 -0.8830  0.2005 -0.1851
    9SAPS  H12R 1125   6.223   6.555   5.032  0.6429  0.9293  2.5483
    9SAPS  C213 1126   6.126   6.347   5.058 -0.3086 -0.8826  0.0415
    9SAPS  H13R 1127   6.108   6.302   5.158  1.3411  0.4935  0.9819
    9SAPS  H13S 1128   6.215   6.295   5.017 -0.7290 -0.3629 -1.5487
    9SAPS  C214 1129   6.014   6.310   4.961 -0.1424 -0.1378 -0.7275
    9SAPS  H14R 1130   5.938   6.384   4.935  1.0426  0.6553 -1.9660
    9SAPS  C215 1131   6.006   6.186   4.912 -0.4580 -0.1990  0.2548
    9SAPS  H15R 1132   5.910   6.155   4.866  0.0514 -1.1385 -0.1912
    9SAPS  C216 1133   6.097   6.070   4.949 -0.1674 -0.7043 -0.2527
    9SAPS  H16R 1134   6.187   6.115   4.996  1.0092 -0.8095 -2.3466
    9SAPS  H16S 1135   6.138   6.016   4.861 -1.8057 -0.4038 -1.2393
    9SAPS  C217 1136   6.036   5.972   5.051  0.2946  0.4280 -0.1495
    9SAPS  H17R 1137   6.004   6.027   5.142 -2.0333 -1.0643 -0.0143
    9SAPS  H17S 1138   6.112   5.895   5.077  1.1065  0.7592 -1.5154
    9SAPS  C218 1139   5.924   5.886   5.000  0.2058 -0.4901  0.5679
    9SAPS  H18R 1140   5.947   5.842   4.901 -2.3278 -0.0904 -0.2244
    9SAPS  H18S 1141   5.841   5.956   4.975 -1.1170 -1.4694  2.0935
    9SAPS  C219 1142   5.887   5.776   5.096  0.7823 -0.0860  0.0826
    9SAPS  H19R 1143   5.844   5.829   5.183  1.4103  2.1751 -0.9378
    9SAPS  H19S 1144   5.973   5.717   5.133  1.7304  0.8762 -0.5512
    9SAPS  C220 1145   5.783   5.687   5.029 -0.0027 -0.2899 -0.7424
    9SAPS  H20R 1146   5.761   5.599   5.093  0.1536  0.9496  1.0464
    9SAPS  H20S 1147   5.818   5.635   4.937 -2.1496 -4.3419  0.6019
    9SAPS  H20T 1148   5.686   5.732   4.997  0.6690  1.4673 -0.3307
    9SAPS   C33 1149   6.378   6.165   5.395  0.1421  0.2720 -0.4314
    9SAPS   H3X 1150   6.285   6.184   5.453  0.6234 -1.5759  1.0049
    9SAPS   H3Y 1151   6.340   6.147   5.292 -3.6075 -1.2666  1.1524
    9SAPS   C34 1152   6.481   6.279   5.385 -0.0185  0.2263 -0.4660
    9SAPS   H4X 1153   6.556   6.278   5.303  0.6320 -0.9039  0.1109
    9SAPS   H4Y 1154   6.524   6.277   5.488 -0.0438 -2.0563 -0.4677
    9SAPS   C35 1155   6.404   6.417   5.376  0.2152 -0.5570  0.3169
    9SAPS   H5X 1156   6.334   6.444   5.458 -0.2040 -0.6245 -0.0176
    9SAPS   H5Y 1157   6.345   6.408   5.282 -2.1035 -0.2968  1.7095
    9SAPS   C36 1158   6.494   6.542   5.352  0.5697  0.1897 -0.8194
    9SAPS   H6X 1159   6.595   6.517   5.312 -1.1144 -1.3254 -4.2455
    9SAPS   H6Y 1160   6.523   6.585   5.451 -0.5846  1.3885 -0.9919
    9SAPS   C37 1161   6.424   6.643   5.265  0.7392  0.1189 -0.0652
    9SAPS   H7X 1162   6.342   6.697   5.317  1.1100  0.0104  0.6387
    9SAPS   H7Y 1163   6.385   6.599   5.171 -0.4294 -1.1645  1.0036
    9SAPS   C38 1164   6.519   6.758   5.220  0.0239  0.5621 -0.3515
    9SAPS   H8X 1165   6.612   6.719   5.173  0.8647  1.5700  0.4645
    9SAPS   H8Y 1166   6.545   6.812   5.313 -0.1539 -1.1511  0.6996
    9SAPS   C39 1167   6.466   6.861   5.120  0.0877  0.1712 -0.0527
    9SAPS   H9X 1168   6.534   6.948   5.113  0.7662 -0.2524  1.1569
    9SAPS   H9Y 1169   6.377   6.904   5.170 -0.9863  1.5595 -3.0631
    9SAPS  C310 1170   6.423   6.807   4.981 -0.3725  0.2423  0.0588
    9SAPS  H10X 1171   6.346   6.727   4.986  1.6505 -1.8515 -1.4138
    9SAPS  H10Y 1172   6.514   6.769   4.930  0.1328  0.4388  0.8029
    9SAPS  C311 1173   6.356   6.905   4.883  0.1563  0.4229  0.4777
    9SAPS  H11X 1174   6.438   6.974   4.857  2.7078 -2.8322 -0.3899
    9SAPS  H11Y 1175   6.280   6.975   4.924 -2.3533 -0.3924 -2.6054
    9SAPS  C312 1176   6.304   6.851   4.752  0.3745 -0.0209 -0.3584
    9SAPS  H12X 1177   6.376   6.792   4.691 -0.1369  0.5856 -1.5687
    9SAPS  H12Y 1178   6.265   6.935   4.690 -0.1427  0.4812  0.6432
    9SAPS  C313 1179   6.178   6.773   4.788  0.6147  0.3323  0.5469
    9SAPS  H13X 1180   6.097   6.827   4.843 -1.5628 -2.5984  0.3211
    9SAPS  H13Y 1181   6.209   6.679   4.839 -1.1583 -0.5773 -0.0169
    9SAPS  C314 1182   6.098   6.711   4.671 -0.6508 -0.1835 -0.6338
    9SAPS  H14X 1183   6.157   6.646   4.602 -1.0895 -0.0913 -1.0955
    9SAPS  H14Y 1184   6.048   6.787   4.608  0.6496  0.3861 -0.9998
    9SAPS  C315 1185   5.994   6.613   4.719  0.2048 -0.1893 -1.3133
    9SAPS  H15X 1186   5.927   6.657   4.795  1.8098  4.1416 -2.2991
    9SAPS  H15Y 1187   6.051   6.523   4.752  1.3588  0.0835 -2.4815
    9SAPS  C316 1188   5.896   6.551   4.616  0.5525 -0.3488  0.4913
    9SAPS  H16X 1189   5.825   6.474   4.654 -0.8339  0.4678 -0.3876
    9SAPS  H16Y 1190   5.953   6.522   4.525  1.7238  0.2450  1.0351
    9SAPS  C317 1191   5.801   6.658   4.560 -0.0520 -0.2693 -0.0260
    9SAPS  H17X 1192   5.863   6.747   4.536 -2.4593  1.2045 -0.9678
    9SAPS  H17Y 1193   5.720   6.685   4.631  1.1010  0.8025  0.9002
    9SAPS  C318 1194   5.731   6.616   4.430 -0.7431 -0.1410 -0.0292
    9SAPS  H18X 1195   5.805   6.582   4.354  0.1097 -0.3468  0.8827
    9SAPS  H18Y 1196   5.664   6.690   4.381 -1.0157 -0.2064  0.2387
    9SAPS  H18Z 1197   5.671   6.525   4.451  1.5548 -2.6349 -3.6683
   10SAPS     N 1198   0.767   7.276   6.265 -0.6571 -0.5024  0.0766
   10SAPS   HN1 1199   0.832   7.341   6.216  1.0308 -1.3286  1.2029
   10SAPS   HN2 1200   0.786   7.184   6.220 -1.2923 -0.3711 -0.4846
   10SAPS   HN3 1201   0.672   7.306   6.236  0.3611  0.7496 -2.1109
   10SAPS   C12 1202   0.784   7.269   6.411  0.0692 -0.3172  0.0339
   10SAPS  H12A 1203   0.733   7.349   6.462 -0.8362 -0.0583 -1.2518
   10SAPS   C13 1204   0.740   7.140   6.482 -0.6235 -0.1409 -0.7846
   10SAPS  O13A 1205   0.704   7.040   6.422 -0.1409 -0.3371  0.1004
   10SAPS  O13B 1206   0.747   7.149   6.607 -0.8620  0.3621 -0.3676
   10SAPS   C11 1207   0.936   7.284   6.439 -0.3454  0.5080  0.1464
   10SAPS  H11A 1208   0.995   7.200   6.399 -0.8168 -0.8595  2.2682
   10SAPS  H11B 1209   0.952   7.272   6.548  1.1988  1.9313  0.0984
   10SAPS     P 1210   1.066   7.448   6.275  0.0858 -0.1161 -0.2108
   10SAPS   O13 1211   0.969   7.438   6.168 -0.4070 -0.0532  0.1487
   10SAPS   O14 1212   1.142   7.574   6.296 -0.3083  0.1825 -0.2889
   10SAPS   O12 1213   0.991   7.414   6.406 -0.7180  0.6862  0.5913
   10SAPS   O11 1214   1.166   7.325   6.272  0.0158  0.0737 -0.2238
   10SAPS    C1 1215   1.221   7.273   6.149  0.6937 -0.2144  0.3155
   10SAPS    HA 1216   1.140   7.257   6.074 -1.5853  0.3572  2.5664
   10SAPS    HB 1217   1.276   7.354   6.096  0.4891 -1.2512 -1.5453
   10SAPS    C2 1218   1.311   7.157   6.169  0.2716  0.1363 -0.0959
   10SAPS    HS 1219   1.390   7.183   6.242  0.5403  0.9849 -0.6825
   10SAPS   O21 1220   1.363   7.125   6.043  0.7158  0.5109  0.0224
   10SAPS   C21 1221   1.487   7.091   6.048 -0.1739  0.1004  0.3979
   10SAPS   O22 1222   1.570   7.093   6.138 -0.0951 -0.1031 -0.5027
   10SAPS   C22 1223   1.529   7.046   5.909 -0.3781  0.2934  0.3331
   10SAPS   H2R 1224   1.620   6.984   5.923 -1.7687 -2.2227 -1.1860
   10SAPS   H2S 1225   1.452   6.980   5.862  0.1764  0.3629 -0.6976
   10SAPS    C3 1226   1.241   7.033   6.229  0.8260  0.2500 -0.3408
   10SAPS    HX 1227   1.175   7.060   6.314 -1.4721 -0.1885 -1.9254
   10SAPS    HY 1228   1.314   6.964   6.277  0.1937  1.9584  3.1732
   10SAPS   O31 1229   1.161   6.958   6.133 -0.0188  0.5818 -0.3681
   10SAPS   C31 1230   1.032   6.972   6.131 -0.1211  0.2441  0.4227
   10SAPS   O32 1231   0.958   7.031   6.209 -0.1887  0.1105  0.4167
   10SAPS   C32 1232   0.985   6.898   6.002  0.3104 -0.2370 -0.0169
   10SAPS   H2X 1233   0.873   6.901   6.000  0.2757  0.9196  2.5487
   10SAPS   H2Y 1234   1.014   6.792   6.016 -1.4537 -0.6342  0.7276
   10SAPS   C23 1235   1.578   7.160   5.822  0.2374 -0.2122 -0.0755
   10SAPS   H3R 1236   1.658   7.215   5.875 -0.0658 -0.3183  0.4925
   10SAPS   H3S 1237   1.493   7.230   5.803  0.7709 -0.1903 -2.6679
   10SAPS   C24 1238   1.634   7.109   5.688 -1.2303 -0.2174  0.6702
   10SAPS   H4R 1239   1.563   7.040   5.638 -0.1917 -0.8134 -0.0156
   10SAPS   H4S 1240   1.718   7.040   5.708 -0.8651  0.3655  1.1802
   10SAPS   C25 1241   1.696   7.219   5.597  0.4639  0.3061 -0.4191
   10SAPS   H5R 1242   1.791   7.265   5.627  0.3939  0.1451  0.0600
   10SAPS   C26 1243   1.632   7.257   5.487 -0.4477 -0.7173  0.1345
   10SAPS   H6R 1244   1.683   7.330   5.423 -0.8760 -0.1374  0.4439
   10SAPS   C27 1245   1.499   7.211   5.431 -0.4261 -0.2340  0.4135
   10SAPS   H7R 1246   1.452   7.290   5.369  0.0717 -1.7353 -1.9250
   10SAPS   H7S 1247   1.419   7.216   5.508 -1.1353  0.9753 -0.3868
   10SAPS   C28 1248   1.499   7.075   5.362 -0.3289  0.0970  0.7114
   10SAPS   H8R 1249   1.493   6.992   5.433  1.7548 -2.0523 -1.4982
   10SAPS   C29 1250   1.524   7.054   5.237 -0.1211 -0.6615 -0.3607
   10SAPS   H9R 1251   1.520   6.954   5.193  0.1990 -0.5079 -0.7461
   10SAPS  C210 1252   1.553   7.159   5.133  0.3206 -0.2483 -0.5882
   10SAPS  H10R 1253   1.659   7.152   5.104  0.5659 -1.6603  0.5437
   10SAPS  H10S 1254   1.547   7.259   5.180  1.1052  0.1077 -1.2455
   10SAPS  C211 1255   1.456   7.146   5.017 -0.2228  0.1843 -0.7021
   10SAPS  H11R 1256   1.367   7.208   5.001 -0.1897  0.8231  1.4824
   10SAPS  C212 1257   1.479   7.063   4.913 -0.0362 -0.1979  0.0943
   10SAPS  H12R 1258   1.407   7.058   4.830 -3.6990 -1.2783  3.1641
   10SAPS  C213 1259   1.603   6.973   4.895 -0.4155  0.1377 -0.0814
   10SAPS  H13R 1260   1.572   6.874   4.856  0.1560 -0.3116  0.6011
   10SAPS  H13S 1261   1.654   6.960   4.993  0.5383  1.4300 -0.3880
   10SAPS  C214 1262   1.698   7.036   4.798  0.1328 -1.1052 -0.1166
   10SAPS  H14R 1263   1.666   7.131   4.751 -2.3700 -0.7569  2.1666
   10SAPS  C215 1264   1.803   6.967   4.741  0.0525 -0.3609  0.5828
   10SAPS  H15R 1265   1.866   7.007   4.660  1.5654 -0.9700  1.4491
   10SAPS  C216 1266   1.832   6.824   4.769  0.3167 -0.2211 -0.3567
   10SAPS  H16R 1267   1.767   6.782   4.849 -0.9993  2.2161 -0.0795
   10SAPS  H16S 1268   1.936   6.810   4.803  1.1480 -1.0511 -3.1565
   10SAPS  C217 1269   1.803   6.736   4.645 -0.4385 -0.1082 -0.6034
   10SAPS  H17R 1270   1.735   6.785   4.572 -0.1394 -2.1226 -2.2960
   10SAPS  H17S 1271   1.748   6.644   4.674  0.4325 -0.4826 -0.1352
   10SAPS  C218 1272   1.933   6.707   4.562  0.1866 -0.1258  0.0029
   10SAPS  H18R 1273   1.997   6.633   4.615  1.2493 -1.4208 -2.9725
   10SAPS  H18S 1274   2.001   6.795   4.555  3.0589 -2.2979 -0.3608
   10SAPS  C219 1275   1.913   6.656   4.414 -0.0809 -0.5878  0.3925
   10SAPS  H19R 1276   1.861   6.731   4.351 -2.5331 -1.2143  1.5803
   10SAPS  H19S 1277   1.834   6.578   4.416 -0.5399 -0.1305  0.0685
   10SAPS  C220 1278   2.049   6.607   4.364 -0.0462 -0.3622  0.4841
   10SAPS  H20R 1279   2.126   6.682   4.335  1.6543 -1.6460  1.5729
   10SAPS  H20S 1280   2.034   6.552   4.269  2.0299  1.1055 -0.7488
   10SAPS  H20T 1281   2.103   6.540   4.435  0.2760  1.5631  2.1144
   10SAPS   C33 1282   1.048   6.941   5.866 -0.1396 -0.1055 -0.2314
   10SAPS   H3X 1283   1.028   6.859   5.794  1.1724 -1.7169  1.2115
   10SAPS   H3Y 1284   1.159   6.943   5.874 -0.1783 -1.8572  1.0885
   10SAPS   C34 1285   0.997   7.074   5.814 -0.8532 -0.1776 -0.3987
   10SAPS   H4X 1286   1.022   7.153   5.888 -1.3974 -0.3079 -0.0742
   10SAPS   H4Y 1287   0.887   7.064   5.824 -0.8141  0.1761  0.4576
   10SAPS   C35 1288   1.045   7.116   5.668 -0.8673  0.0504  0.0419
   10SAPS   H5X 1289   1.153   7.138   5.675 -0.7698 -0.3299 -0.2565
   10SAPS   H5Y 1290   1.006   7.217   5.644  0.6609  1.8440  4.4815
   10SAPS   C36 1291   1.025   7.002   5.566 -0.0548 -0.2593  0.1281
   10SAPS   H6X 1292   0.919   6.975   5.586 -0.8178  4.0103  2.4816
   10SAPS   H6Y 1293   1.083   6.912   5.597  0.3742 -0.3256 -0.8517
   10SAPS   C37 1294   1.050   7.032   5.416 -0.3462  0.5594  0.7819
   10SAPS   H7X 1295   1.103   6.943   5.373 -1.6879 -1.0170  2.3175
   10SAPS   H7Y 1296   1.124   7.115   5.417 -0.0519  0.2981  2.0017
   10SAPS   C38 1297   0.914   7.063   5.342 -0.1066  0.1330 -0.1365
   10SAPS   H8X 1298   0.867   7.155   5.382 -0.0501  0.8530 -1.6907
   10SAPS   H8Y 1299   0.864   6.968   5.370  1.1563 -0.4889  0.0349
   10SAPS   C39 1300   0.933   7.058   5.193 -0.7446  0.5864 -0.1915
   10SAPS   H9X 1301   0.963   6.955   5.166  0.7927  0.4851  1.7784
   10SAPS   H9Y 1302   1.018   7.125   5.163 -0.1276  0.9431  2.2518
   10SAPS  C310 1303   0.814   7.105   5.104 -0.6051 -0.1116 -0.6487
   10SAPS  H10X 1304   0.809   7.216   5.110  0.2050  0.0761 -3.0697
   10SAPS  H10Y 1305   0.723   7.065   5.154 -0.5498  2.5647  1.7197
   10SAPS  C311 1306   0.813   7.058   4.953  0.5183 -0.0490 -0.2420
   10SAPS  H11X 1307   0.749   7.130   4.898 -1.8566 -2.2796 -0.5095
   10SAPS  H11Y 1308   0.762   6.960   4.939  2.7582 -1.3298  0.3877
   10SAPS  C312 1309   0.941   7.034   4.874  0.2816 -0.1955 -0.1707
   10SAPS  H12X 1310   0.931   6.992   4.771 -0.8054 -1.8231  0.5718
   10SAPS  H12Y 1311   1.010   6.964   4.926  0.6925 -1.4692 -2.3614
   10SAPS  C313 1312   1.016   7.171   4.850  0.0198  0.7345  0.1328
   10SAPS  H13X 1313   1.025   7.212   4.953 -0.0820  0.7421  0.1386
   10SAPS  H13Y 1314   0.949   7.233   4.786  0.6877 -1.1420 -2.4812
   10SAPS  C314 1315   1.147   7.177   4.780 -0.6421 -0.0601 -0.4060
   10SAPS  H14X 1316   1.210   7.115   4.848 -1.8068  0.3883  1.0967
   10SAPS  H14Y 1317   1.188   7.280   4.771 -0.5034 -0.0260  0.6098
   10SAPS  C315 1318   1.150   7.126   4.637 -0.2443 -0.1946 -0.1978
   10SAPS  H15X 1319   1.055   7.154   4.586 -0.5241  0.8649  0.8892
   10SAPS  H15Y 1320   1.158   7.015   4.646 -1.8460 -0.2764  0.4197
   10SAPS  C316 1321   1.270   7.173   4.558 -0.1720 -0.8893 -0.7447
   10SAPS  H16X 1322   1.362   7.126   4.601 -0.8592 -0.4280  1.2790
   10SAPS  H16Y 1323   1.289   7.282   4.572  0.7302 -1.3311  1.6364
   10SAPS  C317 1324   1.266   7.142   4.407 -0.2886  0.0881  0.6416
   10SAPS  H17X 1325   1.354   7.192   4.360 -1.2882  0.4945 -0.8340
   10SAPS  H17Y 1326   1.172   7.185   4.366  0.1794  1.1958  0.7073
   10SAPS  C318 1327   1.270   6.995   4.362  0.3958  0.0753 -0.8825
   10SAPS  H18X 1328   1.356   6.951   4.417 -0.7660 -0.8726  0.1660
   10SAPS  H18Y 1329   1.302   7.010   4.256  0.0781  0.3256 -0.9425
   10SAPS  H18Z 1330   1.177   6.936   4.376  1.6422 -1.6513  0.3537
   11SAPS     N 1331   3.085   2.850   2.337 -0.7890 -0.5396  0.0894
   11SAPS   HN1 1332   3.161   2.896   2.390 -2.0050  0.3881  1.0588
   11SAPS   HN2 1333   3.000   2.857   2.396 -0.8155 -1.2177  0.1410
   11SAPS   HN3 1334   3.108   2.749   2.330  0.0007 -0.6873  3.9313
   11SAPS   C12 1335   3.058   2.917   2.202 -0.0667  0.0533  0.0663
   11SAPS  H12A 1336   3.136   2.886   2.135 -0.6586 -1.5745  0.1165
   11SAPS   C13 1337   2.926   2.875   2.130  0.1953 -0.1696  0.8689
   11SAPS  O13A 1338   2.860   2.785   2.183  0.1859 -0.3439  0.4255
   11SAPS  O13B 1339   2.892   2.929   2.020 -0.5184  0.1206  0.3105
   11SAPS   C11 1340   3.052   3.074   2.235 -0.0629  0.1071  0.9049
   11SAPS  H11A 1341   2.960   3.095   2.293 -1.5734  0.3618 -1.4956
   11SAPS  H11B 1342   3.029   3.125   2.139  1.8609 -0.2286  0.2436
   11SAPS     P 1343   3.292   3.170   2.189  0.3204  0.1373  0.3414
   11SAPS   O13 1344   3.319   3.064   2.091  0.0236 -0.6360 -0.4556
   11SAPS   O14 1345   3.252   3.296   2.123 -0.0166  0.0165  0.6636
   11SAPS   O12 1346   3.176   3.124   2.283  1.1369 -0.1308 -0.0930
   11SAPS   O11 1347   3.414   3.180   2.294  0.0619 -0.1860 -0.0947
   11SAPS    C1 1348   3.462   3.063   2.367  0.1780 -0.6796 -0.5694
   11SAPS    HA 1349   3.401   2.971   2.353 -2.1666  0.1637  3.1919
   11SAPS    HB 1350   3.568   3.037   2.348  0.7379  0.2835  1.0984
   11SAPS    C2 1351   3.459   3.081   2.519 -0.3125  0.2186 -0.3825
   11SAPS    HS 1352   3.469   2.978   2.560  0.8034 -0.3163 -1.9628
   11SAPS   O21 1353   3.335   3.144   2.561 -0.5414 -0.2452  0.5203
   11SAPS   C21 1354   3.233   3.067   2.556 -0.2730  0.3392 -0.1857
   11SAPS   O22 1355   3.229   2.953   2.519  0.1408 -0.0681 -0.0189
   11SAPS   C22 1356   3.112   3.146   2.613 -0.6524 -0.3200  0.6232
   11SAPS   H2R 1357   3.111   3.233   2.544  2.4682 -0.9691 -0.3274
   11SAPS   H2S 1358   3.023   3.087   2.582  0.2273 -1.1615 -0.3325
   11SAPS    C3 1359   3.572   3.180   2.571 -0.2333 -0.6298  0.8251
   11SAPS    HX 1360   3.586   3.250   2.486  1.5751 -0.8218  0.9369
   11SAPS    HY 1361   3.673   3.133   2.573 -0.0514 -0.1732  2.8916
   11SAPS   O31 1362   3.539   3.248   2.694  0.2431 -0.3547 -0.1330
   11SAPS   C31 1363   3.545   3.168   2.799  0.4304  0.4249 -0.2302
   11SAPS   O32 1364   3.576   3.048   2.791  0.2779  0.0899 -0.6305
   11SAPS   C32 1365   3.489   3.243   2.917 -0.1926 -0.2654  0.3087
   11SAPS   H2X 1366   3.382   3.271   2.905 -0.3048 -0.1017  1.6124
   11SAPS   H2Y 1367   3.541   3.338   2.943 -2.3152  0.6567  1.3331
   11SAPS   C23 1368   3.103   3.156   2.765 -0.5189 -0.2936  0.3095
   11SAPS   H3R 1369   3.184   3.215   2.813 -0.3444  1.2292 -1.7724
   11SAPS   H3S 1370   3.086   3.062   2.821 -1.1617  0.0269  0.6723
   11SAPS   C24 1371   2.978   3.241   2.807  0.9811  0.0335 -0.2046
   11SAPS   H4R 1372   2.985   3.235   2.918  0.7133 -1.9719 -0.2927
   11SAPS   H4S 1373   2.895   3.172   2.779 -0.6954  1.4119  1.2285
   11SAPS   C25 1374   2.963   3.383   2.756 -0.0313 -0.6678  0.4841
   11SAPS   H5R 1375   2.903   3.392   2.664 -0.3206 -1.5420  0.5824
   11SAPS   C26 1376   3.032   3.486   2.814 -0.7041  0.7982  0.2720
   11SAPS   H6R 1377   3.045   3.573   2.748 -0.6428  0.5137 -0.0933
   11SAPS   C27 1378   3.130   3.482   2.929 -0.5758 -0.2636  0.6601
   11SAPS   H7R 1379   3.139   3.381   2.973 -0.4572 -0.3271  0.4901
   11SAPS   H7S 1380   3.088   3.550   3.007 -1.9635 -1.0175  0.5858
   11SAPS   C28 1381   3.270   3.517   2.873  0.2628  0.1980  0.1876
   11SAPS   H8R 1382   3.302   3.467   2.780 -0.4664 -2.0187  1.0862
   11SAPS   C29 1383   3.358   3.605   2.919 -0.0830  0.0288 -0.3013
   11SAPS   H9R 1384   3.451   3.632   2.868 -0.6312 -0.2648 -1.4847
   11SAPS  C210 1385   3.331   3.676   3.049 -0.2528 -0.2007  0.1447
   11SAPS  H10R 1386   3.376   3.618   3.132  0.1191  1.8577  1.4341
   11SAPS  H10S 1387   3.224   3.680   3.077 -0.1625  0.4741  0.4199
   11SAPS  C211 1388   3.398   3.815   3.059  0.6558 -0.2150  0.1102
   11SAPS  H11R 1389   3.360   3.882   2.980 -1.6546 -0.4154  1.0383
   11SAPS  C212 1390   3.504   3.855   3.132  0.3010 -0.6930  0.4810
   11SAPS  H12R 1391   3.535   3.958   3.110  0.1111 -0.6979  0.1945
   11SAPS  C213 1392   3.586   3.768   3.225 -0.0232  0.4569 -0.3220
   11SAPS  H13R 1393   3.689   3.808   3.235 -0.5187  1.2400  1.8436
   11SAPS  H13S 1394   3.598   3.668   3.177 -0.2366  0.5163 -0.5017
   11SAPS  C214 1395   3.536   3.738   3.365  0.6510  0.7804 -0.1587
   11SAPS  H14R 1396   3.427   3.746   3.377  0.3850  0.3970 -2.1062
   11SAPS  C215 1397   3.606   3.663   3.451  0.2066 -0.2441 -0.2977
   11SAPS  H15R 1398   3.559   3.660   3.551  1.7944 -1.8478  0.4245
   11SAPS  C216 1399   3.737   3.599   3.440  0.1046 -0.3594 -0.2866
   11SAPS  H16R 1400   3.802   3.637   3.359  0.7378 -1.6253 -0.3825
   11SAPS  H16S 1401   3.718   3.490   3.428 -2.7674 -0.0534  0.9319
   11SAPS  C217 1402   3.814   3.617   3.572  0.5525  0.2014  0.1235
   11SAPS  H17R 1403   3.808   3.724   3.603 -0.1995  0.0317  0.5825
   11SAPS  H17S 1404   3.918   3.579   3.564  1.4448  2.3088  1.1436
   11SAPS  C218 1405   3.749   3.529   3.692  0.1770  0.5252  0.4635
   11SAPS  H18R 1406   3.648   3.562   3.721  0.5534  2.4305 -0.3273
   11SAPS  H18S 1407   3.806   3.549   3.785  0.9459  0.0897  0.1010
   11SAPS  C219 1408   3.748   3.376   3.673 -0.6684 -0.1139  0.3861
   11SAPS  H19R 1409   3.845   3.338   3.635  0.5803  1.2568  2.1064
   11SAPS  H19S 1410   3.666   3.366   3.599  0.2433  0.2934 -0.6943
   11SAPS  C220 1411   3.711   3.287   3.796  0.6766 -0.6236  0.4666
   11SAPS  H20R 1412   3.607   3.313   3.826  1.1587  0.2200  1.4389
   11SAPS  H20S 1413   3.769   3.314   3.887 -1.1284  2.1648  0.8570
   11SAPS  H20T 1414   3.713   3.177   3.777 -2.0954 -1.2407  3.3958
   11SAPS   C33 1415   3.511   3.156   3.037 -0.1930  0.2576  0.6049
   11SAPS   H3X 1416   3.618   3.126   3.038 -0.2670 -0.1156 -0.7727
   11SAPS   H3Y 1417   3.449   3.066   3.017  1.7263 -0.5210 -2.2980
   11SAPS   C34 1418   3.489   3.215   3.182  0.0071  0.1318 -0.0228
   11SAPS   H4X 1419   3.569   3.290   3.198 -1.6438  2.0139 -0.4612
   11SAPS   H4Y 1420   3.501   3.132   3.256 -0.3970  1.6103  1.7430
   11SAPS   C35 1421   3.346   3.279   3.195 -0.2786  0.1237  0.2679
   11SAPS   H5X 1422   3.274   3.194   3.191  1.4242 -1.4189  1.7456
   11SAPS   H5Y 1423   3.328   3.349   3.110  0.9662  0.8644  0.6088
   11SAPS   C36 1424   3.312   3.363   3.319  0.3134  0.9012 -0.8446
   11SAPS   H6X 1425   3.379   3.450   3.337 -0.3307  1.0100  1.1589
   11SAPS   H6Y 1426   3.324   3.306   3.413  0.7445  3.6294  0.8249
   11SAPS   C37 1427   3.171   3.429   3.310 -0.0631 -0.2615 -0.3970
   11SAPS   H7X 1428   3.177   3.497   3.222 -1.8315  2.1989  1.3345
   11SAPS   H7Y 1429   3.161   3.484   3.406 -2.4683  1.2074 -1.4520
   11SAPS   C38 1430   3.057   3.330   3.294  0.2279  0.5671 -0.4103
   11SAPS   H8X 1431   3.069   3.245   3.365 -0.2998  1.3550  0.6396
   11SAPS   H8Y 1432   3.052   3.283   3.194 -1.4256  0.0169 -0.0911
   11SAPS   C39 1433   2.917   3.383   3.333 -0.2766  0.0510  0.1259
   11SAPS   H9X 1434   2.840   3.316   3.290 -1.6617  1.4142  0.4359
   11SAPS   H9Y 1435   2.903   3.485   3.290 -0.6015  0.6112  1.5321
   11SAPS  C310 1436   2.905   3.388   3.488 -0.1789 -0.3652 -0.1845
   11SAPS  H10X 1437   2.992   3.435   3.538  0.5068 -1.1039 -0.6563
   11SAPS  H10Y 1438   2.890   3.283   3.522  0.4696 -0.5067 -0.3229
   11SAPS  C311 1439   2.790   3.472   3.535 -0.0977 -0.2324  0.5772
   11SAPS  H11X 1440   2.694   3.438   3.493  0.6082  0.2670 -1.4848
   11SAPS  H11Y 1441   2.814   3.575   3.504 -1.5947 -0.0117  0.1194
   11SAPS  C312 1442   2.796   3.481   3.691 -0.6305 -0.0777 -0.4818
   11SAPS  H12X 1443   2.889   3.538   3.711 -1.1888  0.3892  0.7911
   11SAPS  H12Y 1444   2.817   3.383   3.740  0.1522  0.6208  0.5897
   11SAPS  C313 1445   2.680   3.557   3.740 -0.9845 -0.3764  0.1530
   11SAPS  H13X 1446   2.596   3.486   3.723 -1.5196  0.5494 -1.1292
   11SAPS  H13Y 1447   2.681   3.658   3.694  0.8343  0.3224  1.6674
   11SAPS  C314 1448   2.683   3.585   3.891 -0.1301 -0.5259  0.4599
   11SAPS  H14X 1449   2.777   3.643   3.905  0.0457 -0.1698 -1.9559
   11SAPS  H14Y 1450   2.690   3.491   3.950  1.2406 -0.6148  0.1688
   11SAPS  C315 1451   2.557   3.672   3.934 -0.2940 -0.1479  0.3799
   11SAPS  H15X 1452   2.553   3.768   3.877 -0.0355 -0.3596  0.0028
   11SAPS  H15Y 1453   2.571   3.701   4.040 -0.7732  1.0809  0.1182
   11SAPS  C316 1454   2.418   3.614   3.930 -0.1531 -0.8931  0.3291
   11SAPS  H16X 1455   2.373   3.616   3.828 -1.0351 -0.9741  0.7160
   11SAPS  H16Y 1456   2.347   3.665   3.998 -1.4748 -1.7983 -0.3568
   11SAPS  C317 1457   2.422   3.466   3.968 -0.3545  0.3713  0.4450
   11SAPS  H17X 1458   2.472   3.460   4.068  0.5436 -2.3606 -0.1125
   11SAPS  H17Y 1459   2.487   3.404   3.903  0.2058 -1.2329  2.4530
   11SAPS  C318 1460   2.279   3.417   3.981 -0.0920 -0.7977  0.0524
   11SAPS  H18X 1461   2.213   3.467   3.906  2.1052  1.4842 -0.4499
   11SAPS  H18Y 1462   2.234   3.469   4.068  0.0986  0.6884 -0.7163
   11SAPS  H18Z 1463   2.261   3.307   3.979 -1.1148 -0.6130 -2.3207
   12SAPS     N 1464   2.648   2.798   2.004  0.8027 -0.4493  0.4936
   12SAPS   HN1 1465   2.653   2.733   1.923  0.9362 -0.6849  0.6928
   12SAPS   HN2 1466   2.744   2.816   2.041  0.7606  1.9911 -0.4761
   12SAPS   HN3 1467   2.584   2.758   2.075 -0.2351  0.1526 -0.0836
   12SAPS   C12 1468   2.585   2.924   1.958  0.4588  0.5378 -0.2193
   12SAPS  H12A 1469   2.628   3.007   2.012 -1.4083  1.9477 -0.8642
   12SAPS   C13 1470   2.604   2.955   1.806 -0.2490  0.4464 -0.8422
   12SAPS  O13A 1471   2.654   2.856   1.740  1.3128 -0.1161  0.7303
   12SAPS  O13B 1472   2.580   3.065   1.751 -0.0925  0.1935  0.2371
   12SAPS   C11 1473   2.436   2.915   1.996 -0.1170  0.1312  0.8581
   12SAPS  H11A 1474   2.390   2.830   1.940  1.7497  0.0083 -0.5480
   12SAPS  H11B 1475   2.376   2.999   1.957 -2.4484 -1.5316  0.7411
   12SAPS     P 1476   2.381   2.803   2.228 -0.3155 -0.2260  0.1377
   12SAPS   O13 1477   2.233   2.797   2.232  0.2371 -0.3381 -0.0032
   12SAPS   O14 1478   2.449   2.688   2.167  0.5318  0.2766 -0.1938
   12SAPS   O12 1479   2.415   2.926   2.135  0.4681 -0.0938  0.4472
   12SAPS   O11 1480   2.432   2.842   2.372  0.1264  0.6997  0.0192
   12SAPS    C1 1481   2.472   2.970   2.412  1.0934  0.0476  0.2754
   12SAPS    HA 1482   2.427   3.055   2.356  1.3968 -0.2935 -0.4939
   12SAPS    HB 1483   2.432   2.981   2.515  0.8877 -1.2550  0.3489
   12SAPS    C2 1484   2.628   2.980   2.427  0.3142  0.3448 -0.6697
   12SAPS    HS 1485   2.681   2.949   2.335 -0.8629 -0.6232 -1.0219
   12SAPS   O21 1486   2.657   2.886   2.529  0.1954  0.2249 -0.2996
   12SAPS   C21 1487   2.785   2.882   2.566  0.7541  0.0260  0.0661
   12SAPS   O22 1488   2.878   2.926   2.499  0.1682 -0.3855 -0.0199
   12SAPS   C22 1489   2.798   2.826   2.712 -0.1224  0.6299  0.3673
   12SAPS   H2R 1490   2.770   2.720   2.727 -0.3131  0.5798 -0.3173
   12SAPS   H2S 1491   2.905   2.841   2.738 -0.1903 -0.4081  1.2851
   12SAPS    C3 1492   2.678   3.122   2.464  0.0099 -0.4449 -0.3615
   12SAPS    HX 1493   2.619   3.199   2.409  1.1895  1.4892  1.0508
   12SAPS    HY 1494   2.779   3.138   2.421 -1.6096  2.4920 -3.2798
   12SAPS   O31 1495   2.670   3.152   2.606 -0.5563 -0.2199 -0.8860
   12SAPS   C31 1496   2.577   3.243   2.653 -0.2703  0.5395 -0.3718
   12SAPS   O32 1497   2.494   3.294   2.584  0.2808  0.0780  0.5860
   12SAPS   C32 1498   2.589   3.261   2.804 -0.5558 -0.8351 -0.0950
   12SAPS   H2X 1499   2.696   3.245   2.828 -0.3838  1.5452  0.9113
   12SAPS   H2Y 1500   2.522   3.191   2.858 -2.1318  1.2736  0.7877
   12SAPS   C23 1501   2.705   2.912   2.809 -0.3460 -0.1843 -0.5308
   12SAPS   H3R 1502   2.601   2.915   2.770  0.4777  1.4961 -2.7231
   12SAPS   H3S 1503   2.742   3.016   2.816  2.2487 -1.1186  0.0462
   12SAPS   C24 1504   2.709   2.849   2.947  0.0190 -0.0257 -0.3890
   12SAPS   H4R 1505   2.814   2.854   2.983 -0.8279 -0.2941  2.1721
   12SAPS   H4S 1506   2.676   2.743   2.950 -0.6226  0.2080  1.1542
   12SAPS   C25 1507   2.607   2.909   3.031  0.0222 -0.6518 -0.0245
   12SAPS   H5R 1508   2.508   2.888   2.988 -0.4142  0.7571  0.2811
   12SAPS   C26 1509   2.640   2.996   3.130  0.1269  0.2939 -0.3920
   12SAPS   H6R 1510   2.555   3.050   3.174 -0.9480 -2.5842  1.2339
   12SAPS   C27 1511   2.779   3.038   3.180 -0.1396 -0.1776 -0.6432
   12SAPS   H7R 1512   2.792   3.142   3.144 -3.7415  0.8056  0.6681
   12SAPS   H7S 1513   2.874   3.000   3.138  0.0594  1.3534 -1.6061
   12SAPS   C28 1514   2.782   3.045   3.326  0.4433 -0.1834 -0.3281
   12SAPS   H8R 1515   2.753   3.143   3.367 -1.5507 -0.6145 -0.6397
   12SAPS   C29 1516   2.828   2.957   3.407 -0.1143  0.9028  0.0093
   12SAPS   H9R 1517   2.815   2.977   3.515 -1.0753 -0.7760  0.2180
   12SAPS  C210 1518   2.896   2.820   3.382 -0.0422 -1.2362  0.4781
   12SAPS  H10R 1519   2.944   2.791   3.478 -0.1138 -0.4959  0.7422
   12SAPS  H10S 1520   2.973   2.815   3.302 -0.5577  0.1296 -0.1264
   12SAPS  C211 1521   2.793   2.721   3.336  0.6107  0.0286 -0.3003
   12SAPS  H11R 1522   2.782   2.711   3.227  3.4120 -2.9505 -0.3900
   12SAPS  C212 1523   2.721   2.630   3.406  0.5204  0.0566 -0.1629
   12SAPS  H12R 1524   2.654   2.568   3.344 -0.4938 -0.0307  1.0125
   12SAPS  C213 1525   2.718   2.605   3.558 -0.2595 -0.1158  0.5281
   12SAPS  H13R 1526   2.646   2.672   3.609  1.4796  0.7564  1.8727
   12SAPS  H13S 1527   2.819   2.634   3.594  0.3257 -3.0604  1.4019
   12SAPS  C214 1528   2.699   2.465   3.598  0.7893 -0.3951  0.3680
   12SAPS  H14R 1529   2.597   2.426   3.605  1.5759 -2.1072  2.8921
   12SAPS  C215 1530   2.789   2.381   3.648 -0.3437  0.1318  0.1708
   12SAPS  H15R 1531   2.761   2.277   3.670  1.6345 -0.1810  1.3058
   12SAPS  C216 1532   2.933   2.410   3.676 -0.1791  0.1330 -0.6977
   12SAPS  H16R 1533   2.973   2.496   3.619  0.3927  0.6928  0.5241
   12SAPS  H16S 1534   2.988   2.318   3.646 -0.4666 -0.4503  0.5377
   12SAPS  C217 1535   2.966   2.431   3.827  0.2459  0.8639  0.6848
   12SAPS  H17R 1536   3.073   2.455   3.844  0.7795 -1.2472  0.3959
   12SAPS  H17S 1537   2.939   2.334   3.874 -3.3437  2.3835  1.9036
   12SAPS  C218 1538   2.889   2.545   3.885 -0.1218 -0.3085 -0.1074
   12SAPS  H18R 1539   2.780   2.530   3.867  0.2134 -0.8285 -1.8002
   12SAPS  H18S 1540   2.921   2.637   3.832  2.5774  0.8421  3.3377
   12SAPS  C219 1541   2.905   2.577   4.042  0.4813 -1.0518  0.5968
   12SAPS  H19R 1542   2.824   2.645   4.077 -0.5028 -2.0042  0.2027
   12SAPS  H19S 1543   3.003   2.626   4.059 -1.1047  3.2215 -1.7643
   12SAPS  C220 1544   2.893   2.456   4.134  0.3629 -0.2251  0.4736
   12SAPS  H20R 1545   2.913   2.476   4.241  0.2074  0.7444  0.3223
   12SAPS  H20S 1546   2.953   2.370   4.095 -0.9418  0.0968 -2.3551
   12SAPS  H20T 1547   2.797   2.404   4.113  0.4625 -0.6687  1.0988
   12SAPS   C33 1548   2.548   3.406   2.845  0.5612 -0.5124 -0.0715
   12SAPS   H3X 1549   2.437   3.413   2.848  0.5627 -0.5983  0.3118
   12SAPS   H3Y 1550   2.580   3.482   2.772  3.0307 -1.7657 -0.3542
   12SAPS   C34 1551   2.600   3.433   2.993 -0.2907 -0.4875  0.3548
   12SAPS   H4X 1552   2.708   3.407   3.002  0.1143  1.0385  0.0863
   12SAPS   H4Y 1553   2.546   3.353   3.048  1.7762  0.7551  4.3523
   12SAPS   C35 1554   2.568   3.579   3.040  0.0931 -0.6483  0.4106
   12SAPS   H5X 1555   2.459   3.595   3.034  0.3430  1.3313  0.9996
   12SAPS   H5Y 1556   2.619   3.641   2.963  0.9095 -0.1789  1.3178
   12SAPS   C36 1557   2.610   3.608   3.187 -0.3474 -0.5490  0.7048
   12SAPS   H6X 1558   2.720   3.607   3.202 -0.4499  0.7820  1.6580
   12SAPS   H6Y 1559   2.568   3.532   3.256  0.9663 -2.0666 -0.1400
   12SAPS   C37 1560   2.536   3.735   3.245 -1.2445  0.2341  0.1619
   12SAPS   H7X 1561   2.425   3.738   3.235 -1.0291  1.7087 -2.0677
   12SAPS   H7Y 1562   2.581   3.830   3.210  0.4656 -0.3675  0.6586
   12SAPS   C38 1563   2.542   3.751   3.398  0.0326  0.1512 -0.9964
   12SAPS   H8X 1564   2.649   3.773   3.416  0.3089 -2.0175  0.1910
   12SAPS   H8Y 1565   2.527   3.654   3.450 -1.7178  0.5179 -0.7774
   12SAPS   C39 1566   2.455   3.861   3.452 -0.1398 -0.1531 -0.2225
   12SAPS   H9X 1567   2.351   3.859   3.414  0.0631 -1.4815 -0.7206
   12SAPS   H9Y 1568   2.499   3.961   3.430  0.8912 -0.8153 -1.2634
   12SAPS  C310 1569   2.463   3.854   3.602 -0.2358 -0.3031  0.3209
   12SAPS  H10X 1570   2.561   3.866   3.653  0.5782  0.7813 -1.4323
   12SAPS  H10Y 1571   2.418   3.756   3.628  0.2746 -0.4183  0.7911
   12SAPS  C311 1572   2.391   3.981   3.651  0.7494 -0.2896  0.8388
   12SAPS  H11X 1573   2.285   3.991   3.621  0.7576  1.0485  1.2067
   12SAPS  H11Y 1574   2.449   4.069   3.615  0.3349  0.0470  0.9811
   12SAPS  C312 1575   2.386   4.006   3.815 -0.5454  0.3289  0.7550
   12SAPS  H12X 1576   2.475   4.065   3.848  0.0202 -1.5503  2.6777
   12SAPS  H12Y 1577   2.382   3.903   3.856  0.2890  0.3005  0.7784
   12SAPS  C313 1578   2.254   4.066   3.869 -0.0121  0.2572 -0.6608
   12SAPS  H13X 1579   2.167   4.005   3.836 -1.3169  1.4091  0.5276
   12SAPS  H13Y 1580   2.248   4.164   3.816 -2.9854 -1.0706 -2.9611
   12SAPS  C314 1581   2.251   4.085   4.026 -0.2194 -0.9930  0.3608
   12SAPS  H14X 1582   2.289   3.988   4.064  1.3256 -1.1648 -1.5546
   12SAPS  H14Y 1583   2.146   4.104   4.058 -0.0657 -0.8108  0.7552
   12SAPS  C315 1584   2.327   4.200   4.087  0.5354 -0.0537 -0.3115
   12SAPS  H15X 1585   2.280   4.297   4.059 -0.5809 -0.2491  0.8271
   12SAPS  H15Y 1586   2.436   4.194   4.070  0.1866  0.4416 -2.8583
   12SAPS  C316 1587   2.320   4.181   4.245  0.6910  0.2645 -0.0052
   12SAPS  H16X 1588   2.367   4.082   4.261 -0.7230 -0.5373 -0.7288
   12SAPS  H16Y 1589   2.215   4.193   4.280  0.3999 -0.3325 -0.6642
   12SAPS  C317 1590   2.404   4.289   4.325  0.1455  0.1125  0.8732
   12SAPS  H17X 1591   2.370   4.387   4.286 -1.5559 -1.2306 -1.1991
   12SAPS  H17Y 1592   2.511   4.273   4.301 -0.3798 -0.2851 -1.3097
   12SAPS  C318 1593   2.370   4.289   4.475 -0.4877 -0.4552  0.0577
   12SAPS  H18X 1594   2.350   4.185   4.508  0.8200 -1.1934 -1.3985
   12SAPS  H18Y 1595   2.277   4.345   4.498 -0.6119 -0.2698 -0.8777
   12SAPS  H18Z 1596   2.460   4.323   4.530 -1.0952  1.2446  0.0495
   13SAPS     N 1597   5.234   3.157   2.311  0.1149  0.1007 -0.0297
   13SAPS   HN1 1598   5.214   3.259   2.322 -1.2729 -0.1670 -0.0116
   13SAPS   HN2 1599   5.151   3.106   2.275  0.4410 -0.3991 -0.0728
   13SAPS   HN3 1600   5.252   3.112   2.403 -0.3127 -1.4484 -0.6859
   13SAPS   C12 1601   5.358   3.146   2.221 -0.8296 -0.4100  0.4272
   13SAPS  H12A 1602   5.445   3.197   2.261 -2.1126  2.3562 -0.1883
   13SAPS   C13 1603   5.400   2.998   2.184  0.2358 -0.1552  0.1225
   13SAPS  O13A 1604   5.343   2.901   2.239  0.2454 -0.7695 -0.2739
   13SAPS  O13B 1605   5.497   2.977   2.107 -0.1856 -0.6004  0.4158
   13SAPS   C11 1606   5.323   3.219   2.091 -0.1943  0.0762  0.1102
   13SAPS  H11A 1607   5.226   3.181   2.052 -0.8869  0.1785  1.6898
   13SAPS  H11B 1608   5.404   3.200   2.018  0.8036 -0.9442  1.4506
   13SAPS     P 1609   5.420   3.455   2.137 -0.0362 -0.2411  0.2190
   13SAPS   O13 1610   5.537   3.432   2.051  0.5689  0.1142  0.4416
   13SAPS   O14 1611   5.362   3.592   2.132  0.7664  0.4226  0.1173
   13SAPS   O12 1612   5.300   3.357   2.107  0.1908  0.0282 -0.0706
   13SAPS   O11 1613   5.458   3.428   2.289  0.5478 -0.0098  0.3274
   13SAPS    C1 1614   5.566   3.503   2.352  0.7487  0.3060  0.5159
   13SAPS    HA 1615   5.654   3.508   2.284 -2.4113 -2.1247 -3.9575
   13SAPS    HB 1616   5.529   3.604   2.378  3.3673  1.0636  1.4576
   13SAPS    C2 1617   5.612   3.428   2.480 -0.3424  0.4782  0.0467
   13SAPS    HS 1618   5.699   3.482   2.523 -2.1135  1.0229  3.0885
   13SAPS   O21 1619   5.655   3.290   2.460  0.3659 -0.0133  0.7103
   13SAPS   C21 1620   5.769   3.278   2.392 -0.9600  0.2438  0.0628
   13SAPS   O22 1621   5.840   3.365   2.344  0.5152  0.2939 -0.0766
   13SAPS   C22 1622   5.798   3.131   2.370 -0.5514 -0.4770 -0.1315
   13SAPS   H2R 1623   5.699   3.090   2.340 -1.6730  1.7084  0.4793
   13SAPS   H2S 1624   5.863   3.121   2.280 -0.1374 -1.7084  0.2898
   13SAPS    C3 1625   5.492   3.423   2.579 -0.6770  0.0786  0.4521
   13SAPS    HX 1626   5.434   3.340   2.533  0.7854 -0.4236 -0.5338
   13SAPS    HY 1627   5.428   3.513   2.578 -1.4377 -0.4237 -2.7867
   13SAPS   O31 1628   5.536   3.390   2.712 -0.2982 -0.3208  0.2439
   13SAPS   C31 1629   5.588   3.493   2.779 -0.0530  0.2322  0.1736
   13SAPS   O32 1630   5.611   3.603   2.734  0.2026  0.1609  0.4152
   13SAPS   C32 1631   5.625   3.448   2.920  0.1101  0.2830  0.1182
   13SAPS   H2X 1632   5.645   3.339   2.913 -0.1680  0.1923  0.6932
   13SAPS   H2Y 1633   5.531   3.458   2.979  0.1529 -0.2285  0.2727
   13SAPS   C23 1634   5.857   3.049   2.486 -0.2089 -0.0380  0.0682
   13SAPS   H3R 1635   5.962   3.078   2.508 -0.3287  0.1574  0.3778
   13SAPS   H3S 1636   5.863   2.944   2.450  1.4700 -0.5074  1.6442
   13SAPS   C24 1637   5.759   3.041   2.607 -0.2992 -0.5303  0.0103
   13SAPS   H4R 1638   5.656   3.017   2.573 -0.3549 -2.8326  1.7153
   13SAPS   H4S 1639   5.757   3.145   2.645 -1.9452 -0.7011  0.3955
   13SAPS   C25 1640   5.810   2.941   2.705 -0.3575 -0.0275 -0.4375
   13SAPS   H5R 1641   5.814   2.836   2.673  0.6165 -0.2807  0.4852
   13SAPS   C26 1642   5.851   2.974   2.828  0.2970  0.0949  0.1090
   13SAPS   H6R 1643   5.889   2.896   2.896 -0.0482 -1.2482 -1.1995
   13SAPS   C27 1644   5.850   3.117   2.888 -0.0516 -0.0874  0.8203
   13SAPS   H7R 1645   5.748   3.145   2.922 -0.6666 -1.0389 -0.2058
   13SAPS   H7S 1646   5.870   3.200   2.816  0.9065  0.8913  2.2036
   13SAPS   C28 1647   5.930   3.128   3.010 -0.1536  0.7943  0.3583
   13SAPS   H8R 1648   6.031   3.169   2.997 -0.4141  0.9240 -1.3133
   13SAPS   C29 1649   5.895   3.096   3.135 -0.4993  0.2578 -0.4796
   13SAPS   H9R 1650   5.956   3.132   3.218 -0.1777 -0.7200 -0.2823
   13SAPS  C210 1651   5.767   3.034   3.176 -0.4833 -0.4577 -0.2233
   13SAPS  H10R 1652   5.784   2.940   3.234 -0.4369 -0.5631 -0.4094
   13SAPS  H10S 1653   5.723   3.010   3.077  1.3750 -2.6125 -0.5797
   13SAPS  C211 1654   5.668   3.119   3.252  0.0252  0.0106 -0.1895
   13SAPS  H11R 1655   5.641   3.212   3.199 -0.7447 -0.2942 -0.3401
   13SAPS  C212 1656   5.609   3.099   3.371  0.5619 -0.2518 -0.7779
   13SAPS  H12R 1657   5.533   3.168   3.411  2.0641  1.0596 -0.1088
   13SAPS  C213 1658   5.631   2.978   3.457 -0.5478 -0.2180  0.2568
   13SAPS  H13R 1659   5.732   2.937   3.433 -1.1620  0.1776 -3.2209
   13SAPS  H13S 1660   5.554   2.904   3.427 -1.3749  0.6406  0.2343
   13SAPS  C214 1661   5.629   3.001   3.606 -0.4824 -0.1203 -0.2547
   13SAPS  H14R 1662   5.637   3.108   3.628  1.3222 -0.3641  0.3962
   13SAPS  C215 1663   5.606   2.904   3.701 -0.8621  0.0713 -0.8024
   13SAPS  H15R 1664   5.595   2.928   3.808  1.3794  0.9191 -0.7316
   13SAPS  C216 1665   5.581   2.760   3.661  0.0277  0.3208  0.1921
   13SAPS  H16R 1666   5.677   2.712   3.630 -0.1497 -0.6714  1.1714
   13SAPS  H16S 1667   5.508   2.747   3.578 -1.1570 -0.0868  1.2977
   13SAPS  C217 1668   5.534   2.666   3.774 -0.5415  0.5398  0.2103
   13SAPS  H17R 1669   5.524   2.569   3.721  2.0010  0.7287 -0.6860
   13SAPS  H17S 1670   5.436   2.708   3.804  0.0500  1.9840  0.1434
   13SAPS  C218 1671   5.642   2.653   3.884 -0.3055  0.4147  1.0923
   13SAPS  H18R 1672   5.616   2.726   3.964 -0.0997  0.7463  0.8512
   13SAPS  H18S 1673   5.739   2.678   3.838 -0.7668  0.0240 -0.1039
   13SAPS  C219 1674   5.656   2.507   3.939 -0.0952  0.2993  0.4726
   13SAPS  H19R 1675   5.754   2.475   3.979 -0.1449 -0.3924  0.0684
   13SAPS  H19S 1676   5.640   2.444   3.848  0.6366 -0.7686  1.0723
   13SAPS  C220 1677   5.558   2.480   4.050 -0.5293 -0.3477 -0.2997
   13SAPS  H20R 1678   5.516   2.377   4.057 -2.3087  0.3564 -0.3638
   13SAPS  H20S 1679   5.470   2.544   4.029 -0.6593 -0.4094  0.0557
   13SAPS  H20T 1680   5.591   2.523   4.147 -0.9119 -1.0283  0.1385
   13SAPS   C33 1681   5.747   3.528   2.975  0.9420  0.1138 -0.0447
   13SAPS   H3X 1682   5.723   3.636   2.966 -0.4207 -0.1225  0.6384
   13SAPS   H3Y 1683   5.831   3.501   2.906  1.3521  1.1325  0.0391
   13SAPS   C34 1684   5.780   3.489   3.118 -0.6480  0.0943 -0.1045
   13SAPS   H4X 1685   5.883   3.524   3.138 -0.3904  0.6235 -2.2831
   13SAPS   H4Y 1686   5.768   3.379   3.127 -2.4806  0.3381  0.6324
   13SAPS   C35 1687   5.688   3.566   3.215  0.2204 -0.0012 -0.2968
   13SAPS   H5X 1688   5.589   3.514   3.215 -2.1585  4.3056 -1.3624
   13SAPS   H5Y 1689   5.675   3.675   3.199 -2.4645  0.0710  1.9725
   13SAPS   C36 1690   5.729   3.548   3.368 -0.5094 -0.7990  0.3620
   13SAPS   H6X 1691   5.806   3.623   3.394 -2.6244  1.8825 -0.8430
   13SAPS   H6Y 1692   5.775   3.448   3.379  1.2545 -0.0331  0.1570
   13SAPS   C37 1693   5.598   3.560   3.444  0.2021 -0.2649 -0.5236
   13SAPS   H7X 1694   5.531   3.477   3.412 -0.1192 -1.0150  2.0089
   13SAPS   H7Y 1695   5.545   3.656   3.426  0.4368  0.4944  2.6464
   13SAPS   C38 1696   5.623   3.541   3.587 -0.0132  0.3908 -0.2556
   13SAPS   H8X 1697   5.709   3.603   3.621 -0.4642  1.6349 -1.3335
   13SAPS   H8Y 1698   5.654   3.437   3.610 -1.9098  0.1561  1.3124
   13SAPS   C39 1699   5.493   3.560   3.677  0.3191 -0.8128  0.0246
   13SAPS   H9X 1700   5.421   3.483   3.641 -1.4648  1.4182 -1.3708
   13SAPS   H9Y 1701   5.454   3.660   3.648 -1.5000 -0.7918  2.3960
   13SAPS  C310 1702   5.510   3.565   3.831 -0.1996  0.3109 -0.0530
   13SAPS  H10X 1703   5.607   3.619   3.834  1.2124 -2.0287 -1.5647
   13SAPS  H10Y 1704   5.532   3.463   3.869 -0.6338 -0.1247 -0.9490
   13SAPS  C311 1705   5.394   3.629   3.911 -0.0430 -0.1833 -0.5115
   13SAPS  H11X 1706   5.413   3.605   4.017 -1.8859 -0.1239 -0.1618
   13SAPS  H11Y 1707   5.300   3.575   3.887 -0.7084  0.3446  0.8953
   13SAPS  C312 1708   5.378   3.781   3.887 -0.0326 -0.4674  0.7251
   13SAPS  H12X 1709   5.357   3.800   3.780  1.3319  0.5998  0.6419
   13SAPS  H12Y 1710   5.459   3.846   3.924  2.7517 -2.9677 -0.7898
   13SAPS  C313 1711   5.241   3.825   3.951  0.2766  0.1475  0.4412
   13SAPS  H13X 1712   5.226   3.935   3.953 -1.8056 -0.0718 -0.8722
   13SAPS  H13Y 1713   5.244   3.792   4.056  1.2851 -0.0490  0.3571
   13SAPS  C314 1714   5.120   3.786   3.862  0.4138 -0.1229  1.2495
   13SAPS  H14X 1715   5.119   3.675   3.861 -4.2760 -0.1588  1.3689
   13SAPS  H14Y 1716   5.130   3.831   3.761  1.5507  1.9041  2.2407
   13SAPS  C315 1717   4.989   3.829   3.928  0.2599 -0.1009 -0.2889
   13SAPS  H15X 1718   4.973   3.930   3.886  0.1687 -0.0788 -0.2028
   13SAPS  H15Y 1719   5.008   3.833   4.038  1.8326  0.6654 -0.5777
   13SAPS  C316 1720   4.872   3.741   3.893  0.4825 -0.2079 -0.2521
   13SAPS  H16X 1721   4.898   3.640   3.930 -1.6721 -0.5791  0.3202
   13SAPS  H16Y 1722   4.854   3.734   3.784 -1.5126 -2.4209  0.1726
   13SAPS  C317 1723   4.750   3.794   3.971 -0.2988  0.0043 -0.1339
   13SAPS  H17X 1724   4.762   3.772   4.079  0.7529 -1.1199 -0.4593
   13SAPS  H17Y 1725   4.657   3.741   3.941 -0.7030  0.2415  0.7076
   13SAPS  C318 1726   4.730   3.942   3.956 -0.9557 -0.6948  0.3811
   13SAPS  H18X 1727   4.623   3.957   3.979 -0.5625 -1.0884  2.6181
   13SAPS  H18Y 1728   4.766   3.985   3.860  0.3778 -0.8251  0.8063
   13SAPS  H18Z 1729   4.779   3.999   4.039 -2.3766  1.4682 -0.2161
   14SAPS     N 1730   3.488   2.317   2.339 -0.8567  0.0573  0.2162
   14SAPS   HN1 1731   3.408   2.332   2.404  0.2048  0.2454  1.4911
   14SAPS   HN2 1732   3.568   2.288   2.398  0.4307  2.2129 -0.4190
   14SAPS   HN3 1733   3.518   2.398   2.281 -2.1451 -0.3513 -1.0478
   14SAPS   C12 1734   3.456   2.209   2.239 -0.7862 -0.2739  0.0680
   14SAPS  H12A 1735   3.421   2.119   2.288  1.3212 -0.4788  1.2299
   14SAPS   C13 1736   3.334   2.260   2.158  0.0418 -0.7438 -0.2742
   14SAPS  O13A 1737   3.256   2.337   2.217  0.6821 -0.3498 -0.5357
   14SAPS  O13B 1738   3.295   2.191   2.062 -0.0849  0.2630  0.5546
   14SAPS   C11 1739   3.579   2.176   2.155 -0.1027  0.2028 -0.0069
   14SAPS  H11A 1740   3.614   2.271   2.110  1.1274  0.0864  0.6517
   14SAPS  H11B 1741   3.543   2.115   2.070 -0.8410  1.5463 -0.6746
   14SAPS     P 1742   3.714   1.958   2.224  0.7278  0.0083 -0.0065
   14SAPS   O13 1743   3.735   1.903   2.083 -0.2028  0.0762 -0.3775
   14SAPS   O14 1744   3.824   1.922   2.317  0.1677  0.0078 -0.4640
   14SAPS   O12 1745   3.696   2.120   2.224  0.1095  0.3860 -0.4062
   14SAPS   O11 1746   3.577   1.905   2.287 -0.1948  0.2776 -0.5483
   14SAPS    C1 1747   3.483   1.850   2.194  0.3598  0.1438 -0.1344
   14SAPS    HA 1748   3.445   1.930   2.127  1.1178  0.2999 -0.3814
   14SAPS    HB 1749   3.530   1.771   2.131 -0.6135 -0.7938  0.2968
   14SAPS    C2 1750   3.362   1.793   2.267 -0.0927 -0.6253 -0.2874
   14SAPS    HS 1751   3.281   1.756   2.200  0.3528 -2.6336  0.2607
   14SAPS   O21 1752   3.300   1.900   2.344 -0.6054  0.0882 -0.2073
   14SAPS   C21 1753   3.187   1.874   2.406 -0.7823 -0.2285 -0.4806
   14SAPS   O22 1754   3.110   1.782   2.377 -0.2102  0.2816 -0.1483
   14SAPS   C22 1755   3.164   1.977   2.515 -0.3989  0.3074 -0.1048
   14SAPS   H2R 1756   3.260   2.016   2.556  0.3690 -2.2964  0.6887
   14SAPS   H2S 1757   3.108   2.060   2.467  1.1072  0.9208 -0.8353
   14SAPS    C3 1758   3.398   1.666   2.359 -0.1916 -0.0625 -0.3447
   14SAPS    HX 1759   3.425   1.583   2.289 -2.0712 -0.5454 -0.5196
   14SAPS    HY 1760   3.304   1.630   2.405 -0.4453  0.7908 -0.1927
   14SAPS   O31 1761   3.507   1.694   2.454  0.6011 -0.0289  1.0604
   14SAPS   C31 1762   3.467   1.753   2.573 -0.6723  0.2805 -0.0599
   14SAPS   O32 1763   3.351   1.748   2.609 -0.7472 -0.0652 -0.5781
   14SAPS   C32 1764   3.587   1.799   2.647  0.1340  0.0245 -0.8687
   14SAPS   H2X 1765   3.668   1.835   2.580  0.7850  3.0179  1.3903
   14SAPS   H2Y 1766   3.634   1.715   2.701  1.5139  0.1706 -1.7975
   14SAPS   C23 1767   3.077   1.927   2.633 -0.0084 -0.1328  0.6329
   14SAPS   H3R 1768   3.145   1.859   2.690 -0.6068  1.3005  3.1409
   14SAPS   H3S 1769   2.991   1.871   2.592 -0.3829  0.3159  0.8020
   14SAPS   C24 1770   3.034   2.044   2.727  0.5522 -0.1400  0.1380
   14SAPS   H4R 1771   2.969   2.006   2.809 -0.6781  2.5539  0.4567
   14SAPS   H4S 1772   2.975   2.113   2.664  1.3809  0.3407 -0.1225
   14SAPS   C25 1773   3.155   2.118   2.778 -0.0927 -0.8544 -0.2939
   14SAPS   H5R 1774   3.190   2.199   2.712 -0.5846  0.0969  0.5980
   14SAPS   C26 1775   3.229   2.071   2.878 -1.0396  0.4363 -0.3146
   14SAPS   H6R 1776   3.319   2.129   2.904 -1.6585  1.5417 -0.5712
   14SAPS   C27 1777   3.210   1.936   2.957 -0.1285  0.0172  0.2633
   14SAPS   H7R 1778   3.303   1.901   3.005  0.0198  0.1531  0.0715
   14SAPS   H7S 1779   3.184   1.851   2.890  0.7912  1.4412 -1.9584
   14SAPS   C28 1780   3.096   1.932   3.061 -0.1750 -0.6246  0.6956
   14SAPS   H8R 1781   3.016   2.007   3.050  1.1613  0.7187  0.1111
   14SAPS   C29 1782   3.106   1.856   3.177 -0.0463 -0.0073  0.0994
   14SAPS   H9R 1783   3.019   1.839   3.242 -0.7123 -1.6649 -1.1765
   14SAPS  C210 1784   3.213   1.759   3.227 -0.9891  0.4652  0.2931
   14SAPS  H10R 1785   3.308   1.773   3.171  0.0086 -0.3776  1.7536
   14SAPS  H10S 1786   3.177   1.658   3.198 -0.4112 -0.1874  1.8137
   14SAPS  C211 1787   3.248   1.757   3.376 -0.1738 -0.2519 -0.0486
   14SAPS  H11R 1788   3.329   1.829   3.397 -0.9398  0.7242 -0.3681
   14SAPS  C212 1789   3.203   1.684   3.473 -0.1469  0.0870  0.6105
   14SAPS  H12R 1790   3.254   1.702   3.568  1.0121 -0.4072  0.0825
   14SAPS  C213 1791   3.103   1.568   3.480 -0.0525  0.3600 -0.4457
   14SAPS  H13R 1792   3.069   1.534   3.379 -3.3626  0.8204  0.4378
   14SAPS  H13S 1793   3.013   1.599   3.538 -0.8415 -0.0810 -1.4147
   14SAPS  C214 1794   3.185   1.450   3.530  0.7599 -0.5184 -0.6579
   14SAPS  H14R 1795   3.211   1.371   3.458 -0.8333 -0.3017 -1.4922
   14SAPS  C215 1796   3.223   1.431   3.656 -0.0844 -0.7776 -0.5957
   14SAPS  H15R 1797   3.290   1.345   3.671  0.0299 -0.7211 -0.7892
   14SAPS  C216 1798   3.180   1.514   3.773 -0.1073  0.4347 -0.8533
   14SAPS  H16R 1799   3.106   1.594   3.752 -0.6867  0.5332  1.4377
   14SAPS  H16S 1800   3.260   1.579   3.813 -1.0764 -0.0980  2.1129
   14SAPS  C217 1801   3.131   1.435   3.896  0.0031 -0.2628  0.1767
   14SAPS  H17R 1802   3.045   1.371   3.867 -0.1492 -0.4925  1.1376
   14SAPS  H17S 1803   3.088   1.509   3.966  1.9742  1.6608 -0.5459
   14SAPS  C218 1804   3.231   1.344   3.965  0.5534 -0.3565  0.4783
   14SAPS  H18R 1805   3.278   1.268   3.899  0.0262 -1.6031  1.5218
   14SAPS  H18S 1806   3.174   1.281   4.036  0.6326 -0.4448  0.4623
   14SAPS  C219 1807   3.332   1.408   4.061 -0.3210  0.0157 -0.2166
   14SAPS  H19R 1808   3.274   1.458   4.142  1.4619 -3.5920  3.4358
   14SAPS  H19S 1809   3.388   1.480   3.999  0.3532  1.1616  1.6846
   14SAPS  C220 1810   3.423   1.305   4.124  0.2811  1.0059 -0.5129
   14SAPS  H20R 1811   3.374   1.242   4.200 -2.2165  0.1677 -2.7685
   14SAPS  H20S 1812   3.506   1.348   4.185  0.5565 -1.9327  1.2598
   14SAPS  H20T 1813   3.461   1.228   4.054  1.4826  0.7105  0.4470
   14SAPS   C33 1814   3.565   1.907   2.757  0.2260  1.2933 -0.3729
   14SAPS   H3X 1815   3.497   1.870   2.837  3.5859 -0.0093  1.9780
   14SAPS   H3Y 1816   3.524   2.003   2.720 -2.0252  0.5355  0.0588
   14SAPS   C34 1817   3.700   1.941   2.822  0.0432 -0.1206 -0.5225
   14SAPS   H4X 1818   3.759   1.971   2.733  1.8013 -0.5917  0.4452
   14SAPS   H4Y 1819   3.738   1.845   2.864  0.5059 -0.2029 -1.1229
   14SAPS   C35 1820   3.693   2.062   2.917 -0.0403  0.1303  0.5902
   14SAPS   H5X 1821   3.649   2.145   2.858  0.8283  1.6021  1.9785
   14SAPS   H5Y 1822   3.797   2.092   2.943 -0.2496  0.6997  0.7848
   14SAPS   C36 1823   3.616   2.042   3.049 -1.3750 -0.5304 -0.5736
   14SAPS   H6X 1824   3.506   2.033   3.038 -2.2872  0.7295  5.6591
   14SAPS   H6Y 1825   3.622   2.128   3.119  0.5279 -0.4044 -0.8550
   14SAPS   C37 1826   3.670   1.923   3.120 -0.5374 -0.5988 -0.2498
   14SAPS   H7X 1827   3.781   1.932   3.129  0.0512 -3.8333 -3.3304
   14SAPS   H7Y 1828   3.656   1.827   3.067  0.2325 -2.0633  2.0977
   14SAPS   C38 1829   3.606   1.922   3.263 -0.2221 -0.0676 -0.0186
   14SAPS   H8X 1830   3.496   1.920   3.252 -0.2006 -2.5306 -0.1403
   14SAPS   H8Y 1831   3.618   2.024   3.303  2.7261 -0.2546 -0.3132
   14SAPS   C39 1832   3.669   1.818   3.365 -0.2712 -0.5728  0.1918
   14SAPS   H9X 1833   3.778   1.836   3.351 -0.3096 -0.8543 -0.4639
   14SAPS   H9Y 1834   3.624   1.720   3.339 -3.6266  1.1768 -0.9904
   14SAPS  C310 1835   3.626   1.840   3.513 -0.9176 -0.2828 -0.8942
   14SAPS  H10X 1836   3.519   1.817   3.530 -0.9872  2.0757  2.3283
   14SAPS  H10Y 1837   3.644   1.947   3.535  0.4626 -0.5449 -0.7218
   14SAPS  C311 1838   3.707   1.748   3.611  0.2833 -0.2151  0.2588
   14SAPS  H11X 1839   3.813   1.727   3.584 -0.1168 -0.9384 -0.7844
   14SAPS  H11Y 1840   3.661   1.649   3.630 -1.3157  0.9136  2.4446
   14SAPS  C312 1841   3.733   1.798   3.762 -0.0496 -0.9594  0.7375
   14SAPS  H12X 1842   3.789   1.894   3.759 -1.3308 -0.2513 -1.1029
   14SAPS  H12Y 1843   3.806   1.730   3.812  1.6530  0.9588  0.9375
   14SAPS  C313 1844   3.601   1.798   3.841 -0.0195  0.0124 -0.2372
   14SAPS  H13X 1845   3.563   1.695   3.826 -1.2924  0.1915  1.5882
   14SAPS  H13Y 1846   3.535   1.871   3.791 -0.4877 -0.1257  0.1748
   14SAPS  C314 1847   3.616   1.826   3.991 -0.0292 -0.3938 -0.7763
   14SAPS  H14X 1848   3.655   1.923   4.027 -0.0675  0.0865 -2.0025
   14SAPS  H14Y 1849   3.702   1.763   4.021  2.2323  2.5879 -0.8233
   14SAPS  C315 1850   3.503   1.787   4.081 -0.4923  0.7157  0.2881
   14SAPS  H15X 1851   3.530   1.826   4.182  0.6762  1.0405 -0.1456
   14SAPS  H15Y 1852   3.488   1.677   4.080  1.9973  0.3613  0.2206
   14SAPS  C316 1853   3.367   1.852   4.055  0.5495 -0.5198  0.0121
   14SAPS  H16X 1854   3.352   1.861   3.945 -0.2393 -0.3746  0.1276
   14SAPS  H16Y 1855   3.358   1.955   4.096  2.2175  0.2207 -1.4101
   14SAPS  C317 1856   3.241   1.768   4.102 -0.1143 -1.1229  0.6551
   14SAPS  H17X 1857   3.253   1.752   4.211  1.2536  3.3849  1.2668
   14SAPS  H17Y 1858   3.245   1.665   4.061  1.7011 -0.7866 -0.0957
   14SAPS  C318 1859   3.105   1.818   4.057 -0.0816  0.2383  0.0845
   14SAPS  H18X 1860   3.111   1.929   4.060 -0.5724  0.2172  2.0898
   14SAPS  H18Y 1861   3.028   1.780   4.127 -1.0459  1.0777 -0.5145
   14SAPS  H18Z 1862   3.064   1.802   3.955 -1.9923  1.7450  0.6034
   15SAPS     N 1863   4.889   6.358   2.226  0.5751 -0.3196 -0.3789
   15SAPS   HN1 1864   4.898   6.381   2.125  1.0281 -0.2340 -0.3199
   15SAPS   HN2 1865   4.792   6.328   2.249  0.3408  0.4102 -0.3878
   15SAPS   HN3 1866   4.910   6.443   2.283 -2.1779  0.0476  0.1719
   15SAPS   C12 1867   4.994   6.259   2.285 -0.2074 -0.0223  0.2572
   15SAPS  H12A 1868   5.028   6.197   2.203  1.1903 -1.1454  1.6556
   15SAPS   C13 1869   5.116   6.347   2.321 -0.7986  0.3050  0.7217
   15SAPS  O13A 1870   5.130   6.469   2.280  0.1600  0.0477 -0.3186
   15SAPS  O13B 1871   5.226   6.284   2.334  0.3885  0.7535  0.0469
   15SAPS   C11 1872   4.945   6.196   2.417 -0.4892  0.2616 -0.5733
   15SAPS  H11A 1873   4.911   6.285   2.474  0.5873  1.3648 -1.6386
   15SAPS  H11B 1874   5.025   6.147   2.477 -0.9090 -1.9194 -1.7511
   15SAPS     P 1875   4.689   6.116   2.445  0.1020 -0.2022  0.0404
   15SAPS   O13 1876   4.651   6.253   2.421  0.0993  0.4690 -0.0907
   15SAPS   O14 1877   4.604   6.014   2.380  0.1132 -0.1112  0.5151
   15SAPS   O12 1878   4.835   6.104   2.389  0.2526 -0.1754 -0.4858
   15SAPS   O11 1879   4.702   6.077   2.603  0.0407  0.8605  0.4463
   15SAPS    C1 1880   4.739   5.938   2.629  0.2343  0.6113 -0.1473
   15SAPS    HA 1881   4.669   5.889   2.700 -0.0601  0.8099 -0.3018
   15SAPS    HB 1882   4.748   5.871   2.541  0.8215  0.8319 -0.2534
   15SAPS    C2 1883   4.876   5.942   2.701 -0.5004  0.4037  0.3344
   15SAPS    HS 1884   4.949   6.003   2.644 -0.4877 -0.3073 -0.4177
   15SAPS   O21 1885   4.916   5.806   2.719  0.5689 -0.3867  0.3643
   15SAPS   C21 1886   4.965   5.745   2.618 -0.1415 -0.4374  0.4719
   15SAPS   O22 1887   5.000   5.797   2.512 -0.0596 -0.8579 -0.0199
   15SAPS   C22 1888   4.985   5.599   2.644  0.2573  0.3123  0.5188
   15SAPS   H2R 1889   4.959   5.540   2.554  1.5171  0.6094 -0.0412
   15SAPS   H2S 1890   5.095   5.581   2.648  0.5540  2.2394  2.4588
   15SAPS    C3 1891   4.872   6.002   2.850 -0.4028  1.0128  0.8573
   15SAPS    HX 1892   4.892   6.109   2.872 -0.9133  1.5487 -1.1812
   15SAPS    HY 1893   4.959   5.948   2.893 -0.8147 -1.5934 -1.4147
   15SAPS   O31 1894   4.757   5.950   2.925  0.0667  0.2617 -0.4053
   15SAPS   C31 1895   4.664   6.048   2.966 -0.0962 -0.0686  0.3617
   15SAPS   O32 1896   4.673   6.160   2.926 -0.4684 -0.6137 -0.0836
   15SAPS   C32 1897   4.541   5.986   3.040 -0.0456 -0.0728 -0.4051
   15SAPS   H2X 1898   4.584   5.927   3.123  1.5982  1.6091 -0.0412
   15SAPS   H2Y 1899   4.484   5.917   2.974  0.8955 -1.4692  0.2397
   15SAPS   C23 1900   4.923   5.535   2.764 -0.5327  0.2720 -0.1006
   15SAPS   H3R 1901   4.813   5.540   2.758 -0.6541  0.3139  1.9346
   15SAPS   H3S 1902   4.943   5.600   2.852 -2.5011 -0.0584  0.5922
   15SAPS   C24 1903   4.959   5.382   2.774 -0.1008  0.1515  0.0234
   15SAPS   H4R 1904   4.922   5.349   2.873 -0.6885  1.8212  0.3827
   15SAPS   H4S 1905   5.069   5.364   2.775  0.3655  2.6847 -1.1637
   15SAPS   C25 1906   4.896   5.302   2.664 -0.3940 -0.0873 -0.2281
   15SAPS   H5R 1907   4.924   5.337   2.564  2.5476  1.3042  1.0359
   15SAPS   C26 1908   4.822   5.193   2.676  0.3859 -0.6400  0.1708
   15SAPS   H6R 1909   4.789   5.146   2.583 -0.1359  1.9256 -1.0002
   15SAPS   C27 1910   4.777   5.120   2.799  0.9324  0.0647 -0.1375
   15SAPS   H7R 1911   4.862   5.117   2.871  0.9088  3.7069  0.1362
   15SAPS   H7S 1912   4.769   5.012   2.774  0.8117 -0.3991  1.8528
   15SAPS   C28 1913   4.642   5.173   2.850 -0.9620  0.5220  0.2562
   15SAPS   H8R 1914   4.578   5.213   2.770 -2.6173 -0.9352  0.8341
   15SAPS   C29 1915   4.596   5.187   2.976  0.2637 -0.6317  0.9217
   15SAPS   H9R 1916   4.509   5.249   3.005 -1.6825 -1.8572 -2.0327
   15SAPS  C210 1917   4.678   5.153   3.097  0.0221  0.2526 -0.3643
   15SAPS  H10R 1918   4.788   5.168   3.088  0.3394 -0.4326  2.0962
   15SAPS  H10S 1919   4.668   5.043   3.111  1.2382  0.2235  0.3517
   15SAPS  C211 1920   4.634   5.222   3.231 -0.0266  1.8335  0.1857
   15SAPS  H11R 1921   4.542   5.181   3.276 -0.8630  2.7691 -0.6664
   15SAPS  C212 1922   4.690   5.329   3.290 -0.1447  0.1985 -0.2955
   15SAPS  H12R 1923   4.636   5.380   3.372  1.3611  1.3637  0.0052
   15SAPS  C213 1924   4.801   5.397   3.222 -0.5325  0.5443  0.5150
   15SAPS  H13R 1925   4.869   5.327   3.169  2.3673  2.0641  2.0358
   15SAPS  H13S 1926   4.872   5.434   3.300  1.4691  0.4905 -1.2472
   15SAPS  C214 1927   4.762   5.499   3.118  0.5330  0.0011 -0.0058
   15SAPS  H14R 1928   4.704   5.452   3.037 -0.6654  0.5069  0.5413
   15SAPS  C215 1929   4.782   5.626   3.116 -0.0540  0.5233  0.3475
   15SAPS  H15R 1930   4.719   5.687   3.050 -1.9444  0.3644  1.9553
   15SAPS  C216 1931   4.850   5.700   3.224 -0.8355 -1.1398 -0.0886
   15SAPS  H16R 1932   4.890   5.792   3.175 -1.4172 -1.5559 -1.3809
   15SAPS  H16S 1933   4.942   5.651   3.263 -0.8625 -2.2736 -1.4128
   15SAPS  C217 1934   4.758   5.731   3.340 -0.5181  0.4626 -0.1656
   15SAPS  H17R 1935   4.719   5.639   3.389 -0.4341 -0.7630 -2.3485
   15SAPS  H17S 1936   4.670   5.792   3.311 -0.2541  1.3772  0.9151
   15SAPS  C218 1937   4.830   5.798   3.467  0.6607 -0.5940  0.2113
   15SAPS  H18R 1938   4.743   5.830   3.528  0.8808 -0.6949  0.5782
   15SAPS  H18S 1939   4.880   5.892   3.437  2.0802 -1.2581  0.4434
   15SAPS  C219 1940   4.917   5.712   3.556 -0.5989 -0.4183 -0.5217
   15SAPS  H19R 1941   5.016   5.693   3.509 -0.1815 -0.5215  0.3911
   15SAPS  H19S 1942   4.868   5.615   3.579 -0.5977 -0.6934 -1.6485
   15SAPS  C220 1943   4.954   5.777   3.694 -0.2656 -0.5252 -0.2585
   15SAPS  H20R 1944   4.883   5.764   3.778 -0.2651  0.5555 -0.0932
   15SAPS  H20S 1945   4.965   5.886   3.680  1.8427 -0.5728  0.7246
   15SAPS  H20T 1946   5.049   5.729   3.727  0.6247  0.1292 -1.8030
   15SAPS   C33 1947   4.440   6.094   3.089  0.1872  0.7621 -0.2274
   15SAPS   H3X 1948   4.404   6.157   3.005 -0.0347  1.9552  0.7561
   15SAPS   H3Y 1949   4.489   6.162   3.161  0.1719 -0.6200  1.1214
   15SAPS   C34 1950   4.316   6.035   3.163  0.1189 -0.6504  0.0223
   15SAPS   H4X 1951   4.285   5.948   3.101 -2.1784 -1.2310  1.9069
   15SAPS   H4Y 1952   4.229   6.104   3.160 -2.8519 -4.1607  0.7434
   15SAPS   C35 1953   4.338   5.968   3.305  0.3698 -0.2395  0.3186
   15SAPS   H5X 1954   4.431   5.907   3.300  0.2185 -0.5040  0.7346
   15SAPS   H5Y 1955   4.254   5.907   3.343 -0.5075  0.1645 -0.9455
   15SAPS   C36 1956   4.338   6.080   3.417  0.0823  0.4029  0.6601
   15SAPS   H6X 1957   4.255   6.153   3.407  0.2415  0.5742  0.6094
   15SAPS   H6Y 1958   4.426   6.142   3.392 -1.2212  2.3362  0.7536
   15SAPS   C37 1959   4.349   6.028   3.558 -0.1599 -0.2448  0.7373
   15SAPS   H7X 1960   4.259   5.975   3.598 -0.3420 -0.6053 -0.1503
   15SAPS   H7Y 1961   4.352   6.119   3.622 -0.6970  0.1915  0.1540
   15SAPS   C38 1962   4.463   5.926   3.603 -0.0584 -0.5031 -0.0579
   15SAPS   H8X 1963   4.554   5.989   3.604 -0.8135  0.6387 -1.1953
   15SAPS   H8Y 1964   4.470   5.841   3.531  1.9444  0.3980 -0.9544
   15SAPS   C39 1965   4.439   5.868   3.750 -1.2331 -0.3951 -0.9117
   15SAPS   H9X 1966   4.356   5.795   3.752 -2.7171  1.2773 -0.1177
   15SAPS   H9Y 1967   4.422   5.958   3.813  0.2007 -1.0145  0.3900
   15SAPS  C310 1968   4.564   5.799   3.795  0.0493 -0.1314  0.0566
   15SAPS  H10X 1969   4.650   5.868   3.785 -0.0125 -0.2674 -1.4629
   15SAPS  H10Y 1970   4.573   5.702   3.741  0.9433 -0.3652  0.6101
   15SAPS  C311 1971   4.549   5.762   3.952  1.0613  0.2360 -0.1026
   15SAPS  H11X 1972   4.470   5.685   3.968  1.0833 -0.1017 -1.5988
   15SAPS  H11Y 1973   4.506   5.853   3.999 -2.2268 -0.3127 -1.9750
   15SAPS  C312 1974   4.688   5.742   4.023  0.8997 -0.7602  0.6112
   15SAPS  H12X 1975   4.737   5.841   4.012  1.3830 -1.0857 -0.1797
   15SAPS  H12Y 1976   4.755   5.663   3.983  0.6382 -0.6665 -0.0353
   15SAPS  C313 1977   4.674   5.713   4.175 -1.0607 -0.3292 -0.0290
   15SAPS  H13X 1978   4.601   5.630   4.193 -0.9476 -0.3438  0.3722
   15SAPS  H13Y 1979   4.625   5.801   4.221 -0.7706  0.4104 -1.1349
   15SAPS  C314 1980   4.809   5.682   4.236  0.3124  0.4243  0.0035
   15SAPS  H14X 1981   4.884   5.763   4.218 -0.1698  1.1498  1.1991
   15SAPS  H14Y 1982   4.850   5.601   4.172 -0.9100 -0.0028 -0.2564
   15SAPS  C315 1983   4.796   5.655   4.388 -0.3063 -0.6183  0.3434
   15SAPS  H15X 1984   4.737   5.566   4.416  1.4334 -1.3436  1.7748
   15SAPS  H15Y 1985   4.767   5.754   4.430  2.1004  0.2611  0.0272
   15SAPS  C316 1986   4.937   5.620   4.438 -0.0460 -0.1298 -0.0778
   15SAPS  H16X 1987   5.004   5.709   4.428  0.0676 -0.0332  1.4930
   15SAPS  H16Y 1988   4.996   5.542   4.385  2.3664  0.7162  1.2639
   15SAPS  C317 1989   4.939   5.585   4.589  0.1565  0.2988  0.1246
   15SAPS  H17X 1990   5.049   5.579   4.605  0.2274 -0.3694 -0.5790
   15SAPS  H17Y 1991   4.882   5.490   4.602  1.9285 -0.8514 -0.2395
   15SAPS  C318 1992   4.878   5.679   4.688 -0.2390  0.2205  0.8992
   15SAPS  H18X 1993   4.768   5.690   4.682  0.0563  4.3291  1.2481
   15SAPS  H18Y 1994   4.920   5.782   4.681 -2.2686  1.1019  1.4074
   15SAPS  H18Z 1995   4.906   5.650   4.791  0.0314  2.2614  1.4320
   16SAPS     N 1996   6.342   4.354   2.131 -0.1320  0.1413  0.4422
   16SAPS   HN1 1997   6.417   4.282   2.137  0.7220  1.0183  0.4772
   16SAPS   HN2 1998   6.290   4.360   2.221  1.9699  1.0664  1.6350
   16SAPS   HN3 1999   6.266   4.311   2.074 -3.3734  2.9313  2.4701
   16SAPS   C12 2000   6.387   4.484   2.082 -0.1021  0.3488  0.4581
   16SAPS  H12A 2001   6.424   4.542   2.165  2.2127  0.1907 -0.4337
   16SAPS   C13 2002   6.497   4.497   1.975  0.0467 -0.0522  0.6298
   16SAPS  O13A 2003   6.533   4.393   1.910  0.2531  0.1446  0.5983
   16SAPS  O13B 2004   6.541   4.612   1.955  0.2819 -1.1118 -0.2639
   16SAPS   C11 2005   6.262   4.558   2.020  0.4383 -0.7209 -0.1122
   16SAPS  H11A 2006   6.240   4.494   1.931  3.1009 -0.3867 -1.0520
   16SAPS  H11B 2007   6.287   4.658   1.980  0.9325 -0.8228 -0.0592
   16SAPS     P 2008   6.104   4.671   2.194 -0.4913  0.1117 -0.3311
   16SAPS   O13 2009   6.212   4.774   2.203  0.3751  0.1689 -0.2606
   16SAPS   O14 2010   5.973   4.717   2.138 -0.3908  0.0542  0.1129
   16SAPS   O12 2011   6.149   4.551   2.109 -0.3691  0.3460 -0.1072
   16SAPS   O11 2012   6.084   4.600   2.335 -0.0760 -0.4813  0.1668
   16SAPS    C1 2013   6.003   4.486   2.355  0.6224  0.4130  0.4389
   16SAPS    HA 2014   5.955   4.454   2.260  0.9966 -0.0692  0.4100
   16SAPS    HB 2015   6.067   4.406   2.397 -1.1169 -0.7206  0.9794
   16SAPS    C2 2016   5.893   4.514   2.459  0.0198 -0.3354 -0.0473
   16SAPS    HS 2017   5.852   4.615   2.438  0.8210  0.1958  0.9076
   16SAPS   O21 2018   5.947   4.510   2.594  0.0067  0.7141  0.3890
   16SAPS   C21 2019   5.917   4.596   2.678  0.4917 -0.3404 -0.0007
   16SAPS   O22 2020   5.838   4.690   2.660 -0.0288 -0.0307  0.4852
   16SAPS   C22 2021   6.009   4.585   2.802  0.7555  0.0342  0.5262
   16SAPS   H2R 2022   6.046   4.481   2.815 -0.2184 -0.0337  3.0321
   16SAPS   H2S 2023   6.090   4.653   2.766  1.3553  0.0529  1.8695
   16SAPS    C3 2024   5.775   4.408   2.458 -0.0801 -0.4912 -0.0419
   16SAPS    HX 2025   5.818   4.306   2.451 -1.6313 -1.2846  1.5927
   16SAPS    HY 2026   5.715   4.425   2.366 -0.5601 -2.1254 -0.0456
   16SAPS   O31 2027   5.692   4.420   2.575  0.4660 -0.7937 -0.1166
   16SAPS   C31 2028   5.575   4.485   2.567 -0.6547 -0.9308  0.3770
   16SAPS   O32 2029   5.525   4.519   2.456 -0.5514  0.4096 -0.1804
   16SAPS   C32 2030   5.527   4.523   2.703  0.2275  0.3137  0.1224
   16SAPS   H2X 2031   5.609   4.496   2.773  1.3630  0.7832 -1.0177
   16SAPS   H2Y 2032   5.434   4.468   2.730  0.9291 -0.2450  1.4962
   16SAPS   C23 2033   5.946   4.640   2.929  0.0581  0.2224  0.7301
   16SAPS   H3R 2034   5.854   4.584   2.956  0.3951 -0.0725  1.2659
   16SAPS   H3S 2035   5.917   4.746   2.911  0.1272  0.1394  0.1182
   16SAPS   C24 2036   6.039   4.633   3.052  0.1288  0.2591  0.4295
   16SAPS   H4R 2037   6.036   4.724   3.116 -3.3074  0.4384  0.0901
   16SAPS   H4S 2038   6.143   4.629   3.014  1.3342 -1.6744  3.6751
   16SAPS   C25 2039   6.023   4.504   3.126  0.1316  0.3430  0.2890
   16SAPS   H5R 2040   6.045   4.413   3.069  0.0261  0.5585 -0.0914
   16SAPS   C26 2041   6.002   4.497   3.261  0.4258  0.0414 -0.0688
   16SAPS   H6R 2042   6.012   4.396   3.303 -1.7640 -0.3437 -0.4105
   16SAPS   C27 2043   5.983   4.615   3.357  0.3405 -0.5932  0.1153
   16SAPS   H7R 2044   6.060   4.694   3.342  0.5437 -0.8789 -0.3385
   16SAPS   H7S 2045   6.001   4.578   3.460 -0.0134 -1.3495 -0.0959
   16SAPS   C28 2046   5.841   4.683   3.369 -0.1119 -0.4248  0.8860
   16SAPS   H8R 2047   5.821   4.774   3.311  2.0068 -0.9136 -0.6878
   16SAPS   C29 2048   5.743   4.650   3.451  0.3870  0.1659 -0.1663
   16SAPS   H9R 2049   5.663   4.725   3.455  0.3572  0.1261 -0.0264
   16SAPS  C210 2050   5.742   4.544   3.553 -0.5073 -0.0904 -0.3513
   16SAPS  H10R 2051   5.839   4.538   3.607 -0.9061  1.3436  0.5433
   16SAPS  H10S 2052   5.727   4.453   3.491 -1.5005 -0.7493  0.8538
   16SAPS  C211 2053   5.624   4.541   3.652 -0.7257  0.3992  0.4398
   16SAPS  H11R 2054   5.554   4.626   3.651 -1.0098  0.1759  0.8174
   16SAPS  C212 2055   5.609   4.453   3.751  0.3167  0.2307 -0.2065
   16SAPS  H12R 2056   5.519   4.465   3.813  0.4858  2.0184 -0.2999
   16SAPS  C213 2057   5.707   4.341   3.783 -0.1148 -0.4693 -0.4243
   16SAPS  H13R 2058   5.801   4.353   3.726  1.3778 -0.4657  1.9630
   16SAPS  H13S 2059   5.683   4.243   3.736  0.7815  0.0885 -2.0829
   16SAPS  C214 2060   5.734   4.318   3.930  0.0613  0.8151 -0.6437
   16SAPS  H14R 2061   5.795   4.394   3.981  0.1046  0.7646 -0.6215
   16SAPS  C215 2062   5.709   4.199   3.999  0.3921  0.7188 -0.0070
   16SAPS  H15R 2063   5.733   4.191   4.106  0.3355  0.6580  0.0008
   16SAPS  C216 2064   5.664   4.071   3.944  0.5522 -0.1542 -0.2468
   16SAPS  H16R 2065   5.658   4.065   3.833  0.4411 -3.5831 -0.1146
   16SAPS  H16S 2066   5.570   4.037   3.992  2.4622 -1.4750  2.6856
   16SAPS  C217 2067   5.767   3.961   3.971  0.4982 -0.0574  0.3052
   16SAPS  H17R 2068   5.711   3.868   3.946  3.6687 -1.5142 -1.7480
   16SAPS  H17S 2069   5.796   3.961   4.079  0.2309  1.8036  0.3852
   16SAPS  C218 2070   5.889   3.973   3.881 -0.2988 -0.7602  0.3764
   16SAPS  H18R 2071   5.968   3.906   3.920 -0.3707 -0.2271  1.4626
   16SAPS  H18S 2072   5.924   4.079   3.887 -0.6315 -0.5514 -1.2640
   16SAPS  C219 2073   5.860   3.934   3.733 -0.0840  0.0642 -1.2558
   16SAPS  H19R 2074   5.820   4.023   3.680 -0.0385 -0.2027 -1.7401
   16SAPS  H19S 2075   5.786   3.853   3.745 -0.3552  0.3418 -1.0598
   16SAPS  C220 2076   5.981   3.885   3.659 -0.0002 -0.3575  0.3302
   16SAPS  H20R 2077   6.061   3.961   3.650  0.7378 -1.1011  0.5172
   16SAPS  H20S 2078   5.953   3.862   3.554 -0.2290  2.2195 -0.2058
   16SAPS  H20T 2079   6.021   3.792   3.705  0.7929 -1.3502 -2.3031
   16SAPS   C33 2080   5.505   4.676   2.726  0.7515  0.1080 -0.3410
   16SAPS   H3X 2081   5.436   4.713   2.647  1.9254  0.2538 -1.3208
   16SAPS   H3Y 2082   5.597   4.738   2.723  0.3865  0.6009 -2.5230
   16SAPS   C34 2083   5.432   4.701   2.861  0.6684 -0.2775 -0.3305
   16SAPS   H4X 2084   5.333   4.653   2.847  0.6527 -0.2107 -0.4458
   16SAPS   H4Y 2085   5.427   4.811   2.879  0.6695  0.5457 -4.9774
   16SAPS   C35 2086   5.498   4.638   2.985  0.0033 -0.1500  0.7700
   16SAPS   H5X 2087   5.608   4.653   2.987 -0.0441  0.0722  2.5895
   16SAPS   H5Y 2088   5.488   4.527   2.986  0.3811 -0.3255 -3.2335
   16SAPS   C36 2089   5.441   4.688   3.121 -0.4056  0.1496  0.1597
   16SAPS   H6X 2090   5.433   4.799   3.112  1.6635  0.3322  0.3110
   16SAPS   H6Y 2091   5.516   4.660   3.198  0.5189  0.8451 -0.4718
   16SAPS   C37 2092   5.298   4.638   3.161 -0.2014  0.4213 -0.6893
   16SAPS   H7X 2093   5.279   4.530   3.146  0.8948  0.5126 -3.1031
   16SAPS   H7Y 2094   5.222   4.695   3.103 -1.7659  1.8885  2.6834
   16SAPS   C38 2095   5.276   4.674   3.310 -0.9297  0.0289 -0.5812
   16SAPS   H8X 2096   5.170   4.701   3.327 -0.8503  0.5112 -0.8471
   16SAPS   H8Y 2097   5.321   4.775   3.316  0.4278 -0.4836 -1.8528
   16SAPS   C39 2098   5.327   4.576   3.410 -0.3090  0.1199 -0.1168
   16SAPS   H9X 2099   5.438   4.576   3.415 -0.3351  3.8871  1.9323
   16SAPS   H9Y 2100   5.292   4.473   3.384  0.3768 -0.2773  0.5245
   16SAPS  C310 2101   5.276   4.607   3.550  0.2980 -0.3185  0.2446
   16SAPS  H10X 2102   5.321   4.545   3.630 -0.9649 -1.2097  0.2639
   16SAPS  H10Y 2103   5.165   4.600   3.549  0.3086 -0.4931  0.3014
   16SAPS  C311 2104   5.292   4.748   3.594  0.2861 -1.2743 -0.4788
   16SAPS  H11X 2105   5.239   4.820   3.528  0.8615 -0.0437  0.3543
   16SAPS  H11Y 2106   5.395   4.790   3.602 -0.7036  0.9973  0.9945
   16SAPS  C312 2107   5.241   4.760   3.742 -0.1827 -0.8867  0.3987
   16SAPS  H12X 2108   5.285   4.677   3.801  0.2943 -1.3421 -0.5893
   16SAPS  H12Y 2109   5.131   4.755   3.729 -0.3789  0.7019  1.2369
   16SAPS  C313 2110   5.269   4.902   3.799  0.2333  0.5217  0.4226
   16SAPS  H13X 2111   5.215   4.929   3.892 -0.4285  1.2023 -0.1510
   16SAPS  H13Y 2112   5.237   4.970   3.717  0.3975 -1.9087 -1.7535
   16SAPS  C314 2113   5.415   4.932   3.844 -0.4147 -0.6736  0.0049
   16SAPS  H14X 2114   5.418   5.041   3.866  1.8199 -1.2056  2.7089
   16SAPS  H14Y 2115   5.493   4.909   3.768 -1.0815 -1.5147 -0.4317
   16SAPS  C315 2116   5.459   4.854   3.968  0.5837  0.0074 -0.1463
   16SAPS  H15X 2117   5.461   4.747   3.940 -1.1177 -0.3062  0.8440
   16SAPS  H15Y 2118   5.372   4.872   4.035  0.9017 -1.4364  0.6776
   16SAPS  C316 2119   5.596   4.902   4.019  0.9188 -0.2195  0.6410
   16SAPS  H16X 2120   5.606   4.847   4.115 -0.2708 -0.6668  0.5235
   16SAPS  H16Y 2121   5.599   5.011   4.042  1.2676  0.1432 -1.0636
   16SAPS  C317 2122   5.703   4.857   3.933 -0.4587  0.2893 -0.7098
   16SAPS  H17X 2123   5.697   4.916   3.838 -1.9507 -2.0574 -2.1042
   16SAPS  H17Y 2124   5.689   4.754   3.893 -1.6402  1.5807 -3.8042
   16SAPS  C318 2125   5.841   4.883   3.993 -0.0429 -0.1896 -0.3987
   16SAPS  H18X 2126   5.915   4.852   3.916  0.8733  2.3148 -0.5556
   16SAPS  H18Y 2127   5.878   4.826   4.082  0.7874  0.1700 -0.5098
   16SAPS  H18Z 2128   5.868   4.987   4.021 -0.7720 -0.3374  0.8937
   17SAPS     N 2129   2.365   5.672   2.212  0.0528  0.0100 -0.0414
   17SAPS   HN1 2130   2.460   5.704   2.240 -0.1546  0.8962 -0.3469
   17SAPS   HN2 2131   2.344   5.589   2.272  0.6974  0.1596  0.3904
   17SAPS   HN3 2132   2.367   5.651   2.111 -1.3488 -1.6126  0.2368
   17SAPS   C12 2133   2.265   5.791   2.218  0.0028  0.5543  0.0576
   17SAPS  H12A 2134   2.273   5.830   2.318  0.3304 -0.1015  0.2933
   17SAPS   C13 2135   2.303   5.911   2.121 -0.8505 -0.3519  0.3042
   17SAPS  O13A 2136   2.394   5.893   2.044 -0.0126  0.5125  0.9561
   17SAPS  O13B 2137   2.249   6.018   2.140 -0.0698 -0.1461 -0.2088
   17SAPS   C11 2138   2.121   5.743   2.189  0.2911  0.4176  0.1553
   17SAPS  H11A 2139   2.121   5.702   2.086 -0.1146  1.6867 -0.3627
   17SAPS  H11B 2140   2.046   5.825   2.194  1.3602  1.5594 -2.0267
   17SAPS     P 2141   1.987   5.626   2.393  0.2846  0.1183 -0.1294
   17SAPS   O13 2142   1.872   5.717   2.359  0.1189  0.4527 -0.3721
   17SAPS   O14 2143   1.956   5.486   2.433  0.4115  0.1113  0.2964
   17SAPS   O12 2144   2.089   5.625   2.276  0.3767 -0.7258  0.3232
   17SAPS   O11 2145   2.076   5.712   2.493  0.2239  0.4240 -0.3880
   17SAPS    C1 2146   2.183   5.648   2.576 -0.4082 -0.3644  0.0838
   17SAPS    HA 2147   2.238   5.569   2.520 -0.9099  1.4422 -3.0840
   17SAPS    HB 2148   2.259   5.724   2.602  0.0681 -0.7071 -0.2994
   17SAPS    C2 2149   2.126   5.587   2.706 -0.5057  0.0558 -0.7700
   17SAPS    HS 2150   2.088   5.484   2.685 -0.9783 -0.5770  2.8960
   17SAPS   O21 2151   2.018   5.672   2.756  0.4234 -0.0766 -0.4406
   17SAPS   C21 2152   1.941   5.614   2.849  0.4308  0.2956  0.8214
   17SAPS   O22 2153   1.920   5.495   2.857 -0.7104  0.5724  0.0992
   17SAPS   C22 2154   1.889   5.723   2.938  0.6915 -0.4651  0.3448
   17SAPS   H2R 2155   1.959   5.708   3.023 -0.0173  1.2600  1.2578
   17SAPS   H2S 2156   1.888   5.820   2.884  2.3223 -0.6328  0.0035
   17SAPS    C3 2157   2.239   5.563   2.816 -0.8862  0.0274 -0.3719
   17SAPS    HX 2158   2.303   5.477   2.789  0.2625  1.2300 -1.5877
   17SAPS    HY 2159   2.192   5.535   2.913 -0.1038 -0.3658 -0.1023
   17SAPS   O31 2160   2.320   5.683   2.817  0.6006  0.2354 -0.1106
   17SAPS   C31 2161   2.291   5.777   2.904 -0.6736 -0.2520 -0.0127
   17SAPS   O32 2162   2.198   5.769   2.987 -0.1703 -0.0516  0.1311
   17SAPS   C32 2163   2.390   5.891   2.891  0.1628 -0.3581 -0.3599
   17SAPS   H2X 2164   2.443   5.884   2.793  2.1085 -1.1904  0.7333
   17SAPS   H2Y 2165   2.457   5.893   2.979  0.3769  1.9056 -0.5386
   17SAPS   C23 2166   1.749   5.689   2.996  0.4188 -0.2714 -0.3218
   17SAPS   H3R 2167   1.759   5.594   3.054 -0.6753  0.1533  0.5875
   17SAPS   H3S 2168   1.668   5.675   2.921  0.3912 -0.4235 -0.2654
   17SAPS   C24 2169   1.695   5.802   3.095 -0.4392 -0.1318 -0.8884
   17SAPS   H4R 2170   1.597   5.768   3.135  0.3091 -0.8039  0.4276
   17SAPS   H4S 2171   1.683   5.892   3.032  2.7071  1.6314  0.8676
   17SAPS   C25 2172   1.799   5.834   3.211 -0.3647 -0.5078  0.3545
   17SAPS   H5R 2173   1.897   5.874   3.181  0.5878 -2.7557  0.4096
   17SAPS   C26 2174   1.768   5.819   3.344  0.6317 -0.4225 -0.0065
   17SAPS   H6R 2175   1.843   5.829   3.425  0.0966  0.6472  0.3665
   17SAPS   C27 2176   1.637   5.768   3.398  1.1513 -0.0495  1.1947
   17SAPS   H7R 2177   1.556   5.808   3.332  0.0491 -1.8820  1.4020
   17SAPS   H7S 2178   1.623   5.809   3.500  1.7879 -1.4128  1.8394
   17SAPS   C28 2179   1.635   5.615   3.406  0.6683 -0.2014 -0.2679
   17SAPS   H8R 2180   1.651   5.563   3.311  0.6690  1.0828 -0.9908
   17SAPS   C29 2181   1.600   5.546   3.518 -0.5820  0.6413  0.5652
   17SAPS   H9R 2182   1.589   5.436   3.514 -1.0354  0.6430  1.5338
   17SAPS  C210 2183   1.560   5.605   3.651  1.0651 -0.4550  0.7769
   17SAPS  H10R 2184   1.459   5.650   3.641  1.7550  0.9025 -0.2949
   17SAPS  H10S 2185   1.618   5.686   3.700  0.6124 -0.6080  1.5871
   17SAPS  C211 2186   1.544   5.502   3.759  0.1287 -0.4561  0.0065
   17SAPS  H11R 2187   1.443   5.461   3.773  0.1362 -0.7943 -0.8701
   17SAPS  C212 2188   1.637   5.453   3.841 -0.2311  0.7463 -0.4652
   17SAPS  H12R 2189   1.604   5.364   3.897  1.9058 -1.1281 -2.0871
   17SAPS  C213 2190   1.781   5.493   3.849  0.4684  0.0488 -1.1075
   17SAPS  H13R 2191   1.823   5.524   3.750  1.0169 -0.2880 -0.9826
   17SAPS  H13S 2192   1.844   5.405   3.874 -0.4658 -0.7728 -1.5902
   17SAPS  C214 2193   1.802   5.602   3.950 -0.3474 -0.3547 -0.5210
   17SAPS  H14R 2194   1.713   5.663   3.975 -0.4407  0.5932 -3.0304
   17SAPS  C215 2195   1.924   5.613   4.012  0.3971  0.2531 -0.4817
   17SAPS  H15R 2196   1.932   5.683   4.097 -0.2554 -1.3140  0.9044
   17SAPS  C216 2197   2.045   5.522   3.983 -0.7500  0.3179 -0.4199
   17SAPS  H16R 2198   2.146   5.562   3.960 -0.0260 -0.3200  1.5640
   17SAPS  H16S 2199   2.037   5.465   3.888 -0.6372  1.5440 -1.1748
   17SAPS  C217 2200   2.070   5.427   4.101 -0.2554 -0.8556  0.4819
   17SAPS  H17R 2201   1.998   5.343   4.089  0.1552 -1.0904 -0.3496
   17SAPS  H17S 2202   2.034   5.479   4.193  2.6050 -2.0033  2.3378
   17SAPS  C218 2203   2.215   5.385   4.115  1.1153  0.0899 -0.2735
   17SAPS  H18R 2204   2.210   5.324   4.207  1.2699  1.0667  0.3941
   17SAPS  H18S 2205   2.285   5.469   4.133 -0.6923  1.1176  2.2981
   17SAPS  C219 2206   2.267   5.306   3.992  0.6302 -0.0870  0.6782
   17SAPS  H19R 2207   2.378   5.305   3.992  0.6772  0.5206 -1.9571
   17SAPS  H19S 2208   2.228   5.355   3.901  0.5142 -0.0080  0.7708
   17SAPS  C220 2209   2.218   5.158   3.981  0.4135  0.8221 -0.0741
   17SAPS  H20R 2210   2.109   5.145   3.997  0.6237 -2.3308 -0.8963
   17SAPS  H20S 2211   2.265   5.088   4.053 -0.1343 -0.2181 -0.7003
   17SAPS  H20T 2212   2.231   5.117   3.878  0.6225  0.7462 -0.0188
   17SAPS   C33 2213   2.320   6.033   2.898 -0.0372 -0.1111 -0.0728
   17SAPS   H3X 2214   2.238   6.035   2.823 -0.5214  0.3516  0.4573
   17SAPS   H3Y 2215   2.394   6.108   2.863  0.6592 -0.2789  1.0232
   17SAPS   C34 2216   2.264   6.070   3.035  0.3523  0.6831 -0.5541
   17SAPS   H4X 2217   2.351   6.085   3.103 -0.3584  0.2087  0.4541
   17SAPS   H4Y 2218   2.189   6.007   3.085 -0.1821  0.1722 -1.9660
   17SAPS   C35 2219   2.185   6.201   3.012 -1.0227 -0.4131 -0.0696
   17SAPS   H5X 2220   2.108   6.188   2.934 -0.2888  1.7494 -1.1974
   17SAPS   H5Y 2221   2.265   6.272   2.981 -0.8979  0.0850  1.3397
   17SAPS   C36 2222   2.113   6.257   3.136  0.5937  0.6020 -0.6615
   17SAPS   H6X 2223   2.046   6.182   3.185 -0.1200  1.4901 -0.2540
   17SAPS   H6Y 2224   2.052   6.345   3.107 -0.7189  0.4358  1.4547
   17SAPS   C37 2225   2.209   6.297   3.252 -0.1414  0.7362 -0.1698
   17SAPS   H7X 2226   2.278   6.375   3.213 -0.6048  1.4846  0.4852
   17SAPS   H7Y 2227   2.282   6.223   3.291  0.1506  0.9099 -0.3849
   17SAPS   C38 2228   2.129   6.350   3.376  0.4849 -0.1136  0.1703
   17SAPS   H8X 2229   2.036   6.389   3.330  0.6684  0.9591  0.7108
   17SAPS   H8Y 2230   2.191   6.427   3.426  0.7801  0.7913 -1.5548
   17SAPS   C39 2231   2.103   6.244   3.490 -0.1852  0.0155  0.2980
   17SAPS   H9X 2232   2.199   6.217   3.539  0.4540 -1.2076 -1.5359
   17SAPS   H9Y 2233   2.061   6.148   3.452  0.4715 -0.6634  1.2614
   17SAPS  C310 2234   1.993   6.288   3.586 -0.5224 -0.2076 -0.5595
   17SAPS  H10X 2235   1.956   6.208   3.654  1.0136 -1.2373 -0.9098
   17SAPS  H10Y 2236   1.903   6.310   3.525 -0.4498  1.2967 -0.1458
   17SAPS  C311 2237   2.024   6.414   3.671  0.0225  0.2978  0.3511
   17SAPS  H11X 2238   2.035   6.495   3.596 -0.4140  1.4422  1.4994
   17SAPS  H11Y 2239   2.113   6.403   3.736 -0.8299 -0.0743  1.4779
   17SAPS  C312 2240   1.906   6.449   3.775  0.2933  0.7781  0.5823
   17SAPS  H12X 2241   1.808   6.446   3.723  0.7090  1.6908 -0.2566
   17SAPS  H12Y 2242   1.925   6.551   3.813  0.9678  0.9285 -0.1460
   17SAPS  C313 2243   1.908   6.338   3.883 -0.1147  1.1836 -0.0481
   17SAPS  H13X 2244   2.007   6.302   3.918 -0.8490 -0.5015  0.3271
   17SAPS  H13Y 2245   1.854   6.250   3.842  1.0701 -0.0395  0.9756
   17SAPS  C314 2246   1.842   6.379   4.015  0.8481 -0.4213  0.2024
   17SAPS  H14X 2247   1.904   6.464   4.052  1.4291 -0.8163  0.1396
   17SAPS  H14Y 2248   1.849   6.296   4.089  1.1246  1.8092  2.7499
   17SAPS  C315 2249   1.692   6.428   4.003 -0.8783 -0.3818 -0.2131
   17SAPS  H15X 2250   1.631   6.342   3.968 -3.2372  0.9386  0.5739
   17SAPS  H15Y 2251   1.676   6.506   3.926 -1.5693  0.3808  0.6819
   17SAPS  C316 2252   1.642   6.492   4.134 -0.7317 -0.3595 -0.0984
   17SAPS  H16X 2253   1.710   6.571   4.173 -0.6222 -1.6834  2.4753
   17SAPS  H16Y 2254   1.637   6.412   4.211 -1.6069  1.2691  1.5925
   17SAPS  C317 2255   1.494   6.546   4.123  0.0778  0.5628 -0.6311
   17SAPS  H17X 2256   1.484   6.597   4.024 -0.9795  0.8238 -0.3959
   17SAPS  H17Y 2257   1.472   6.611   4.210  1.8907  0.1104  0.1843
   17SAPS  C318 2258   1.383   6.437   4.124  0.0931  0.1742 -0.3491
   17SAPS  H18X 2259   1.390   6.379   4.219 -0.7576  2.3295  1.0472
   17SAPS  H18Y 2260   1.399   6.368   4.039  1.0863  0.0624 -0.0765
   17SAPS  H18Z 2261   1.281   6.481   4.116 -0.0255  0.1906  1.1063
   18SAPS     N 2262   6.646   3.893   2.056  0.5076 -0.0784  0.0423
   18SAPS   HN1 2263   6.635   3.972   1.989  1.2593  0.7427  0.8827
   18SAPS   HN2 2264   6.578   3.896   2.134 -0.9622 -2.3364 -1.0925
   18SAPS   HN3 2265   6.743   3.903   2.091  0.8279  0.8995 -1.0931
   18SAPS   C12 2266   6.631   3.762   1.986  0.2705 -0.0573 -0.6565
   18SAPS  H12A 2267   6.544   3.758   1.922  1.7494  1.7072 -2.8310
   18SAPS   C13 2268   6.751   3.729   1.893 -0.5009 -0.0757  0.4843
   18SAPS  O13A 2269   6.824   3.826   1.847  0.3937  0.4078  0.4332
   18SAPS  O13B 2270   6.739   3.631   1.821  0.1844  0.2289 -0.3128
   18SAPS   C11 2271   6.617   3.654   2.102  0.6122  0.5018  0.7975
   18SAPS  H11A 2272   6.689   3.670   2.185  0.3204 -0.6310  1.2744
   18SAPS  H11B 2273   6.641   3.553   2.062  0.7811  1.8258 -2.6252
   18SAPS     P 2274   6.411   3.729   2.254 -0.1382  0.3593  0.1360
   18SAPS   O13 2275   6.475   3.862   2.249  0.0304  0.3193 -0.4616
   18SAPS   O14 2276   6.269   3.728   2.236  0.3297 -0.1055  0.2904
   18SAPS   O12 2277   6.480   3.645   2.148  0.2887  0.1852  0.0337
   18SAPS   O11 2278   6.444   3.666   2.390 -0.1721 -0.6273 -0.0619
   18SAPS    C1 2279   6.481   3.537   2.416 -0.1484  0.5214 -0.6283
   18SAPS    HA 2280   6.388   3.477   2.418  0.2614 -0.1200 -0.4775
   18SAPS    HB 2281   6.555   3.504   2.339 -1.3245 -2.6919 -0.4553
   18SAPS    C2 2282   6.554   3.525   2.555 -1.2445 -0.2762 -0.0018
   18SAPS    HS 2283   6.476   3.555   2.628  0.1332  0.2722  1.2685
   18SAPS   O21 2284   6.666   3.614   2.551  0.1796  0.1792 -0.3363
   18SAPS   C21 2285   6.725   3.623   2.666 -0.7821 -0.6725 -0.0972
   18SAPS   O22 2286   6.675   3.596   2.775 -0.0696  0.3188 -0.3764
   18SAPS   C22 2287   6.857   3.684   2.633  0.2218 -0.0357  0.8041
   18SAPS   H2R 2288   6.921   3.598   2.603 -2.3324 -2.0857  1.0740
   18SAPS   H2S 2289   6.854   3.750   2.544 -0.2724 -1.1786 -0.0268
   18SAPS    C3 2290   6.601   3.378   2.581 -0.1079  1.0345  0.1488
   18SAPS    HX 2291   6.704   3.368   2.541 -0.1332 -1.9949  0.7139
   18SAPS    HY 2292   6.535   3.315   2.516  1.6088 -0.4169 -0.2263
   18SAPS   O31 2293   6.582   3.328   2.714  0.2606  0.1426 -0.1994
   18SAPS   C31 2294   6.685   3.301   2.785  0.3059 -0.2603 -0.1926
   18SAPS   O32 2295   6.800   3.291   2.742  0.1695 -0.0812  0.3136
   18SAPS   C32 2296   6.646   3.293   2.934  0.0212  0.2987  0.0268
   18SAPS   H2X 2297   6.645   3.186   2.961 -2.3549 -0.8111 -4.0241
   18SAPS   H2Y 2298   6.548   3.344   2.946  0.7322  1.4718  0.9695
   18SAPS   C23 2299   6.922   3.750   2.754  0.9847  0.0481 -0.0248
   18SAPS   H3R 2300   6.929   3.680   2.841 -1.6679  1.6608  1.5633
   18SAPS   H3S 2301   6.861   3.835   2.791 -0.5809 -0.6044 -1.0539
   18SAPS   C24 2302   7.064   3.800   2.715  0.0023  0.1814  0.4304
   18SAPS   H4R 2303   7.053   3.887   2.648  1.4388  1.1746  1.4664
   18SAPS   H4S 2304   7.112   3.722   2.652 -0.9827  1.0014 -1.3441
   18SAPS   C25 2305   7.149   3.824   2.830  0.0027  0.9940  0.5436
   18SAPS   H5R 2306   7.147   3.931   2.853  1.5833  0.9065  1.2099
   18SAPS   C26 2307   7.219   3.733   2.895  0.0228  0.7064 -0.6457
   18SAPS   H6R 2308   7.288   3.772   2.972 -0.3013 -1.2559  0.6722
   18SAPS   C27 2309   7.245   3.585   2.877  1.4559  0.4219 -1.4433
   18SAPS   H7R 2310   7.352   3.557   2.886  1.7188  1.3916 -1.5518
   18SAPS   H7S 2311   7.224   3.567   2.770 -2.0969 -1.0299 -0.5642
   18SAPS   C28 2312   7.154   3.501   2.964  0.2714  0.1289 -0.1072
   18SAPS   H8R 2313   7.047   3.516   2.942  0.2818  0.0596 -0.2057
   18SAPS   C29 2314   7.191   3.403   3.051  0.2724  0.5862 -0.1667
   18SAPS   H9R 2315   7.111   3.358   3.111  0.2713 -0.3126 -0.8341
   18SAPS  C210 2316   7.333   3.358   3.083  0.2709 -0.2672  0.4275
   18SAPS  H10R 2317   7.397   3.367   2.992  0.4105  1.9747  0.7255
   18SAPS  H10S 2318   7.337   3.251   3.110  1.2926 -1.0297 -2.5316
   18SAPS  C211 2319   7.403   3.440   3.192  0.2309 -0.2020 -0.3204
   18SAPS  H11R 2320   7.357   3.540   3.197 -0.7421 -0.7325  2.0769
   18SAPS  C212 2321   7.465   3.403   3.302 -0.1384  0.3047  0.4821
   18SAPS  H12R 2322   7.508   3.479   3.369  1.7745 -0.6738  0.3824
   18SAPS  C213 2323   7.487   3.263   3.345  0.4071 -0.8832 -0.7655
   18SAPS  H13R 2324   7.529   3.215   3.253 -1.7808 -3.3351 -0.5429
   18SAPS  H13S 2325   7.394   3.204   3.361  0.6900 -1.5436 -1.4820
   18SAPS  C214 2326   7.581   3.247   3.459  0.3367  1.1871  0.8144
   18SAPS  H14R 2327   7.687   3.273   3.442  0.6187  0.7031  1.8191
   18SAPS  C215 2328   7.554   3.182   3.577  0.7830  0.6184  0.5883
   18SAPS  H15R 2329   7.635   3.178   3.651 -0.1164  0.1123  1.5554
   18SAPS  C216 2330   7.430   3.111   3.620  0.0247  0.2558 -0.4511
   18SAPS  H16R 2331   7.458   3.031   3.692 -1.1437 -0.6793 -1.0225
   18SAPS  H16S 2332   7.380   3.051   3.541 -1.0882 -1.6999  1.7009
   18SAPS  C217 2333   7.343   3.221   3.687 -0.5761  0.3086  0.4000
   18SAPS  H17R 2334   7.315   3.298   3.613 -1.9757 -0.2427  0.3217
   18SAPS  H17S 2335   7.401   3.264   3.772  1.5680  0.8227 -1.2976
   18SAPS  C218 2336   7.210   3.163   3.743  0.5746 -0.0742 -0.3048
   18SAPS  H18R 2337   7.227   3.132   3.849 -2.1195  2.2693  0.8777
   18SAPS  H18S 2338   7.182   3.073   3.685  1.9878 -1.4575  1.0792
   18SAPS  C219 2339   7.103   3.269   3.740 -0.4398 -0.5404  0.4700
   18SAPS  H19R 2340   7.001   3.230   3.762 -1.2799  1.2774 -0.0473
   18SAPS  H19S 2341   7.092   3.309   3.637  3.1371  0.1907  0.3108
   18SAPS  C220 2342   7.136   3.394   3.823  0.7758  0.4166  0.7095
   18SAPS  H20R 2343   7.210   3.464   3.779 -0.9428  1.4198 -0.6458
   18SAPS  H20S 2344   7.153   3.367   3.930 -1.2273  1.3973  1.2937
   18SAPS  H20T 2345   7.047   3.460   3.822  0.4717 -0.0198 -0.7587
   18SAPS   C33 2346   6.749   3.370   3.017 -0.1777 -0.0360 -0.2369
   18SAPS   H3X 2347   6.773   3.466   2.965 -0.3590 -1.4150 -2.9297
   18SAPS   H3Y 2348   6.849   3.321   3.020  0.2739  0.9232  0.8450
   18SAPS   C34 2349   6.701   3.412   3.153 -0.3964  0.7728 -0.1166
   18SAPS   H4X 2350   6.615   3.482   3.147 -0.9501 -0.0981 -3.2155
   18SAPS   H4Y 2351   6.786   3.470   3.196  0.2672  1.7116 -2.6283
   18SAPS   C35 2352   6.675   3.287   3.242  0.4083 -0.7520  0.1025
   18SAPS   H5X 2353   6.757   3.213   3.231  1.0175  0.1782 -1.7752
   18SAPS   H5Y 2354   6.576   3.250   3.206 -1.5626  0.2860  4.1336
   18SAPS   C36 2355   6.663   3.335   3.385  0.4772  0.7807 -0.1541
   18SAPS   H6X 2356   6.595   3.423   3.384 -1.1751 -0.4342  1.6464
   18SAPS   H6Y 2357   6.767   3.370   3.407  1.4025 -1.7174 -0.4716
   18SAPS   C37 2358   6.623   3.226   3.474 -0.6121  0.0997 -0.3443
   18SAPS   H7X 2359   6.669   3.126   3.461 -1.1906 -0.0086 -1.6586
   18SAPS   H7Y 2360   6.519   3.214   3.439 -0.2934 -1.5507 -0.7851
   18SAPS   C38 2361   6.638   3.267   3.621  0.1934  0.6235  0.4971
   18SAPS   H8X 2362   6.741   3.307   3.634  1.3711 -1.3954 -2.1553
   18SAPS   H8Y 2363   6.608   3.181   3.684 -1.6539  0.3278 -0.7317
   18SAPS   C39 2364   6.546   3.385   3.657  0.1433  0.4764  0.7204
   18SAPS   H9X 2365   6.440   3.375   3.624  0.3391  0.1171  0.2157
   18SAPS   H9Y 2366   6.584   3.485   3.626 -0.0831  0.6290  0.9316
   18SAPS  C310 2367   6.532   3.387   3.809 -0.8763 -0.0462  0.2401
   18SAPS  H10X 2368   6.634   3.422   3.833 -1.3151  0.1593  1.8562
   18SAPS  H10Y 2369   6.508   3.285   3.843 -2.4181 -0.3257 -1.5550
   18SAPS  C311 2370   6.425   3.491   3.856 -0.1489 -0.1701 -0.1501
   18SAPS  H11X 2371   6.331   3.470   3.802  0.9861 -1.9606 -1.4916
   18SAPS  H11Y 2372   6.457   3.591   3.820 -0.6614 -1.3506 -4.1540
   18SAPS  C312 2373   6.411   3.501   4.012  0.4764 -0.1756 -0.6141
   18SAPS  H12X 2374   6.364   3.414   4.061  1.5981  0.3485  1.4773
   18SAPS  H12Y 2375   6.338   3.582   4.035  0.0156 -1.0445  1.0275
   18SAPS  C313 2376   6.542   3.529   4.092 -0.0732  0.4905  0.2089
   18SAPS  H13X 2377   6.611   3.443   4.080 -0.4306  0.1672  0.4578
   18SAPS  H13Y 2378   6.511   3.535   4.199 -2.1849 -0.0209 -0.3444
   18SAPS  C314 2379   6.607   3.660   4.061  0.4111  0.2132  0.1760
   18SAPS  H14X 2380   6.533   3.741   4.047  0.7115  0.6518  1.1248
   18SAPS  H14Y 2381   6.662   3.645   3.966 -0.0330  0.2661 -0.0925
   18SAPS  C315 2382   6.723   3.711   4.163 -0.1487 -0.1417 -0.5175
   18SAPS  H15X 2383   6.792   3.630   4.197 -1.4142  0.0409  2.6219
   18SAPS  H15Y 2384   6.674   3.736   4.259 -0.5792 -2.8410  0.0046
   18SAPS  C316 2385   6.791   3.838   4.106 -0.0159 -0.5061  0.3651
   18SAPS  H16X 2386   6.824   3.817   4.002 -0.3844 -0.2822  0.2024
   18SAPS  H16Y 2387   6.886   3.862   4.158 -0.0953  0.6248 -0.0001
   18SAPS  C317 2388   6.715   3.969   4.126  0.1147  0.6079  0.5044
   18SAPS  H17X 2389   6.707   3.991   4.234 -0.0058  2.1782  0.1885
   18SAPS  H17Y 2390   6.615   3.948   4.083  0.2353  2.0792 -0.5296
   18SAPS  C318 2391   6.769   4.089   4.049  0.3177 -0.2533  0.6235
   18SAPS  H18X 2392   6.879   4.104   4.050  0.3217  0.2172 -1.8808
   18SAPS  H18Y 2393   6.720   4.179   4.092 -2.5169 -0.3362 -2.2238
   18SAPS  H18Z 2394   6.747   4.089   3.940 -0.5725 -1.3990  0.7852
   19SAPS     N 2395   2.498   0.636   2.155 -0.8747  0.2524  0.0159
   19SAPS   HN1 2396   2.488   0.584   2.244 -1.0659  1.8981  0.9828
   19SAPS   HN2 2397   2.597   0.664   2.140 -0.8164  0.9722  1.6732
   19SAPS   HN3 2398   2.468   0.734   2.173 -0.5284  0.6267 -1.3534
   19SAPS   C12 2399   2.434   0.573   2.038  0.2923  0.3334 -0.3144
   19SAPS  H12A 2400   2.336   0.537   2.063  0.7274  0.1897  1.2260
   19SAPS   C13 2401   2.417   0.666   1.913 -0.2457 -0.0944 -0.0320
   19SAPS  O13A 2402   2.454   0.788   1.921 -0.1894 -0.5791  0.6141
   19SAPS  O13B 2403   2.395   0.612   1.800 -0.4537  0.2403  0.7613
   19SAPS   C11 2404   2.518   0.446   2.014 -0.7774  0.1056 -0.1732
   19SAPS  H11A 2405   2.470   0.381   1.938  0.0461  0.8477 -1.3276
   19SAPS  H11B 2406   2.518   0.385   2.107 -0.4145 -0.7806 -0.7493
   19SAPS     P 2407   2.774   0.428   2.054 -0.4428 -0.3091 -0.2316
   19SAPS   O13 2408   2.757   0.294   2.114  0.1046 -0.4455 -0.1400
   19SAPS   O14 2409   2.884   0.449   1.958 -0.1018 -0.5581  0.2700
   19SAPS   O12 2410   2.650   0.474   1.975  0.0772 -0.4466 -0.8133
   19SAPS   O11 2411   2.775   0.539   2.165  0.7573 -0.2823 -0.2066
   19SAPS    C1 2412   2.896   0.602   2.212 -0.1501  0.5888 -0.4448
   19SAPS    HA 2413   2.912   0.686   2.142  1.6981  1.6670  1.2326
   19SAPS    HB 2414   2.865   0.644   2.310  0.6687 -0.4345  0.2599
   19SAPS    C2 2415   3.031   0.519   2.239 -0.2855 -0.5229 -0.4313
   19SAPS    HS 2416   3.060   0.460   2.150  1.2784  0.4469 -0.5723
   19SAPS   O21 2417   3.011   0.435   2.349  0.1485 -0.1083 -0.1305
   19SAPS   C21 2418   3.053   0.310   2.351  0.1866  0.4974  0.6719
   19SAPS   O22 2419   3.143   0.263   2.276  0.4595 -0.4477 -0.8172
   19SAPS   C22 2420   2.988   0.233   2.465  0.2716  0.3212  0.1844
   19SAPS   H2R 2421   2.960   0.137   2.417 -0.0520  0.5850 -0.1527
   19SAPS   H2S 2422   3.072   0.228   2.539  0.4417 -2.0549 -0.1209
   19SAPS    C3 2423   3.146   0.617   2.273 -0.3586  1.0160 -0.4239
   19SAPS    HX 2424   3.158   0.667   2.175 -2.2228  1.9112 -0.2080
   19SAPS    HY 2425   3.237   0.556   2.291 -0.7180  0.6980  0.3495
   19SAPS   O31 2426   3.107   0.699   2.386  0.0176 -0.2494 -1.0463
   19SAPS   C31 2427   3.172   0.814   2.390 -0.1690 -0.4267 -0.2480
   19SAPS   O32 2428   3.266   0.843   2.324  0.5318 -0.3821 -0.6161
   19SAPS   C32 2429   3.113   0.898   2.504 -0.3181  0.4009 -0.0016
   19SAPS   H2X 2430   3.008   0.919   2.475  0.1063  1.3788 -0.8456
   19SAPS   H2Y 2431   3.173   0.991   2.496 -0.2917  0.4162  0.3311
   19SAPS   C23 2432   2.869   0.288   2.552 -0.5998  0.1353 -0.5210
   19SAPS   H3R 2433   2.783   0.292   2.482  0.1780 -0.0899 -1.5110
   19SAPS   H3S 2434   2.889   0.394   2.577  0.5101 -0.0616 -0.5601
   19SAPS   C24 2435   2.832   0.202   2.679  0.5949 -0.0713 -0.9584
   19SAPS   H4R 2436   2.830   0.097   2.643 -0.0344 -1.0418  1.8006
   19SAPS   H4S 2437   2.728   0.220   2.714  1.1457 -2.4361  2.0562
   19SAPS   C25 2438   2.931   0.232   2.782 -0.1790 -0.2480 -0.0083
   19SAPS   H5R 2439   3.028   0.194   2.747  0.0304  0.2338  0.0444
   19SAPS   C26 2440   2.922   0.294   2.903  0.2956  0.0092 -0.3978
   19SAPS   H6R 2441   3.011   0.298   2.968 -0.2269 -1.8354  0.4563
   19SAPS   C27 2442   2.791   0.348   2.964 -0.0119  0.5597 -0.2494
   19SAPS   H7R 2443   2.714   0.363   2.885  0.0046  1.1726 -0.1511
   19SAPS   H7S 2444   2.831   0.445   2.999  2.9077 -0.0711 -1.6785
   19SAPS   C28 2445   2.742   0.263   3.079  0.3092  0.1994 -0.1376
   19SAPS   H8R 2446   2.795   0.167   3.088  1.1882  0.7750  0.8590
   19SAPS   C29 2447   2.635   0.290   3.163 -0.4195  0.2722 -0.2547
   19SAPS   H9R 2448   2.604   0.205   3.226  1.0113  0.2166  0.3938
   19SAPS  C210 2449   2.551   0.411   3.158 -0.9372  0.0986 -0.6002
   19SAPS  H10R 2450   2.501   0.395   3.060  0.3790 -0.8303 -1.1334
   19SAPS  H10S 2451   2.608   0.507   3.157  1.7722 -1.4643  0.1627
   19SAPS  C211 2452   2.453   0.415   3.277 -0.0831 -0.0316 -0.1141
   19SAPS  H11R 2453   2.349   0.392   3.252  0.4465  0.4118 -2.9262
   19SAPS  C212 2454   2.476   0.451   3.400  0.1116 -0.0864  0.0437
   19SAPS  H12R 2455   2.385   0.454   3.462  1.2121 -0.0244  1.6681
   19SAPS  C213 2456   2.602   0.504   3.466  0.4428  0.8548  0.1590
   19SAPS  H13R 2457   2.693   0.473   3.410 -0.9557  0.1798 -1.8048
   19SAPS  H13S 2458   2.612   0.462   3.568  0.0060  0.7491  0.1561
   19SAPS  C214 2459   2.599   0.653   3.475  0.1063 -0.4304  0.2374
   19SAPS  H14R 2460   2.599   0.707   3.379  2.5450 -1.0486 -0.1558
   19SAPS  C215 2461   2.630   0.731   3.580 -0.3898  0.3408  0.6718
   19SAPS  H15R 2462   2.620   0.840   3.572 -0.5038  0.3059  0.3424
   19SAPS  C216 2463   2.674   0.680   3.715 -0.4910 -0.7515  0.6244
   19SAPS  H16R 2464   2.756   0.741   3.760 -1.0524  2.5808 -2.6542
   19SAPS  H16S 2465   2.702   0.573   3.706  3.4447  0.1297  1.4434
   19SAPS  C217 2466   2.558   0.699   3.812 -0.1543  0.5007 -0.6431
   19SAPS  H17R 2467   2.467   0.651   3.767  1.4517 -2.7491 -0.6006
   19SAPS  H17S 2468   2.543   0.807   3.828 -0.7858  0.5159 -1.3113
   19SAPS  C218 2469   2.578   0.643   3.958 -0.3936 -0.7469  0.8916
   19SAPS  H18R 2470   2.680   0.671   3.992 -0.3839 -1.7610  1.7264
   19SAPS  H18S 2471   2.558   0.535   3.938 -2.6982 -0.0522 -0.7855
   19SAPS  C219 2472   2.485   0.697   4.068  0.7987  0.2950  0.2861
   19SAPS  H19R 2473   2.489   0.808   4.071 -0.4637  0.3265  1.0112
   19SAPS  H19S 2474   2.527   0.649   4.159 -1.9399 -0.3755  1.2403
   19SAPS  C220 2475   2.338   0.660   4.054  0.2241 -0.0481 -0.4724
   19SAPS  H20R 2476   2.268   0.687   4.136 -0.8850  0.3989 -1.5649
   19SAPS  H20S 2477   2.333   0.550   4.046 -0.9196 -0.0144 -0.2688
   19SAPS  H20T 2478   2.301   0.698   3.957 -1.2471  0.9215  0.4574
   19SAPS   C33 2479   3.130   0.824   2.635 -0.0345  0.1387 -0.1622
   19SAPS   H3X 2480   3.063   0.736   2.632 -1.1967  1.0164 -0.1500
   19SAPS   H3Y 2481   3.085   0.895   2.707 -1.8040 -1.0029 -0.1096
   19SAPS   C34 2482   3.272   0.768   2.664 -0.4306  0.6230 -0.2086
   19SAPS   H4X 2483   3.332   0.847   2.614 -1.9317  1.9014 -0.0219
   19SAPS   H4Y 2484   3.288   0.671   2.612  1.3371  1.2333 -0.8578
   19SAPS   C35 2485   3.295   0.765   2.813 -0.2983 -0.3602  0.0387
   19SAPS   H5X 2486   3.281   0.864   2.863  1.5128 -0.4585  0.7727
   19SAPS   H5Y 2487   3.402   0.741   2.832 -0.6086 -1.2493  0.6617
   19SAPS   C36 2488   3.204   0.661   2.878 -0.0041 -0.2435 -0.2176
   19SAPS   H6X 2489   3.184   0.579   2.806  0.9470 -1.9879  1.4873
   19SAPS   H6Y 2490   3.107   0.714   2.887 -1.3582 -2.7796  0.4809
   19SAPS   C37 2491   3.254   0.612   3.011 -0.1683 -0.4537 -0.0615
   19SAPS   H7X 2492   3.250   0.706   3.070 -0.9456  0.0370 -0.8967
   19SAPS   H7Y 2493   3.357   0.573   3.023  0.3771  1.1238  0.6347
   19SAPS   C38 2494   3.145   0.521   3.076 -0.3037  0.3308  0.3528
   19SAPS   H8X 2495   3.170   0.416   3.049 -0.1933  0.0072  1.6773
   19SAPS   H8Y 2496   3.042   0.543   3.041  0.5869 -2.5640 -4.4707
   19SAPS   C39 2497   3.119   0.529   3.221 -0.7300  0.2090  0.6850
   19SAPS   H9X 2498   3.063   0.621   3.249 -3.6152 -1.5754  1.0019
   19SAPS   H9Y 2499   3.218   0.539   3.272 -1.9636  1.4283  2.9349
   19SAPS  C310 2500   3.059   0.404   3.282  0.1666 -0.4268 -0.6159
   19SAPS  H10X 2501   3.133   0.321   3.285  0.5736 -0.1032 -1.6811
   19SAPS  H10Y 2502   2.972   0.357   3.230 -1.3619  1.6427 -0.0042
   19SAPS  C311 2503   3.028   0.435   3.428  0.0243 -0.5514  0.2625
   19SAPS  H11X 2504   2.984   0.537   3.430  1.3433  0.1922 -3.5302
   19SAPS  H11Y 2505   3.120   0.436   3.490  0.3537 -2.1519 -0.1701
   19SAPS  C312 2506   2.929   0.339   3.488  0.2838 -0.0344 -0.3024
   19SAPS  H12X 2507   2.856   0.335   3.404  1.9344  0.6626 -1.7834
   19SAPS  H12Y 2508   2.891   0.386   3.582 -3.1802 -0.2164 -1.5110
   19SAPS  C313 2509   2.975   0.192   3.510 -0.2567 -0.1937 -0.4383
   19SAPS  H13X 2510   3.008   0.186   3.616 -0.3619  2.4450 -0.2365
   19SAPS  H13Y 2511   3.051   0.172   3.432 -0.4813  1.1391 -0.9990
   19SAPS  C314 2512   2.872   0.075   3.503  0.0940  0.4264  0.3741
   19SAPS  H14X 2513   2.923  -0.009   3.555  0.0269 -0.6902 -1.3280
   19SAPS  H14Y 2514   2.853   0.044   3.398 -1.3929 -1.6972  1.2362
   19SAPS  C315 2515   2.726   0.097   3.567 -0.0900  0.7542  0.7133
   19SAPS  H15X 2516   2.666   0.005   3.551  0.3446  0.2983  1.6633
   19SAPS  H15Y 2517   2.683   0.182   3.510  0.9483  0.3518 -0.6731
   19SAPS  C316 2518   2.747   0.120   3.721  0.0633  0.2486  0.4346
   19SAPS  H16X 2519   2.793   0.221   3.718  0.4337  0.0542 -0.9053
   19SAPS  H16Y 2520   2.807   0.038   3.766  2.7128  1.2405 -1.1859
   19SAPS  C317 2521   2.618   0.140   3.802 -0.4097  0.5768  0.5321
   19SAPS  H17X 2522   2.564   0.046   3.780 -0.5553 -0.1562  3.7626
   19SAPS  H17Y 2523   2.566   0.232   3.770 -1.0030 -0.3536 -1.2524
   19SAPS  C318 2524   2.642   0.144   3.951 -0.2321  0.5200 -0.5515
   19SAPS  H18X 2525   2.717   0.223   3.973  1.0567 -0.5280 -1.0797
   19SAPS  H18Y 2526   2.696   0.051   3.980 -1.6964 -0.3399 -0.5610
   19SAPS  H18Z 2527   2.550   0.164   4.011 -1.9072 -1.7222 -2.3032
   20SAPS     N 2528   4.288   0.651   1.994  0.7406  0.0967  0.4340
   20SAPS   HN1 2529   4.359   0.619   2.062  0.4762 -1.7816 -0.1559
   20SAPS   HN2 2530   4.230   0.570   1.965  1.5816 -0.6611  0.8619
   20SAPS   HN3 2531   4.339   0.685   1.910 -2.8753  2.1079 -1.0743
   20SAPS   C12 2532   4.201   0.747   2.069 -0.0117  0.3152  0.0445
   20SAPS  H12A 2533   4.265   0.813   2.126  0.7690  0.5571 -1.0964
   20SAPS   C13 2534   4.099   0.835   1.990  0.5746 -0.1180 -0.8608
   20SAPS  O13A 2535   4.118   0.846   1.866 -0.2030 -0.3902  0.6760
   20SAPS  O13B 2536   4.011   0.903   2.048 -0.4525 -0.6217 -0.4770
   20SAPS   C11 2537   4.119   0.661   2.175 -0.5483 -0.6138  0.2476
   20SAPS  H11A 2538   4.043   0.611   2.111 -1.4297  0.9574  0.0648
   20SAPS  H11B 2539   4.070   0.719   2.255 -0.1817 -0.5553  0.4312
   20SAPS     P 2540   4.288   0.566   2.355 -0.0989 -0.0040  0.4242
   20SAPS   O13 2541   4.366   0.440   2.369  0.5873 -0.2352  0.2471
   20SAPS   O14 2542   4.368   0.686   2.332  0.2754 -0.5266  0.4284
   20SAPS   O12 2543   4.183   0.547   2.239 -0.0759 -0.3302  0.0282
   20SAPS   O11 2544   4.209   0.583   2.486  0.5270  0.5300  0.5083
   20SAPS    C1 2545   4.076   0.546   2.507  0.1473 -0.3161  0.1626
   20SAPS    HA 2546   4.042   0.608   2.592 -1.0986 -0.9437  0.1373
   20SAPS    HB 2547   4.019   0.566   2.413 -0.8925 -0.1876  0.8155
   20SAPS    C2 2548   4.063   0.400   2.555 -0.2733  0.1012 -0.8422
   20SAPS    HS 2549   3.976   0.395   2.625  0.3055  0.0726 -0.1235
   20SAPS   O21 2550   4.185   0.346   2.616  0.0014  0.0245  0.4880
   20SAPS   C21 2551   4.235   0.415   2.715 -0.3836  0.7755  0.4821
   20SAPS   O22 2552   4.179   0.500   2.784 -0.2244 -0.3487 -0.2351
   20SAPS   C22 2553   4.382   0.367   2.719  0.6238  0.1866  0.0285
   20SAPS   H2R 2554   4.378   0.256   2.718 -1.0085  0.1926  1.6248
   20SAPS   H2S 2555   4.427   0.404   2.625  0.7019  1.4100  0.5405
   20SAPS    C3 2556   4.030   0.302   2.436 -0.3190 -0.5015 -0.3539
   20SAPS    HX 2557   4.022   0.199   2.477 -0.2212 -0.5393 -0.4305
   20SAPS    HY 2558   4.116   0.302   2.366 -0.8214 -1.8452 -0.9869
   20SAPS   O31 2559   3.908   0.336   2.376  0.6052  0.0351  0.5082
   20SAPS   C31 2560   3.907   0.349   2.248 -0.2204  1.1923 -0.0586
   20SAPS   O32 2561   4.002   0.332   2.171 -0.1421 -0.5543  0.1258
   20SAPS   C32 2562   3.770   0.394   2.199 -0.0058  0.5972 -0.1207
   20SAPS   H2X 2563   3.699   0.310   2.211  1.1955 -0.2089  1.6491
   20SAPS   H2Y 2564   3.783   0.417   2.091  0.5257 -0.3592 -0.2699
   20SAPS   C23 2565   4.455   0.415   2.848  0.1961  0.4186 -0.3498
   20SAPS   H3R 2566   4.395   0.476   2.919 -0.5508 -0.2545 -0.4031
   20SAPS   H3S 2567   4.531   0.487   2.811  1.3039 -0.9211 -0.7412
   20SAPS   C24 2568   4.523   0.297   2.927 -0.3263 -0.5242 -0.3685
   20SAPS   H4R 2569   4.555   0.346   3.022 -2.3715  1.3856 -0.6115
   20SAPS   H4S 2570   4.619   0.278   2.875  1.3687 -0.9970  2.8207
   20SAPS   C25 2571   4.443   0.172   2.969 -0.1810  0.2189  1.0290
   20SAPS   H5R 2572   4.444   0.094   2.892  0.3232  2.0396 -0.8390
   20SAPS   C26 2573   4.347   0.171   3.072  0.6120  0.8744 -0.3667
   20SAPS   H6R 2574   4.299   0.074   3.094  0.1326  0.6114 -2.5306
   20SAPS   C27 2575   4.305   0.280   3.166 -0.1699  0.4178  0.1320
   20SAPS   H7R 2576   4.391   0.344   3.195 -0.4627  0.7084  0.3638
   20SAPS   H7S 2577   4.274   0.233   3.263 -2.3956  0.8398 -0.3469
   20SAPS   C28 2578   4.183   0.355   3.125 -0.1553 -0.0331  0.8236
   20SAPS   H8R 2579   4.161   0.371   3.018  1.2521  0.6892  0.6290
   20SAPS   C29 2580   4.081   0.393   3.198  0.0681  0.2493 -0.5889
   20SAPS   H9R 2581   4.003   0.459   3.155 -1.6639 -1.2431  0.1827
   20SAPS  C210 2582   4.062   0.374   3.348 -0.2550 -0.0952  0.3104
   20SAPS  H10R 2583   4.035   0.270   3.376 -2.9473  0.4704 -0.0243
   20SAPS  H10S 2584   3.974   0.435   3.378  0.6315  1.2362  0.2089
   20SAPS  C211 2585   4.180   0.434   3.423  0.5262 -0.4225  0.5500
   20SAPS  H11R 2586   4.223   0.527   3.384  1.7380 -0.6791  1.2701
   20SAPS  C212 2587   4.243   0.377   3.530  0.1050 -0.4553  0.3215
   20SAPS  H12R 2588   4.341   0.415   3.563  1.5285 -1.6024 -2.4081
   20SAPS  C213 2589   4.213   0.247   3.594 -0.0528  0.0758  0.0525
   20SAPS  H13R 2590   4.303   0.182   3.581 -0.7898 -0.8731 -0.3776
   20SAPS  H13S 2591   4.140   0.187   3.536 -2.1408  1.0655  1.6068
   20SAPS  C214 2592   4.146   0.259   3.728  0.2046  0.0112  0.3360
   20SAPS  H14R 2593   4.042   0.296   3.732  0.7212  1.5157 -0.0415
   20SAPS  C215 2594   4.199   0.199   3.837 -0.3625 -0.0926  0.1798
   20SAPS  H15R 2595   4.147   0.206   3.934 -0.9466 -0.6330 -0.0917
   20SAPS  C216 2596   4.328   0.124   3.853 -0.2181  0.3284 -0.2735
   20SAPS  H16R 2597   4.404   0.133   3.773  0.8806 -1.2202  0.5836
   20SAPS  H16S 2598   4.305   0.017   3.870  0.6206  0.5507  2.4406
   20SAPS  C217 2599   4.416   0.178   3.973  0.7287 -0.6749  0.0862
   20SAPS  H17R 2600   4.354   0.149   4.061 -0.7647  2.7263  0.2268
   20SAPS  H17S 2601   4.417   0.289   3.962  1.6987 -0.5230  1.4869
   20SAPS  C218 2602   4.552   0.116   3.987  0.0894 -0.3413  0.4330
   20SAPS  H18R 2603   4.609   0.134   3.894 -3.2178 -0.6090 -1.7392
   20SAPS  H18S 2604   4.547   0.007   4.007 -0.5626 -0.3266  0.3842
   20SAPS  C219 2605   4.640   0.165   4.094  0.4708  0.5472 -0.6174
   20SAPS  H19R 2606   4.593   0.130   4.189  2.6370 -2.7726 -0.6937
   20SAPS  H19S 2607   4.624   0.274   4.104 -0.5782  0.2094  1.8439
   20SAPS  C220 2608   4.786   0.127   4.088  0.1635  0.0838 -0.2886
   20SAPS  H20R 2609   4.843   0.184   4.011  1.7127  0.6622  1.2514
   20SAPS  H20S 2610   4.787   0.021   4.056  1.0861  0.3191 -1.0540
   20SAPS  H20T 2611   4.842   0.135   4.184  3.5325  1.5188 -2.3176
   20SAPS   C33 2612   3.726   0.525   2.266  0.0845  0.0113  0.1273
   20SAPS   H3X 2613   3.640   0.569   2.212 -0.2104 -1.3400 -0.5302
   20SAPS   H3Y 2614   3.813   0.592   2.253 -1.2813  1.6475 -0.7798
   20SAPS   C34 2615   3.677   0.507   2.415  0.1992  0.6348 -0.3963
   20SAPS   H4X 2616   3.745   0.445   2.478  1.3183  1.5179 -0.7080
   20SAPS   H4Y 2617   3.577   0.458   2.412 -0.0228  0.8711  1.9738
   20SAPS   C35 2618   3.673   0.641   2.480  0.3624 -0.6663 -0.0280
   20SAPS   H5X 2619   3.607   0.713   2.427  4.0695  1.1788 -2.4038
   20SAPS   H5Y 2620   3.772   0.692   2.486  1.8465 -3.1728 -2.1046
   20SAPS   C36 2621   3.618   0.637   2.625  0.3061 -0.2976 -0.0963
   20SAPS   H6X 2622   3.512   0.605   2.625  0.3547 -0.5776  3.6796
   20SAPS   H6Y 2623   3.626   0.737   2.671  1.0251 -0.1924 -0.4242
   20SAPS   C37 2624   3.692   0.540   2.719  0.2252 -0.2115  0.0015
   20SAPS   H7X 2625   3.797   0.574   2.723  0.3408 -0.5765  0.0119
   20SAPS   H7Y 2626   3.680   0.435   2.685 -0.7020 -1.2310  3.2320
   20SAPS   C38 2627   3.632   0.548   2.857  0.0423 -0.3515  0.2804
   20SAPS   H8X 2628   3.523   0.530   2.854 -0.4550  2.1418  1.6789
   20SAPS   H8Y 2629   3.654   0.644   2.908  2.1906 -0.7722  0.2012
   20SAPS   C39 2630   3.688   0.435   2.941 -0.5842  0.1919  0.1651
   20SAPS   H9X 2631   3.789   0.468   2.975 -1.1297  2.3527 -0.2172
   20SAPS   H9Y 2632   3.712   0.340   2.891  1.6682  2.1214 -2.5536
   20SAPS  C310 2633   3.608   0.422   3.070 -1.0689  0.2026  0.6246
   20SAPS  H10X 2634   3.515   0.373   3.035 -1.4535  1.5263 -0.2382
   20SAPS  H10Y 2635   3.590   0.522   3.115  0.1391  1.3450 -1.3386
   20SAPS  C311 2636   3.672   0.327   3.169 -0.5399 -0.3191  0.1237
   20SAPS  H11X 2637   3.768   0.369   3.208 -1.9661  2.1068  1.1484
   20SAPS  H11Y 2638   3.693   0.233   3.113 -0.8944  0.0682 -0.6643
   20SAPS  C312 2639   3.597   0.308   3.306  0.5004 -0.1850 -0.3458
   20SAPS  H12X 2640   3.495   0.264   3.303  0.0335  0.9128 -1.1257
   20SAPS  H12Y 2641   3.586   0.411   3.345  0.8567 -0.4662  0.5087
   20SAPS  C313 2642   3.673   0.231   3.412  0.7413  0.1586 -0.6910
   20SAPS  H13X 2643   3.604   0.194   3.491  0.3322 -1.1764 -1.6528
   20SAPS  H13Y 2644   3.748   0.297   3.459  0.6379  0.6322 -1.1778
   20SAPS  C314 2645   3.748   0.111   3.355  0.3844 -0.0706 -0.3959
   20SAPS  H14X 2646   3.816   0.146   3.274  1.9538 -0.5429  0.6833
   20SAPS  H14Y 2647   3.671   0.051   3.301  0.4408 -0.5214  0.0175
   20SAPS  C315 2648   3.833   0.024   3.459  0.8840  0.5801 -0.1815
   20SAPS  H15X 2649   3.888   0.089   3.530 -0.2070  1.8214 -0.4472
   20SAPS  H15Y 2650   3.906  -0.037   3.401  1.1214  0.0820  0.6363
   20SAPS  C316 2651   3.741  -0.070   3.542  0.0135  0.3552 -0.8696
   20SAPS  H16X 2652   3.686  -0.135   3.470 -2.8019  0.1398  1.3756
   20SAPS  H16Y 2653   3.666  -0.009   3.596 -0.5798 -1.4660  0.3993
   20SAPS  C317 2654   3.818  -0.157   3.639  0.0685  0.1217  0.5768
   20SAPS  H17X 2655   3.745  -0.199   3.712 -0.8832 -0.3771 -0.6397
   20SAPS  H17Y 2656   3.894  -0.096   3.692  0.7409 -0.2635  0.0602
   20SAPS  C318 2657   3.891  -0.278   3.577  0.4504  0.5411  0.0658
   20SAPS  H18X 2658   3.924  -0.340   3.663 -2.3360 -1.4758 -0.2490
   20SAPS  H18Y 2659   3.982  -0.239   3.527  0.9579  0.8584  1.2142
   20SAPS  H18Z 2660   3.830  -0.328   3.499  0.6478  0.0347  0.2342
   21CHL1    C3 2661   2.776   4.158   5.964 -0.2828 -0.1781  0.3829
   21CHL1    H3 2662   2.703   4.075   5.961  0.3428 -0.7839  1.5465
   21CHL1    O3 2663   2.750   4.206   6.096 -0.8043  0.5115 -0.2871
   21CHL1   H3' 2664   2.807   4.282   6.103  0.7370 -0.3945 -2.5146
   21CHL1    C4 2665   2.924   4.106   5.960 -0.3645 -0.9223  0.5586
   21CHL1   H4A 2666   2.990   4.195   5.971 -0.6743 -0.5061 -0.8791
   21CHL1   H4B 2667   2.943   4.035   6.044 -0.0787  0.4527  1.6857
   21CHL1    C5 2668   2.958   4.050   5.822  0.5824 -0.1708 -0.0249
   21CHL1    C6 2669   2.998   3.924   5.806 -0.3046  0.1092  0.3252
   21CHL1    H6 2670   3.023   3.862   5.893 -0.0514 -0.4095 -0.1088
   21CHL1    C7 2671   3.030   3.863   5.675  0.1420  0.5645 -0.2763
   21CHL1   H7A 2672   3.129   3.811   5.676  0.7073  1.6237  1.8853
   21CHL1   H7B 2673   2.950   3.791   5.644  0.2083 -0.5785  2.1022
   21CHL1    C8 2674   3.048   3.967   5.564 -0.3286  0.0396  0.6948
   21CHL1    H8 2675   3.145   4.022   5.569  0.0097 -0.5858  0.9497
   21CHL1   C14 2676   3.045   3.901   5.423 -0.0094  0.7389 -0.0282
   21CHL1   H14 2677   2.948   3.848   5.412  0.7909 -0.2045 -2.9734
   21CHL1   C15 2678   3.158   3.800   5.396 -0.4077  0.5512  0.0547
   21CHL1  H15A 2679   3.255   3.836   5.434 -1.5150  2.7603  0.8642
   21CHL1  H15B 2680   3.149   3.705   5.454 -0.9870  1.0659  0.8175
   21CHL1   C16 2681   3.153   3.780   5.251 -0.0531  0.3841  0.6910
   21CHL1  H16A 2682   3.263   3.787   5.232 -0.5060  2.4161 -1.3085
   21CHL1  H16B 2683   3.124   3.677   5.221  2.4023  0.0876 -0.8211
   21CHL1   C17 2684   3.053   3.889   5.195 -0.6292  0.2108 -0.1614
   21CHL1   H17 2685   2.952   3.842   5.192 -0.3630 -0.3285 -1.0217
   21CHL1   C13 2686   3.052   3.991   5.306  0.2562 -0.0508 -0.4093
   21CHL1   C18 2687   3.190   4.064   5.287  0.5459  0.1015  0.3173
   21CHL1  H18A 2688   3.174   4.149   5.218 -3.5676  1.4651  2.7870
   21CHL1  H18B 2689   3.207   4.113   5.385 -0.4599 -1.2884  1.2102
   21CHL1  H18C 2690   3.281   4.010   5.253 -0.1184  0.5149 -2.2490
   21CHL1   C12 2691   2.932   4.090   5.304 -0.0416 -0.9763  0.5293
   21CHL1  H12A 2692   2.926   4.163   5.221 -2.5606 -0.9728  0.6836
   21CHL1  H12B 2693   2.839   4.028   5.308 -0.1241 -0.9031 -0.2869
   21CHL1   C11 2694   2.930   4.170   5.440  0.4571 -0.0040  0.0946
   21CHL1  H11A 2695   3.024   4.228   5.440 -1.0302  2.4699  0.1719
   21CHL1  H11B 2696   2.839   4.234   5.437  0.1787 -0.4617 -1.2488
   21CHL1    C9 2697   2.933   4.071   5.565  0.7115  0.4750  0.0032
   21CHL1    H9 2698   2.839   4.012   5.562  0.4797  0.8990 -1.8359
   21CHL1   C10 2699   2.922   4.143   5.701  0.2120 -0.2012 -0.3928
   21CHL1   C19 2700   3.033   4.248   5.700  0.0468 -0.1035  0.7781
   21CHL1  H19A 2701   3.130   4.198   5.679 -1.0067 -1.0563 -1.9559
   21CHL1  H19B 2702   3.010   4.327   5.625  0.0047 -1.3751 -0.5465
   21CHL1  H19C 2703   3.050   4.303   5.796  1.0414  0.2596  0.3938
   21CHL1    C1 2704   2.780   4.217   5.718 -0.7841  0.2919 -0.0486
   21CHL1   H1A 2705   2.760   4.296   5.642 -0.5858  0.5269  0.1432
   21CHL1   H1B 2706   2.710   4.131   5.707 -1.8978  1.2557 -0.5533
   21CHL1    C2 2707   2.749   4.265   5.857  0.4181  0.1926  0.0700
   21CHL1   H2A 2708   2.642   4.293   5.855  0.1832 -0.6405  0.6751
   21CHL1   H2B 2709   2.818   4.350   5.879 -0.1843  0.8538 -0.5932
   21CHL1   C20 2710   3.093   3.931   5.053 -0.2904 -0.1331 -0.5440
   21CHL1   H20 2711   3.193   3.978   5.060 -1.1218  1.3825  1.7731
   21CHL1   C21 2712   3.008   4.037   4.982  0.2570  0.1946 -0.2813
   21CHL1  H21A 2713   3.053   4.057   4.883 -0.9856 -2.3054 -1.3974
   21CHL1  H21B 2714   3.012   4.125   5.049 -0.8183 -0.2893  0.4442
   21CHL1  H21C 2715   2.901   4.007   4.976  0.7084 -1.7479  0.7654
   21CHL1   C22 2716   3.117   3.806   4.957 -0.0639  0.0409 -0.4153
   21CHL1  H22A 2717   3.178   3.727   5.006  3.4130  2.9451  0.1308
   21CHL1  H22B 2718   3.015   3.767   4.936  0.0320  0.6168 -2.0535
   21CHL1   C23 2719   3.206   3.849   4.837 -0.5732  0.0340  0.4635
   21CHL1  H23A 2720   3.140   3.886   4.755  2.1505  0.5779 -1.5292
   21CHL1  H23B 2721   3.280   3.928   4.863  1.6337 -1.6603 -0.5127
   21CHL1   C24 2722   3.274   3.723   4.765  0.3611 -0.2515 -0.5941
   21CHL1  H24A 2723   3.340   3.680   4.843  0.6579 -0.0715 -0.7463
   21CHL1  H24B 2724   3.198   3.648   4.735 -2.9984  2.3616  1.0722
   21CHL1   C25 2725   3.378   3.744   4.651 -0.0698 -0.3612  0.0545
   21CHL1   H25 2726   3.435   3.837   4.671 -0.2491 -0.0152 -0.9885
   21CHL1   C26 2727   3.479   3.632   4.644  0.4857  0.1232  0.6903
   21CHL1  H26A 2728   3.424   3.535   4.641 -0.7527  0.8056  0.7875
   21CHL1  H26B 2729   3.548   3.633   4.557 -0.0968  0.2371  0.2274
   21CHL1  H26C 2730   3.546   3.635   4.732  1.1969 -1.0490  0.1983
   21CHL1   C27 2731   3.298   3.775   4.521  0.3889 -0.2262  0.0282
   21CHL1  H27A 2732   3.214   3.706   4.499  1.6679 -2.0466  0.6509
   21CHL1  H27B 2733   3.246   3.872   4.531 -1.9410 -1.1949 -2.2992
   21CHL1  H27C 2734   3.366   3.775   4.433  1.8744  1.2900  1.1406
   22CHL1    C3 2735   3.155   3.150   5.901  0.4538 -0.3649  0.4830
   22CHL1    H3 2736   3.162   3.039   5.900 -0.3450 -0.4354 -1.7314
   22CHL1    O3 2737   3.142   3.200   6.033 -0.4298  0.3258 -0.9589
   22CHL1   H3' 2738   3.227   3.210   6.075 -1.4091  1.3883  0.8654
   22CHL1    C4 2739   3.281   3.201   5.835 -0.2406  0.0237 -0.4941
   22CHL1   H4A 2740   3.307   3.306   5.860  1.5944 -1.0283  2.1512
   22CHL1   H4B 2741   3.367   3.147   5.878 -0.7913 -0.5840 -0.1534
   22CHL1    C5 2742   3.288   3.187   5.684  0.5275  0.5116 -0.3244
   22CHL1    C6 2743   3.392   3.137   5.613 -0.2763  0.4834 -0.4948
   22CHL1    H6 2744   3.477   3.109   5.677 -1.3286 -1.8740 -0.0699
   22CHL1    C7 2745   3.401   3.114   5.463  0.1562 -0.0751 -0.2540
   22CHL1   H7A 2746   3.500   3.142   5.422 -0.2656  1.0244 -0.5203
   22CHL1   H7B 2747   3.379   3.006   5.446  0.3407 -0.1093 -0.2734
   22CHL1    C8 2748   3.292   3.210   5.393  0.3877 -0.0408  0.2125
   22CHL1    H8 2749   3.333   3.312   5.405 -0.7362  0.2437  1.7057
   22CHL1   C14 2750   3.279   3.173   5.248 -0.5495 -0.5335  0.0922
   22CHL1   H14 2751   3.226   3.076   5.257 -1.1474 -0.1762  0.4709
   22CHL1   C15 2752   3.410   3.153   5.164  0.1760  0.7450  0.1273
   22CHL1  H15A 2753   3.485   3.231   5.189  1.3597  0.1088 -1.3318
   22CHL1  H15B 2754   3.447   3.049   5.176 -1.8832  0.4204  5.0350
   22CHL1   C16 2755   3.353   3.178   5.026  0.1387  0.6298  0.9791
   22CHL1  H16A 2756   3.402   3.266   4.977 -0.8745 -0.6478 -2.4972
   22CHL1  H16B 2757   3.371   3.094   4.956  1.0158  2.1468 -0.6671
   22CHL1   C17 2758   3.200   3.210   5.030  0.8420 -0.0867  0.4671
   22CHL1   H17 2759   3.151   3.113   5.006 -1.4869  1.1918 -0.0918
   22CHL1   C13 2760   3.178   3.258   5.171  0.2569 -0.2094 -0.6312
   22CHL1   C18 2761   3.233   3.405   5.171  0.5738  0.0011 -0.2746
   22CHL1  H18A 2762   3.171   3.463   5.100  0.7804  0.7145  0.1209
   22CHL1  H18B 2763   3.219   3.462   5.265  2.7064  0.1223 -0.0025
   22CHL1  H18C 2764   3.341   3.396   5.147  0.5705  1.2297 -0.7924
   22CHL1   C12 2765   3.041   3.224   5.233 -0.1373  0.5888  0.4510
   22CHL1  H12A 2766   2.962   3.279   5.177 -1.4925 -1.8081 -0.0743
   22CHL1  H12B 2767   3.022   3.116   5.210 -0.7888  0.7384  0.2658
   22CHL1   C11 2768   3.044   3.261   5.375 -0.2751 -0.4895 -0.7912
   22CHL1  H11A 2769   3.052   3.371   5.386 -0.8925 -0.8133  3.9530
   22CHL1  H11B 2770   2.945   3.240   5.420  0.5130 -3.0985 -0.2129
   22CHL1    C9 2771   3.158   3.197   5.461 -0.1080 -0.7471 -0.0157
   22CHL1    H9 2772   3.139   3.089   5.442  0.1653 -0.5130 -1.6574
   22CHL1   C10 2773   3.162   3.231   5.613  0.1009  0.3957  0.3625
   22CHL1   C19 2774   3.167   3.381   5.631 -0.1589  0.3667  0.1904
   22CHL1  H19A 2775   3.069   3.419   5.597 -0.2614  0.0438  0.1212
   22CHL1  H19B 2776   3.171   3.416   5.736 -1.0899 -0.2342  0.4333
   22CHL1  H19C 2777   3.249   3.425   5.570  0.2188 -1.2386 -0.4903
   22CHL1    C1 2778   3.038   3.169   5.673 -0.4742  0.4902  0.3470
   22CHL1   H1A 2779   2.953   3.219   5.621 -0.8468 -0.1196  0.3748
   22CHL1   H1B 2780   3.032   3.066   5.633 -1.4533  0.2932  1.0046
   22CHL1    C2 2781   3.025   3.187   5.824 -0.1759  0.5059  0.3867
   22CHL1   H2A 2782   2.932   3.134   5.851  0.3382 -1.7213 -1.9793
   22CHL1   H2B 2783   3.015   3.297   5.838 -1.9984  0.1043  2.4978
   22CHL1   C20 2784   3.170   3.307   4.904  0.2722 -0.0995  0.4517
   22CHL1   H20 2785   3.240   3.393   4.899 -0.8740  0.7626 -1.9885
   22CHL1   C21 2786   3.020   3.351   4.907  0.3964 -0.2682  0.3660
   22CHL1  H21A 2787   3.009   3.428   4.987 -1.5288  0.1433 -0.2754
   22CHL1  H21B 2788   2.965   3.258   4.933 -0.1689 -0.3288 -0.9972
   22CHL1  H21C 2789   2.992   3.380   4.804  0.9234 -3.5001 -0.7547
   22CHL1   C22 2790   3.187   3.227   4.774 -0.1476  0.1461  0.3911
   22CHL1  H22A 2791   3.291   3.188   4.780  0.3199  1.3421  0.1756
   22CHL1  H22B 2792   3.119   3.139   4.774 -0.2521  0.2241  0.9358
   22CHL1   C23 2793   3.184   3.311   4.643  0.0729 -0.1941  0.4917
   22CHL1  H23A 2794   3.081   3.348   4.625 -0.0556 -0.4488  0.7036
   22CHL1  H23B 2795   3.248   3.401   4.653 -1.6330  1.0988 -0.0934
   22CHL1   C24 2796   3.227   3.248   4.510 -1.0012  0.5321 -0.3702
   22CHL1  H24A 2797   3.337   3.250   4.495 -1.1036 -0.1229 -1.2618
   22CHL1  H24B 2798   3.207   3.139   4.507 -0.4722  0.4188  0.1430
   22CHL1   C25 2799   3.155   3.301   4.389  0.0785  0.1828  0.3111
   22CHL1   H25 2800   3.047   3.276   4.399 -0.5640  2.8043  0.3102
   22CHL1   C26 2801   3.176   3.453   4.371  0.6573 -0.5322 -0.0587
   22CHL1  H26A 2802   3.134   3.475   4.271 -0.7289  0.7410  0.7827
   22CHL1  H26B 2803   3.114   3.512   4.442  0.2019 -0.0458 -0.8570
   22CHL1  H26C 2804   3.278   3.498   4.366 -0.4965  2.0368 -1.4772
   22CHL1   C27 2805   3.204   3.225   4.261  0.2312  0.1216  0.4949
   22CHL1  H27A 2806   3.197   3.115   4.277 -2.1647  0.2996  0.8070
   22CHL1  H27B 2807   3.138   3.255   4.177  0.9053  2.3254  0.7166
   22CHL1  H27C 2808   3.302   3.267   4.230  0.4226 -0.8502 -0.2356
   23CHL1    C3 2809   2.589   3.616   5.981 -0.2414  0.4199  0.3283
   23CHL1    H3 2810   2.582   3.505   5.986  1.9316  0.2952  1.0638
   23CHL1    O3 2811   2.601   3.665   6.107  0.1907  0.2113  0.2128
   23CHL1   H3' 2812   2.539   3.738   6.101  0.2941  0.3209  0.4857
   23CHL1    C4 2813   2.713   3.664   5.906 -0.2115 -0.0095 -0.1189
   23CHL1   H4A 2814   2.729   3.773   5.924 -0.6626  0.3032 -1.5740
   23CHL1   H4B 2815   2.804   3.611   5.941  1.1098  0.5128 -2.6868
   23CHL1    C5 2816   2.699   3.630   5.758 -0.7493  0.0700  0.3698
   23CHL1    C6 2817   2.793   3.558   5.700 -0.4720 -0.0493 -0.2964
   23CHL1    H6 2818   2.883   3.528   5.756 -0.8389 -1.8038 -0.6109
   23CHL1    C7 2819   2.798   3.523   5.555  0.1439  0.2642 -0.8281
   23CHL1   H7A 2820   2.896   3.534   5.505  0.3294  2.4562 -0.0696
   23CHL1   H7B 2821   2.770   3.418   5.532  3.7597 -1.2969  1.4534
   23CHL1    C8 2822   2.710   3.620   5.479  0.0284 -0.5201  0.4099
   23CHL1    H8 2823   2.760   3.719   5.477  2.2306 -1.5810 -3.0170
   23CHL1   C14 2824   2.694   3.568   5.335 -0.2641 -0.0061 -0.0419
   23CHL1   H14 2825   2.644   3.470   5.350 -3.0891  1.4151  0.1102
   23CHL1   C15 2826   2.822   3.548   5.251 -0.3172  0.2491 -0.3607
   23CHL1  H15A 2827   2.883   3.640   5.262  1.4148 -0.8564 -0.5980
   23CHL1  H15B 2828   2.882   3.462   5.287 -0.5435  0.3429  0.2561
   23CHL1   C16 2829   2.780   3.544   5.105 -0.0027  0.3138  0.3814
   23CHL1  H16A 2830   2.826   3.615   5.033  0.6471 -2.4933 -2.0645
   23CHL1  H16B 2831   2.788   3.442   5.061  1.5434  0.8742 -0.6788
   23CHL1   C17 2832   2.623   3.575   5.097  0.5728  0.5692  1.4766
   23CHL1   H17 2833   2.576   3.475   5.105  2.4976 -0.3748  1.3243
   23CHL1   C13 2834   2.598   3.640   5.241  0.0599 -0.1813 -0.4015
   23CHL1   C18 2835   2.648   3.786   5.227  0.4171 -0.5182  0.5636
   23CHL1  H18A 2836   2.749   3.785   5.182  0.0602 -3.4801 -0.3186
   23CHL1  H18B 2837   2.587   3.840   5.151  1.6481 -0.4094 -0.3515
   23CHL1  H18C 2838   2.642   3.840   5.324 -2.2506 -0.3631  0.3656
   23CHL1   C12 2839   2.459   3.632   5.304  0.6681 -0.6281  0.5896
   23CHL1  H12A 2840   2.377   3.680   5.246 -0.4912  2.0372  4.2820
   23CHL1  H12B 2841   2.447   3.522   5.298  0.8269 -0.5466 -1.7171
   23CHL1   C11 2842   2.458   3.687   5.449  0.1028 -0.7880  0.2502
   23CHL1  H11A 2843   2.471   3.797   5.440  1.6091 -0.8354  1.7542
   23CHL1  H11B 2844   2.359   3.663   5.493 -0.0998  0.5258  0.5198
   23CHL1    C9 2845   2.568   3.628   5.539 -0.0492  0.3578  0.2036
   23CHL1    H9 2846   2.537   3.521   5.544 -4.0106  1.4092 -0.2226
   23CHL1   C10 2847   2.574   3.680   5.689  0.0407  0.0410  0.5777
   23CHL1   C19 2848   2.564   3.836   5.687 -1.1234  0.0107 -0.3583
   23CHL1  H19A 2849   2.469   3.875   5.645 -1.3877  0.5573  0.7062
   23CHL1  H19B 2850   2.582   3.883   5.787  0.5546  0.3893 -0.8160
   23CHL1  H19C 2851   2.650   3.882   5.635 -0.5685 -0.3864  0.1946
   23CHL1    C1 2852   2.451   3.616   5.763  0.8071  0.0939 -0.5392
   23CHL1   H1A 2853   2.357   3.652   5.717  1.0431  0.3902 -0.7917
   23CHL1   H1B 2854   2.462   3.508   5.743 -0.0440  0.2462 -1.8647
   23CHL1    C2 2855   2.444   3.643   5.915 -0.3942  0.0520  0.5167
   23CHL1   H2A 2856   2.368   3.580   5.966  0.1620  0.7577  2.2792
   23CHL1   H2B 2857   2.405   3.746   5.930 -1.7562 -0.1232 -1.6644
   23CHL1   C20 2858   2.584   3.639   4.961 -0.2380  0.8415  0.4217
   23CHL1   H20 2859   2.642   3.731   4.940 -0.7710  1.4048  1.3818
   23CHL1   C21 2860   2.436   3.680   4.960 -0.2237 -0.6157  0.0035
   23CHL1  H21A 2861   2.411   3.747   5.045  1.9808  0.5333 -0.2053
   23CHL1  H21B 2862   2.375   3.588   4.973 -1.2490  0.0136 -0.3679
   23CHL1  H21C 2863   2.401   3.724   4.865 -2.0517 -1.5821  0.2122
   23CHL1   C22 2864   2.610   3.538   4.845  0.1484  0.2828  0.2037
   23CHL1  H22A 2865   2.718   3.511   4.837 -0.3156 -1.4700 -0.3724
   23CHL1  H22B 2866   2.549   3.447   4.863  0.2926  0.1938  0.2498
   23CHL1   C23 2867   2.578   3.593   4.709 -0.0503 -0.9978 -0.2646
   23CHL1  H23A 2868   2.469   3.609   4.697  0.7216  3.3945 -2.6013
   23CHL1  H23B 2869   2.616   3.697   4.700  0.3011 -1.2509 -1.9572
   23CHL1   C24 2870   2.618   3.497   4.594  0.5378 -0.3951 -0.6914
   23CHL1  H24A 2871   2.728   3.497   4.578  0.6047 -1.7228 -0.3015
   23CHL1  H24B 2872   2.587   3.391   4.604  1.3376 -0.7132 -1.5146
   23CHL1   C25 2873   2.565   3.556   4.461  0.1479  0.0779  0.1857
   23CHL1   H25 2874   2.454   3.569   4.458  0.1449 -0.2584 -3.2592
   23CHL1   C26 2875   2.631   3.686   4.418  0.5858 -0.7914 -0.5467
   23CHL1  H26A 2876   2.595   3.762   4.490  1.7456  0.3852 -1.1846
   23CHL1  H26B 2877   2.742   3.693   4.424  0.5430  0.1672 -0.8820
   23CHL1  H26C 2878   2.597   3.711   4.315  2.4235 -1.7656 -1.4210
   23CHL1   C27 2879   2.589   3.447   4.357 -0.0582  0.1858 -0.2940
   23CHL1  H27A 2880   2.698   3.445   4.337  0.4730 -2.2938  2.5446
   23CHL1  H27B 2881   2.559   3.347   4.395 -2.0661  1.4437  1.5229
   23CHL1  H27C 2882   2.537   3.467   4.261 -0.3994 -2.9424 -0.8243
   24CHL1    C3 2883   2.864   4.813   5.946 -0.0307 -0.3346 -0.2604
   24CHL1    H3 2884   2.773   4.871   5.918 -0.6183 -1.3628 -0.5122
   24CHL1    O3 2885   2.881   4.827   6.089 -0.5270  0.3264 -0.9057
   24CHL1   H3' 2886   2.967   4.787   6.100 -1.0286 -0.4543  0.3176
   24CHL1    C4 2887   2.850   4.660   5.901 -0.4884  0.0296  0.0194
   24CHL1   H4A 2888   2.940   4.607   5.940  0.2376  2.3412  1.6634
   24CHL1   H4B 2889   2.765   4.622   5.961  1.5829  1.6403  4.2318
   24CHL1    C5 2890   2.835   4.648   5.755 -0.0084 -0.2532  0.2473
   24CHL1    C6 2891   2.737   4.588   5.696  0.4384 -0.0921 -0.7678
   24CHL1    H6 2892   2.653   4.547   5.755  0.6497  0.0545 -0.3660
   24CHL1    C7 2893   2.731   4.572   5.552  0.4971  0.0407  0.3713
   24CHL1   H7A 2894   2.699   4.471   5.518  2.7959 -1.0648  1.3918
   24CHL1   H7B 2895   2.665   4.649   5.506  1.5144 -0.5674 -2.2139
   24CHL1    C8 2896   2.868   4.586   5.481  0.4752 -0.0806  0.0720
   24CHL1    H8 2897   2.919   4.496   5.521  2.5704  1.8489  1.9032
   24CHL1   C14 2898   2.854   4.593   5.331 -0.2978  0.0409  0.6137
   24CHL1   H14 2899   2.794   4.685   5.319 -0.4803  0.0269  1.3981
   24CHL1   C15 2900   2.778   4.486   5.254  1.0540  0.1242  0.1132
   24CHL1  H15A 2901   2.806   4.384   5.288  0.5292  0.7085  2.4065
   24CHL1  H15B 2902   2.669   4.478   5.273  1.0219 -0.0393 -0.1313
   24CHL1   C16 2903   2.811   4.499   5.105 -0.2966 -0.9693  0.4751
   24CHL1  H16A 2904   2.859   4.406   5.069  1.6618  0.3089 -0.3025
   24CHL1  H16B 2905   2.722   4.511   5.039 -0.4125  0.8928  0.9208
   24CHL1   C17 2906   2.912   4.618   5.100 -0.8706 -1.0730 -0.1288
   24CHL1   H17 2907   2.840   4.702   5.091 -0.9239 -1.1914 -0.8765
   24CHL1   C13 2908   2.975   4.618   5.249 -0.7592 -0.3423 -0.0681
   24CHL1   C18 2909   3.065   4.492   5.261  0.0009 -0.7803  0.3819
   24CHL1  H18A 2910   3.016   4.399   5.224 -0.8449  0.7140 -2.4643
   24CHL1  H18B 2911   3.162   4.513   5.211  0.8750 -2.1792  1.4541
   24CHL1  H18C 2912   3.112   4.469   5.359  0.4280 -0.4793  0.2530
   24CHL1   C12 2913   3.041   4.750   5.296 -0.6905 -0.2180  0.7320
   24CHL1  H12A 2914   3.141   4.765   5.249 -1.3908 -1.7752 -1.3303
   24CHL1  H12B 2915   2.984   4.842   5.271 -2.9139 -1.9157 -0.6238
   24CHL1   C11 2916   3.079   4.740   5.443 -0.0313 -1.4133 -0.0777
   24CHL1  H11A 2917   3.157   4.666   5.471 -1.0937 -1.9211  1.5970
   24CHL1  H11B 2918   3.121   4.840   5.470 -3.0307 -0.1484  0.1567
   24CHL1    C9 2919   2.947   4.716   5.521 -0.3642  0.1068 -0.3258
   24CHL1    H9 2920   2.875   4.797   5.497  1.0243  1.6555  0.6116
   24CHL1   C10 2921   2.955   4.715   5.676  0.0300  0.0203  0.0129
   24CHL1   C19 2922   3.086   4.630   5.713  0.6656  0.9893  0.1488
   24CHL1  H19A 2923   3.093   4.618   5.824 -0.1586 -0.4814  0.0452
   24CHL1  H19B 2924   3.085   4.529   5.668 -0.8811  0.7394  0.7110
   24CHL1  H19C 2925   3.182   4.680   5.688  1.0420 -0.1395 -0.7067
   24CHL1    C1 2926   2.966   4.863   5.722 -0.0361 -0.8133  0.5927
   24CHL1   H1A 2927   3.056   4.900   5.669 -0.4100 -1.3675 -0.4440
   24CHL1   H1B 2928   2.878   4.926   5.699  0.1877 -0.7279 -0.0222
   24CHL1    C2 2929   2.979   4.879   5.878 -0.2258  0.0674  0.9075
   24CHL1   H2A 2930   2.979   4.989   5.893 -1.2710  0.5173 -1.9519
   24CHL1   H2B 2931   3.076   4.835   5.911  0.4648  1.1415  0.3367
   24CHL1   C20 2932   3.018   4.616   4.983 -0.2191  0.8689  0.2673
   24CHL1   H20 2933   3.093   4.536   4.997 -1.3299 -0.0522  1.0820
   24CHL1   C21 2934   3.077   4.757   4.974 -0.5148  0.5107  0.4681
   24CHL1  H21A 2935   3.146   4.778   5.059 -0.3989 -0.5344  0.6399
   24CHL1  H21B 2936   2.995   4.831   4.974 -1.3407 -0.3688  2.9643
   24CHL1  H21C 2937   3.134   4.775   4.880  0.9463  0.0276  1.2421
   24CHL1   C22 2938   2.959   4.568   4.846  0.5052 -0.1293 -0.4660
   24CHL1  H22A 2939   3.041   4.579   4.771 -1.0740  0.2458 -2.1696
   24CHL1  H22B 2940   2.945   4.458   4.845 -1.4638  0.0982  0.9915
   24CHL1   C23 2941   2.843   4.652   4.788 -0.6493  0.1676 -0.6339
   24CHL1  H23A 2942   2.766   4.674   4.865 -0.5637  1.2298 -0.8503
   24CHL1  H23B 2943   2.874   4.753   4.756  0.8850  0.5051  1.7851
   24CHL1   C24 2944   2.780   4.579   4.665  0.0391 -1.0328 -0.5617
   24CHL1  H24A 2945   2.791   4.469   4.675  1.0549 -0.7737  1.5591
   24CHL1  H24B 2946   2.671   4.598   4.660 -0.1659 -2.1398 -0.3102
   24CHL1   C25 2947   2.845   4.631   4.537  0.2310 -0.5497 -0.0049
   24CHL1   H25 2948   2.955   4.617   4.547  0.1309  1.0202  4.1027
   24CHL1   C26 2949   2.800   4.547   4.422 -0.3326 -0.5586  0.6054
   24CHL1  H26A 2950   2.816   4.440   4.447  1.4730 -0.1852  1.1356
   24CHL1  H26B 2951   2.692   4.565   4.401  0.1863  3.3120  0.8143
   24CHL1  H26C 2952   2.839   4.575   4.322 -1.6486  0.3697  0.3340
   24CHL1   C27 2953   2.804   4.773   4.499 -0.4599 -0.0214 -0.2112
   24CHL1  H27A 2954   2.842   4.811   4.402 -1.2022 -0.8895 -0.8574
   24CHL1  H27B 2955   2.694   4.767   4.483 -0.5909 -1.5404  1.1126
   24CHL1  H27C 2956   2.828   4.848   4.576  2.8332 -0.5521 -0.6429
   25CHL1    C3 2957   3.500   5.234   6.000  0.0561 -0.0354 -0.1794
   25CHL1    H3 2958   3.571   5.156   6.034 -0.2526  0.8574  2.6081
   25CHL1    O3 2959   3.469   5.311   6.118 -0.1040  0.2125 -0.1236
   25CHL1   H3' 2960   3.429   5.388   6.078  0.9098  0.0835 -1.4370
   25CHL1    C4 2961   3.562   5.327   5.894 -0.3119 -0.4083 -0.0835
   25CHL1   H4A 2962   3.497   5.413   5.868 -2.3396 -1.8745 -0.0577
   25CHL1   H4B 2963   3.653   5.377   5.932  0.0305 -0.2725 -1.0748
   25CHL1    C5 2964   3.583   5.239   5.772  0.1615  0.1043  0.8378
   25CHL1    C6 2965   3.706   5.229   5.724 -0.1581  0.0768 -0.7800
   25CHL1    H6 2966   3.789   5.277   5.778 -0.2357  0.7736 -1.2658
   25CHL1    C7 2967   3.740   5.155   5.596  0.7833 -0.0631  0.6736
   25CHL1   H7A 2968   3.825   5.213   5.554  1.9403 -2.3186 -0.2485
   25CHL1   H7B 2969   3.784   5.054   5.613  0.7003 -0.1901  0.1638
   25CHL1    C8 2970   3.614   5.141   5.496  0.2746 -0.1711 -0.8198
   25CHL1    H8 2971   3.591   5.238   5.447  1.8842  1.4847  1.5719
   25CHL1   C14 2972   3.650   5.048   5.382 -0.4768  0.3733  0.1901
   25CHL1   H14 2973   3.686   4.957   5.435 -1.4593  0.4794  1.0579
   25CHL1   C15 2974   3.753   5.090   5.277  0.0979  0.1826 -0.0094
   25CHL1  H15A 2975   3.758   5.201   5.285 -2.0304  0.3795 -1.0938
   25CHL1  H15B 2976   3.849   5.054   5.320  0.9799  1.2107 -1.0721
   25CHL1   C16 2977   3.713   5.022   5.143 -0.0367 -0.6352 -0.2747
   25CHL1  H16A 2978   3.677   5.106   5.079 -0.2209  0.5362  1.3029
   25CHL1  H16B 2979   3.798   4.965   5.102  0.3160  0.8847 -1.7094
   25CHL1   C17 2980   3.595   4.930   5.175 -0.0084 -1.0842  0.1586
   25CHL1   H17 2981   3.630   4.836   5.223  0.2797 -0.9357  0.2408
   25CHL1   C13 2982   3.529   5.005   5.297 -0.4928 -0.7026 -0.0913
   25CHL1   C18 2983   3.453   5.130   5.241  0.4219 -0.3181  0.2802
   25CHL1  H18A 2984   3.420   5.197   5.323  1.5500  3.0575 -1.9502
   25CHL1  H18B 2985   3.517   5.185   5.169  1.1514 -0.8764  0.4955
   25CHL1  H18C 2986   3.360   5.104   5.187 -1.7420  3.1521  2.1694
   25CHL1   C12 2987   3.428   4.928   5.378  0.2951  0.2046  0.2722
   25CHL1  H12A 2988   3.340   4.892   5.320  3.7540 -3.9120 -2.7820
   25CHL1  H12B 2989   3.452   4.827   5.418  0.3780  1.1047  2.5545
   25CHL1   C11 2990   3.390   5.004   5.506  0.3804  0.0042 -0.0824
   25CHL1  H11A 2991   3.318   5.081   5.471  0.1033  0.0659  0.6159
   25CHL1  H11B 2992   3.329   4.940   5.573  0.3392  0.7223  0.5745
   25CHL1    C9 2993   3.500   5.079   5.585 -0.4485  0.3296 -0.2788
   25CHL1    H9 2994   3.546   4.988   5.630 -2.1039 -0.5129 -0.2418
   25CHL1   C10 2995   3.460   5.171   5.703  0.0237  0.2886 -0.3271
   25CHL1   C19 2996   3.354   5.281   5.658 -0.4091  0.1934  0.1208
   25CHL1  H19A 2997   3.322   5.346   5.742  2.2473  0.9398  0.6135
   25CHL1  H19B 2998   3.391   5.344   5.573  1.4747 -1.0359  0.0195
   25CHL1  H19C 2999   3.263   5.229   5.622  2.3881 -3.3695 -2.1256
   25CHL1    C1 3000   3.398   5.089   5.818  0.2655 -0.0420  0.5889
   25CHL1   H1A 3001   3.300   5.051   5.782  0.5805  0.1979 -0.5441
   25CHL1   H1B 3002   3.459   5.000   5.843 -1.4574 -1.0979  1.0799
   25CHL1    C2 3003   3.373   5.163   5.953 -0.5406  0.3720 -0.5205
   25CHL1   H2A 3004   3.340   5.094   6.034 -0.0050  0.1628 -0.4777
   25CHL1   H2B 3005   3.283   5.227   5.940  0.0770  0.8996 -2.2535
   25CHL1   C20 3006   3.501   4.899   5.055  0.0258  0.2627 -0.8551
   25CHL1   H20 3007   3.408   4.961   5.059 -0.6989 -0.7857 -1.2945
   25CHL1   C21 3008   3.447   4.755   5.078 -0.3159  0.2008  0.3607
   25CHL1  H21A 3009   3.374   4.721   5.002  1.2109 -0.2131 -0.9520
   25CHL1  H21B 3010   3.406   4.764   5.181 -0.8544  1.6639  0.0201
   25CHL1  H21C 3011   3.531   4.683   5.092 -0.6422 -0.0443  1.1440
   25CHL1   C22 3012   3.573   4.925   4.915 -0.5292 -0.0406  0.3018
   25CHL1  H22A 3013   3.601   5.031   4.895  0.0015 -0.0690  0.8711
   25CHL1  H22B 3014   3.669   4.872   4.932  0.4439  1.6671  0.3072
   25CHL1   C23 3015   3.493   4.882   4.796  0.5078  0.1330 -0.1558
   25CHL1  H23A 3016   3.480   4.771   4.801  2.4971 -0.1965 -1.8774
   25CHL1  H23B 3017   3.390   4.921   4.813 -0.1873 -1.2496 -1.0481
   25CHL1   C24 3018   3.543   4.924   4.658 -0.8339 -0.2196 -0.6808
   25CHL1  H24A 3019   3.559   5.034   4.655 -4.1150  0.3437  1.0332
   25CHL1  H24B 3020   3.645   4.882   4.639 -0.5996 -0.2087  0.4796
   25CHL1   C25 3021   3.443   4.897   4.543 -0.3022  0.4037  0.1503
   25CHL1   H25 3022   3.348   4.946   4.573 -1.7532 -1.1934 -1.7408
   25CHL1   C26 3023   3.493   4.948   4.406 -0.3909 -0.0962 -0.6892
   25CHL1  H26A 3024   3.417   4.994   4.339  0.1385  0.0441 -1.1898
   25CHL1  H26B 3025   3.581   5.013   4.421  0.8551 -2.2792  1.9059
   25CHL1  H26C 3026   3.538   4.858   4.357 -2.8203 -1.2323 -0.9215
   25CHL1   C27 3027   3.415   4.745   4.529 -0.7635  0.4856 -0.0170
   25CHL1  H27A 3028   3.346   4.741   4.442  0.9618 -1.9512 -1.3237
   25CHL1  H27B 3029   3.504   4.685   4.504 -1.0919  1.6062 -4.1837
   25CHL1  H27C 3030   3.377   4.709   4.627 -0.6411  1.6331  0.4678
   26CHL1    C3 3031   3.139   2.616   5.967  0.1946  0.0972 -0.0345
   26CHL1    H3 3032   3.058   2.540   5.972 -1.2389  1.5372 -1.0913
   26CHL1    O3 3033   3.183   2.641   6.099 -0.7022  0.5194 -0.0179
   26CHL1   H3' 3034   3.239   2.568   6.124 -1.1119  0.0568 -0.4306
   26CHL1    C4 3035   3.256   2.568   5.887 -0.3980  0.5938  0.4883
   26CHL1   H4A 3036   3.337   2.642   5.900 -1.1287  1.4598  0.2296
   26CHL1   H4B 3037   3.298   2.476   5.932 -1.8590 -1.3905 -1.9989
   26CHL1    C5 3038   3.234   2.553   5.736 -0.5746  0.1493 -0.3216
   26CHL1    C6 3039   3.249   2.437   5.666  0.6099  0.0025  0.1020
   26CHL1    H6 3040   3.283   2.342   5.711  1.7596 -1.2276 -3.2208
   26CHL1    C7 3041   3.226   2.443   5.521  0.3477  0.3460 -0.0658
   26CHL1   H7A 3042   3.308   2.377   5.485  1.3532 -0.9290  4.2148
   26CHL1   H7B 3043   3.126   2.404   5.495  1.1564 -1.8185  0.0070
   26CHL1    C8 3044   3.225   2.582   5.448 -0.3061 -1.0385 -0.6587
   26CHL1    H8 3045   3.326   2.626   5.462 -0.5826 -0.9479  1.1086
   26CHL1   C14 3046   3.187   2.578   5.303  0.5587  0.1506 -0.5145
   26CHL1   H14 3047   3.091   2.523   5.309  0.0616  1.0740 -0.0981
   26CHL1   C15 3048   3.286   2.488   5.218 -0.4269 -0.1582 -0.6114
   26CHL1  H15A 3049   3.390   2.522   5.237 -1.1004  2.2031 -0.9265
   26CHL1  H15B 3050   3.275   2.380   5.242  2.0034 -0.7249 -1.9142
   26CHL1   C16 3051   3.248   2.517   5.071 -0.7192 -0.0452 -1.0115
   26CHL1  H16A 3052   3.343   2.557   5.031 -0.1139  0.2535  0.6787
   26CHL1  H16B 3053   3.209   2.439   5.002  0.9971  0.4836 -2.6294
   26CHL1   C17 3054   3.148   2.638   5.086  0.7079  0.8365 -0.2381
   26CHL1   H17 3055   3.045   2.596   5.086  0.2533  1.8667 -2.7980
   26CHL1   C13 3056   3.179   2.704   5.220  0.1234 -0.1325  0.4049
   26CHL1   C18 3057   3.308   2.787   5.218  0.2897 -0.6768 -0.6803
   26CHL1  H18A 3058   3.279   2.882   5.169  2.6643 -0.5225 -1.8240
   26CHL1  H18B 3059   3.340   2.817   5.320 -1.8043 -2.1812  0.4582
   26CHL1  H18C 3060   3.392   2.757   5.152  1.5992  0.8567  0.2490
   26CHL1   C12 3061   3.057   2.780   5.286  0.1168  0.3726  0.1000
   26CHL1  H12A 3062   3.028   2.879   5.245 -0.9845  0.6652  1.5599
   26CHL1  H12B 3063   2.967   2.715   5.293  1.3914 -1.3835  0.5440
   26CHL1   C11 3064   3.092   2.801   5.443 -0.1158 -0.3219 -0.6115
   26CHL1  H11A 3065   3.176   2.873   5.439  0.6733 -0.8297  3.5443
   26CHL1  H11B 3066   2.996   2.841   5.482 -1.1636  0.2875 -3.7404
   26CHL1    C9 3067   3.135   2.672   5.522 -0.1181  0.7266 -0.6533
   26CHL1    H9 3068   3.042   2.611   5.529  0.0211  0.7468  1.8751
   26CHL1   C10 3069   3.184   2.686   5.668  0.5806 -0.1456  0.5297
   26CHL1   C19 3070   3.304   2.794   5.662 -0.5966 -0.4009 -0.4340
   26CHL1  H19A 3071   3.397   2.770   5.606 -0.7180  1.1801 -1.3311
   26CHL1  H19B 3072   3.266   2.895   5.637 -0.1227 -0.2696 -0.6324
   26CHL1  H19C 3073   3.346   2.804   5.764  0.0182 -0.6491 -0.6553
   26CHL1    C1 3074   3.065   2.734   5.756  0.1042  0.6412 -0.7645
   26CHL1   H1A 3075   3.033   2.830   5.711  3.1704  2.4642  0.7282
   26CHL1   H1B 3076   2.983   2.663   5.734  1.4844 -1.1577 -0.1989
   26CHL1    C2 3077   3.090   2.741   5.907  0.8682 -0.2698 -0.0652
   26CHL1   H2A 3078   2.993   2.757   5.959  1.9601  0.4045  1.8012
   26CHL1   H2B 3079   3.163   2.820   5.931 -0.3665  0.6027  0.8712
   26CHL1   C20 3080   3.151   2.729   4.960  0.6731  0.7801  0.0237
   26CHL1   H20 3081   3.248   2.783   4.957  0.7554  0.6085 -0.5675
   26CHL1   C21 3082   3.035   2.825   4.969 -0.9549 -0.4421 -0.0052
   26CHL1  H21A 3083   2.943   2.779   5.011 -0.7108  0.1357  1.1935
   26CHL1  H21B 3084   3.015   2.885   4.878  3.1568 -1.4393 -1.6772
   26CHL1  H21C 3085   3.062   2.890   5.055  1.9539 -2.0106  0.3455
   26CHL1   C22 3086   3.142   2.646   4.827 -0.3036 -0.5178 -0.5755
   26CHL1  H22A 3087   3.222   2.572   4.808  0.1433  0.3188 -2.0159
   26CHL1  H22B 3088   3.043   2.596   4.826 -0.3711 -0.4894  1.5807
   26CHL1   C23 3089   3.156   2.730   4.704 -0.2183 -0.9803  0.3285
   26CHL1  H23A 3090   3.122   2.836   4.705  2.9236  0.0762  2.6341
   26CHL1  H23B 3091   3.265   2.731   4.683 -0.5074 -1.5883 -1.2712
   26CHL1   C24 3092   3.102   2.673   4.571  0.1258 -0.1143 -0.4272
   26CHL1  H24A 3093   3.173   2.602   4.524  0.3731 -0.4122  0.3915
   26CHL1  H24B 3094   3.003   2.625   4.589 -0.3897  0.4555 -1.7362
   26CHL1   C25 3095   3.073   2.784   4.468  0.3093 -0.5304  0.4353
   26CHL1   H25 3096   2.993   2.850   4.509  2.4947  1.5112  1.5944
   26CHL1   C26 3097   3.199   2.863   4.434 -0.5994  0.5156  0.5697
   26CHL1  H26A 3098   3.185   2.932   4.348 -0.4300 -0.6365 -0.3755
   26CHL1  H26B 3099   3.228   2.926   4.521  0.1781  1.4438 -0.3440
   26CHL1  H26C 3100   3.282   2.795   4.409 -1.3140  0.5577 -2.0311
   26CHL1   C27 3101   3.025   2.719   4.335 -0.0124  0.2028  0.1698
   26CHL1  H27A 3102   3.099   2.650   4.290  0.2959  0.1406  0.7618
   26CHL1  H27B 3103   2.932   2.659   4.347  0.3230 -0.9234 -2.5029
   26CHL1  H27C 3104   3.015   2.807   4.269 -0.4137  0.1992  0.2217
   27CHL1    C3 3105   2.512   2.967   6.012 -0.8285 -0.2440  0.2110
   27CHL1    H3 3106   2.455   2.885   5.964 -1.1003  0.2840 -0.3844
   27CHL1    O3 3107   2.516   2.942   6.153 -0.2531 -0.6409 -0.0752
   27CHL1   H3' 3108   2.558   3.020   6.190 -1.8234  0.2190 -0.0609
   27CHL1    C4 3109   2.655   2.950   5.955 -0.2684  0.5467  0.5955
   27CHL1   H4A 3110   2.718   3.034   5.990  0.5684 -0.1646  0.8348
   27CHL1   H4B 3111   2.688   2.850   5.991  0.2469  0.4387 -0.1828
   27CHL1    C5 3112   2.658   2.959   5.808 -0.4097  0.9099 -0.0338
   27CHL1    C6 3113   2.697   2.859   5.730 -0.6769 -0.6003  0.3749
   27CHL1    H6 3114   2.741   2.778   5.790  0.3874  1.4424  2.4471
   27CHL1    C7 3115   2.692   2.853   5.586  0.4393 -0.2584 -0.0705
   27CHL1   H7A 3116   2.788   2.814   5.545  0.5879 -1.2263  1.1726
   27CHL1   H7B 3117   2.606   2.786   5.567  0.3527 -0.2241  0.1930
   27CHL1    C8 3118   2.647   2.984   5.513 -0.1469 -0.1759  0.5729
   27CHL1    H8 3119   2.738   3.048   5.509  1.0059 -1.8643 -1.0807
   27CHL1   C14 3120   2.616   2.969   5.366  0.1475 -0.2352 -0.0762
   27CHL1   H14 3121   2.529   2.900   5.378 -0.6302  1.1271  2.5344
   27CHL1   C15 3122   2.708   2.892   5.272  0.6397 -0.1655 -0.7214
   27CHL1  H15A 3123   2.815   2.923   5.269  0.8974 -0.7709  1.4135
   27CHL1  H15B 3124   2.698   2.788   5.309 -1.6134  0.6434  1.0031
   27CHL1   C16 3125   2.650   2.922   5.135 -0.0019 -0.3253 -0.2600
   27CHL1  H16A 3126   2.730   2.971   5.076 -2.3865  2.1517 -1.5270
   27CHL1  H16B 3127   2.613   2.831   5.083 -1.2209 -0.5518  0.9762
   27CHL1   C17 3128   2.537   3.033   5.158 -0.3689 -0.0371 -0.4896
   27CHL1   H17 3129   2.438   2.983   5.161  0.5100 -1.7156  2.2095
   27CHL1   C13 3130   2.570   3.094   5.299 -0.4182  0.1039  0.4302
   27CHL1   C18 3131   2.691   3.191   5.293 -0.1942  0.0837  0.4223
   27CHL1  H18A 3132   2.778   3.149   5.238  0.0694  1.6355 -0.3798
   27CHL1  H18B 3133   2.674   3.286   5.237 -2.1949 -1.1244 -1.1007
   27CHL1  H18C 3134   2.737   3.223   5.389  2.9550  0.1775 -1.0425
   27CHL1   C12 3135   2.452   3.151   5.369  0.0589  0.1445 -0.6914
   27CHL1  H12A 3136   2.432   3.250   5.322  1.6379  0.8344  0.0549
   27CHL1  H12B 3137   2.371   3.080   5.340  1.3448 -2.2513  1.4365
   27CHL1   C11 3138   2.478   3.181   5.511 -0.1063 -0.5428 -0.1012
   27CHL1  H11A 3139   2.548   3.265   5.527 -1.8087  0.3185  3.3788
   27CHL1  H11B 3140   2.381   3.207   5.559 -1.0519 -1.1881 -1.6405
   27CHL1    C9 3141   2.533   3.056   5.586 -0.2809  0.4418 -0.1846
   27CHL1    H9 3142   2.448   2.984   5.590  1.1122 -1.4188 -2.3662
   27CHL1   C10 3143   2.573   3.080   5.742  0.4010  0.0270 -0.3209
   27CHL1   C19 3144   2.661   3.205   5.743  0.0396  0.3479 -0.5460
   27CHL1  H19A 3145   2.609   3.300   5.719  1.5725  1.6807  1.1735
   27CHL1  H19B 3146   2.702   3.216   5.846 -0.3896  1.7605 -0.5252
   27CHL1  H19C 3147   2.743   3.192   5.669 -0.0490 -0.1534 -0.5602
   27CHL1    C1 3148   2.433   3.102   5.818  0.0351  0.1288 -0.2287
   27CHL1   H1A 3149   2.378   3.197   5.799  0.3898  0.3557 -0.1137
   27CHL1   H1B 3150   2.366   3.019   5.787  0.1653  0.1829 -0.6491
   27CHL1    C2 3151   2.448   3.104   5.973 -0.1031  0.4732  0.3573
   27CHL1   H2A 3152   2.353   3.111   6.029 -1.3430  2.0130 -1.8807
   27CHL1   H2B 3153   2.499   3.197   6.005  1.3715 -0.3624  0.5209
   27CHL1   C20 3154   2.537   3.130   5.036  0.0009 -0.3031 -0.5534
   27CHL1   H20 3155   2.633   3.186   5.040  0.8253 -1.6161 -1.4646
   27CHL1   C21 3156   2.416   3.225   5.046 -0.1583  0.2678 -0.2044
   27CHL1  H21A 3157   2.401   3.277   4.949 -2.2563  1.3066  0.6459
   27CHL1  H21B 3158   2.427   3.307   5.120 -1.5084  1.3428 -1.1541
   27CHL1  H21C 3159   2.324   3.167   5.071 -0.5648  1.5477  1.3957
   27CHL1   C22 3160   2.537   3.062   4.899  0.2905  0.0874 -0.0960
   27CHL1  H22A 3161   2.536   3.137   4.818 -0.8294 -0.5429 -0.6804
   27CHL1  H22B 3162   2.631   3.006   4.883 -0.0280  0.5833 -4.1185
   27CHL1   C23 3163   2.430   2.952   4.873 -0.2741  0.0888 -0.0773
   27CHL1  H23A 3164   2.440   2.874   4.951 -3.8404  0.1904  0.5360
   27CHL1  H23B 3165   2.330   2.999   4.882  0.3761  2.0284 -2.1752
   27CHL1   C24 3166   2.431   2.884   4.736  0.1831 -0.2550  0.8242
   27CHL1  H24A 3167   2.447   2.957   4.654 -2.3211 -1.4815 -0.8208
   27CHL1  H24B 3168   2.524   2.824   4.724 -0.8336 -1.9773  1.3436
   27CHL1   C25 3169   2.305   2.806   4.703  0.3226  0.5184  0.4601
   27CHL1   H25 3170   2.223   2.878   4.726  0.3154  0.3923  0.8274
   27CHL1   C26 3171   2.293   2.729   4.571 -0.1210 -0.4703  0.0343
   27CHL1  H26A 3172   2.314   2.794   4.484  1.4621  1.4827  1.8323
   27CHL1  H26B 3173   2.366   2.646   4.578  1.7867  1.0130 -1.6346
   27CHL1  H26C 3174   2.197   2.678   4.549 -2.3590  3.2118  0.8558
   27CHL1   C27 3175   2.276   2.700   4.809 -0.6126 -0.6138  0.2873
   27CHL1  H27A 3176   2.287   2.731   4.916 -0.0089 -0.3326  0.1452
   27CHL1  H27B 3177   2.345   2.617   4.785  1.8113  1.2337  0.6186
   27CHL1  H27C 3178   2.174   2.657   4.806 -1.3624  1.1869 -0.8103
   28CHL1    C3 3179   4.484   2.237   5.960  0.4681  0.9750 -0.2628
   28CHL1    H3 3180   4.528   2.334   5.928 -0.1559  1.4447  0.2882
   28CHL1    O3 3181   4.478   2.224   6.102  0.0112 -0.1398  0.0111
   28CHL1   H3' 3182   4.464   2.129   6.101 -2.2110  0.1528 -1.9777
   28CHL1    C4 3183   4.337   2.221   5.905 -0.2470 -0.2943 -0.1605
   28CHL1   H4A 3184   4.299   2.124   5.945  1.6068 -0.4465  1.3322
   28CHL1   H4B 3185   4.278   2.298   5.960 -0.2280 -0.1189 -0.3859
   28CHL1    C5 3186   4.322   2.231   5.754  0.2242  0.0311 -0.1857
   28CHL1    C6 3187   4.244   2.324   5.694 -0.2518 -0.3973  0.1437
   28CHL1    H6 3188   4.183   2.388   5.758 -1.6442 -1.1852 -0.3655
   28CHL1    C7 3189   4.227   2.336   5.544 -0.1071  0.6460  0.1995
   28CHL1   H7A 3190   4.123   2.360   5.513  0.6397  0.3688 -2.6917
   28CHL1   H7B 3191   4.301   2.409   5.505  2.0834 -0.4837  2.0827
   28CHL1    C8 3192   4.280   2.209   5.473  0.3960  0.4880  0.0644
   28CHL1    H8 3193   4.202   2.131   5.490 -0.2146  1.5793  2.5674
   28CHL1   C14 3194   4.291   2.240   5.320  0.9067  0.6066  0.2321
   28CHL1   H14 3195   4.381   2.305   5.315  0.1167  1.5660 -2.0455
   28CHL1   C15 3196   4.170   2.309   5.253  0.0464  0.6068 -0.1307
   28CHL1  H15A 3197   4.071   2.292   5.300 -0.1955  4.4266  0.8744
   28CHL1  H15B 3198   4.193   2.418   5.261  0.1605  0.4746  1.4365
   28CHL1   C16 3199   4.197   2.271   5.108 -0.5651 -0.1991  0.4904
   28CHL1  H16A 3200   4.111   2.207   5.079  0.6630 -1.3691 -0.6273
   28CHL1  H16B 3201   4.209   2.358   5.040  0.7692 -1.0346 -0.3529
   28CHL1   C17 3202   4.335   2.196   5.100  0.2148 -0.3443 -0.2523
   28CHL1   H17 3203   4.419   2.267   5.092 -2.7418  3.1965 -1.2815
   28CHL1   C13 3204   4.342   2.128   5.235 -0.0935  1.0386 -0.3252
   28CHL1   C18 3205   4.240   2.011   5.245  0.4924 -0.2257  0.7282
   28CHL1  H18A 3206   4.137   2.048   5.227  1.2607  1.4049 -0.5240
   28CHL1  H18B 3207   4.257   1.936   5.165  0.5733  2.5296 -1.9240
   28CHL1  H18C 3208   4.247   1.970   5.348 -2.4643 -0.7349  0.7791
   28CHL1   C12 3209   4.474   2.089   5.286 -0.7321  0.4760  0.1035
   28CHL1  H12A 3210   4.508   2.002   5.226 -0.8241  1.4560 -1.3875
   28CHL1  H12B 3211   4.543   2.175   5.279 -1.9417  1.4181 -0.2845
   28CHL1   C11 3212   4.478   2.051   5.437  0.3317 -0.3080  0.0843
   28CHL1  H11A 3213   4.437   1.950   5.459  1.6554 -0.7178  0.7255
   28CHL1  H11B 3214   4.585   2.046   5.465  0.3700  1.6097  0.3081
   28CHL1    C9 3215   4.411   2.162   5.525  0.5213 -0.4837 -0.3865
   28CHL1    H9 3216   4.470   2.255   5.511 -2.3225  1.4242 -0.1121
   28CHL1   C10 3217   4.412   2.131   5.677  0.2199 -1.0608 -0.4869
   28CHL1   C19 3218   4.369   1.986   5.699 -0.0653 -0.4278 -0.1769
   28CHL1  H19A 3219   4.269   1.960   5.658 -0.7106  1.6216  0.0708
   28CHL1  H19B 3220   4.438   1.910   5.655  0.8731 -1.1896  2.5041
   28CHL1  H19C 3221   4.368   1.957   5.806 -1.6112  1.9333  0.4891
   28CHL1    C1 3222   4.555   2.149   5.742 -0.0794  0.7817  0.4293
   28CHL1   H1A 3223   4.616   2.067   5.697 -1.2949 -1.2824  2.4729
   28CHL1   H1B 3224   4.596   2.246   5.707 -0.6176  1.2299  1.0384
   28CHL1    C2 3225   4.573   2.138   5.896 -0.8716  0.3881  0.1100
   28CHL1   H2A 3226   4.675   2.174   5.919  0.1667 -1.6783 -1.1223
   28CHL1   H2B 3227   4.563   2.033   5.932  3.1007  0.1584  0.7402
   28CHL1   C20 3228   4.339   2.106   4.969 -0.3902 -0.0057  0.1878
   28CHL1   H20 3229   4.249   2.042   4.979  0.2306 -1.0885 -0.9401
   28CHL1   C21 3230   4.464   2.015   4.968 -0.3976  0.2102  0.1973
   28CHL1  H21A 3231   4.493   1.980   4.866 -0.7191  2.6669 -0.7963
   28CHL1  H21B 3232   4.462   1.932   5.041 -1.1658 -0.0503 -0.1095
   28CHL1  H21C 3233   4.546   2.085   4.997  0.5483 -0.0908 -1.6577
   28CHL1   C22 3234   4.318   2.194   4.841 -0.2605  0.2309 -0.0991
   28CHL1  H22A 3235   4.218   2.241   4.850 -0.3305  0.2286 -0.8112
   28CHL1  H22B 3236   4.397   2.272   4.833  1.5090 -1.2454  2.5306
   28CHL1   C23 3237   4.307   2.122   4.701 -0.7669 -0.0776 -0.2176
   28CHL1  H23A 3238   4.394   2.055   4.683 -1.5269 -0.9076 -0.8195
   28CHL1  H23B 3239   4.213   2.064   4.705 -1.3787  0.7029 -2.6049
   28CHL1   C24 3240   4.292   2.223   4.592 -0.0930  0.1407 -0.0158
   28CHL1  H24A 3241   4.252   2.166   4.505 -4.2624  2.2286  0.4096
   28CHL1  H24B 3242   4.220   2.302   4.621  0.0189  0.4322 -0.5183
   28CHL1   C25 3243   4.414   2.287   4.542 -0.5735 -0.3199 -0.3139
   28CHL1   H25 3244   4.457   2.343   4.628 -1.2679 -0.8117  0.3569
   28CHL1   C26 3245   4.519   2.198   4.481 -0.2401  0.2303 -0.2199
   28CHL1  H26A 3246   4.574   2.122   4.541 -0.3004 -1.4111 -2.1717
   28CHL1  H26B 3247   4.472   2.134   4.403 -0.7823 -2.3313  2.1239
   28CHL1  H26C 3248   4.589   2.258   4.418 -0.2439 -1.1388 -1.5620
   28CHL1   C27 3249   4.377   2.402   4.443  0.3358 -0.2954  0.7296
   28CHL1  H27A 3250   4.304   2.469   4.493 -0.3113 -0.0787 -0.4851
   28CHL1  H27B 3251   4.469   2.451   4.408 -0.0078  1.1540  1.8127
   28CHL1  H27C 3252   4.324   2.357   4.356  2.5311  0.0919 -0.8335
   29CHL1    C3 3253   1.970   3.899   6.046 -0.8300 -0.6281 -0.6852
   29CHL1    H3 3254   1.982   3.791   6.021  0.2736 -1.0967  1.8029
   29CHL1    O3 3255   1.988   3.923   6.186  0.0400 -0.3901 -1.0076
   29CHL1   H3' 3256   2.008   4.017   6.187 -2.2585  0.1213  2.2230
   29CHL1    C4 3257   2.074   3.982   5.960 -1.0231  0.1080  0.0828
   29CHL1   H4A 3258   2.063   4.090   5.986  0.1762  0.1514  0.4287
   29CHL1   H4B 3259   2.174   3.943   5.989 -0.6807 -0.2710 -1.5508
   29CHL1    C5 3260   2.055   3.955   5.812 -0.0693  0.2764  0.0726
   29CHL1    C6 3261   2.151   3.900   5.737  0.0134 -0.2404  0.1308
   29CHL1    H6 3262   2.249   3.868   5.775 -0.9787  1.1385  4.1121
   29CHL1    C7 3263   2.131   3.886   5.583 -0.5144 -0.1511  0.2209
   29CHL1   H7A 3264   2.220   3.932   5.535  0.1983 -0.1014  1.5669
   29CHL1   H7B 3265   2.129   3.777   5.562  1.5966  0.2332 -2.1885
   29CHL1    C8 3266   2.008   3.953   5.529 -0.0231  0.4095 -0.0644
   29CHL1    H8 3267   2.048   4.057   5.527  2.7282 -0.6170  0.3831
   29CHL1   C14 3268   1.987   3.905   5.382  0.6738  0.7762 -0.4539
   29CHL1   H14 3269   1.963   3.799   5.402  1.2683  0.5770 -0.7783
   29CHL1   C15 3270   2.103   3.919   5.284 -0.0741  0.2049  0.2938
   29CHL1  H15A 3271   2.149   4.020   5.276  0.3130 -0.2006 -3.2701
   29CHL1  H15B 3272   2.184   3.845   5.304 -0.3243 -0.3242 -0.6301
   29CHL1   C16 3273   2.039   3.893   5.152  0.0389  0.1217 -0.3149
   29CHL1  H16A 3274   2.078   3.969   5.081 -0.0273 -0.9778 -1.5468
   29CHL1  H16B 3275   2.066   3.794   5.109 -0.0577 -0.4735  0.9941
   29CHL1   C17 3276   1.880   3.900   5.172 -0.1518 -0.1828  0.8606
   29CHL1   H17 3277   1.847   3.795   5.185  2.6762 -1.3875 -1.1230
   29CHL1   C13 3278   1.868   3.970   5.310 -0.0639 -0.8102 -0.4589
   29CHL1   C18 3279   1.889   4.121   5.293  0.1187 -0.0954  0.2757
   29CHL1  H18A 3280   1.963   4.146   5.213 -0.1095  1.4429  0.5290
   29CHL1  H18B 3281   1.797   4.176   5.263 -0.2340 -1.4749 -1.2497
   29CHL1  H18C 3282   1.932   4.164   5.386  0.1825  2.3284 -0.8198
   29CHL1   C12 3283   1.739   3.959   5.400  0.2889 -0.5054  0.0089
   29CHL1  H12A 3284   1.668   4.018   5.338  3.2538  2.2094 -0.9222
   29CHL1  H12B 3285   1.705   3.854   5.411 -0.0329 -0.6058 -1.7691
   29CHL1   C11 3286   1.769   4.010   5.538 -0.2653 -0.4921 -0.0438
   29CHL1  H11A 3287   1.793   4.119   5.533 -0.8337 -0.3311  0.5139
   29CHL1  H11B 3288   1.677   3.991   5.599 -0.7243  1.9922  0.1076
   29CHL1    C9 3289   1.889   3.949   5.614  0.8930 -0.3739  0.6374
   29CHL1    H9 3290   1.862   3.841   5.621 -0.5160 -0.0585 -0.0110
   29CHL1   C10 3291   1.913   3.996   5.760 -0.5002 -0.1478  0.7710
   29CHL1   C19 3292   1.896   4.154   5.775  0.1208  1.2605  1.0095
   29CHL1  H19A 3293   1.961   4.218   5.711  0.6346 -0.7884 -0.5852
   29CHL1  H19B 3294   1.794   4.177   5.736 -0.2652 -0.1057  1.1817
   29CHL1  H19C 3295   1.904   4.195   5.878  2.0871  0.5535  1.1625
   29CHL1    C1 3296   1.808   3.926   5.850 -0.8816  0.1132 -0.3164
   29CHL1   H1A 3297   1.709   3.975   5.833 -0.3871  0.7304 -1.4803
   29CHL1   H1B 3298   1.805   3.817   5.828 -2.3612  0.1568 -0.4193
   29CHL1    C2 3299   1.833   3.943   5.996 -0.0747  0.5463  0.2588
   29CHL1   H2A 3300   1.756   3.879   6.046 -1.4872  1.6267 -0.5154
   29CHL1   H2B 3301   1.806   4.047   6.025  0.8805  1.3401 -1.5933
   29CHL1   C20 3302   1.811   3.955   5.044 -0.4225  0.9173  0.1861
   29CHL1   H20 3303   1.843   4.061   5.032 -0.9154  0.7937 -2.6169
   29CHL1   C21 3304   1.657   3.961   5.059  0.5774 -0.0662 -0.3508
   29CHL1  H21A 3305   1.620   4.012   4.968 -1.9837 -0.9351  0.1538
   29CHL1  H21B 3306   1.621   3.992   5.160 -0.8250 -0.6300 -0.6676
   29CHL1  H21C 3307   1.616   3.860   5.037  0.9297 -0.3273  0.1692
   29CHL1   C22 3308   1.846   3.868   4.922  0.3283  0.3327  0.0399
   29CHL1  H22A 3309   1.956   3.865   4.911  0.4851 -2.6855  2.0391
   29CHL1  H22B 3310   1.802   3.766   4.929  2.7656 -0.7854 -0.5186
   29CHL1   C23 3311   1.794   3.932   4.787  0.2597 -0.1999 -0.3992
   29CHL1  H23A 3312   1.683   3.936   4.776  0.4049 -0.2896 -1.9941
   29CHL1  H23B 3313   1.813   4.042   4.789 -0.3614 -0.0855 -0.4657
   29CHL1   C24 3314   1.840   3.865   4.662  0.3122  0.7222 -0.5460
   29CHL1  H24A 3315   1.951   3.857   4.660  0.1881 -3.1816  2.1775
   29CHL1  H24B 3316   1.799   3.762   4.666  0.9089  0.4503 -1.2649
   29CHL1   C25 3317   1.800   3.943   4.531 -0.0265 -0.6884 -0.0962
   29CHL1   H25 3318   1.694   3.972   4.540  1.0830  3.4631  0.7577
   29CHL1   C26 3319   1.882   4.082   4.530 -0.3034  0.3781 -0.0739
   29CHL1  H26A 3320   1.855   4.134   4.436 -0.4273  1.6818  0.6797
   29CHL1  H26B 3321   1.855   4.139   4.622 -1.2521  0.6722 -0.5307
   29CHL1  H26C 3322   1.992   4.076   4.514 -0.2276  2.0182 -0.1664
   29CHL1   C27 3323   1.803   3.861   4.396  0.3919  0.0938 -0.0429
   29CHL1  H27A 3324   1.740   3.911   4.319 -2.0705 -0.8852  1.3112
   29CHL1  H27B 3325   1.909   3.854   4.363  0.4023 -0.6473  0.1435
   29CHL1  H27C 3326   1.755   3.764   4.418  1.8365 -0.3353  1.3144
   30CHL1    C3 3327   2.675   5.325   5.967 -1.0307 -0.5429 -0.5181
   30CHL1    H3 3328   2.577   5.366   5.935 -0.3893 -0.2869 -2.2437
   30CHL1    O3 3329   2.675   5.323   6.110 -0.3121  0.7074 -0.0656
   30CHL1   H3' 3330   2.735   5.253   6.137  0.4802  0.4090 -2.4956
   30CHL1    C4 3331   2.700   5.184   5.907 -0.5729  0.1583  0.7181
   30CHL1   H4A 3332   2.789   5.136   5.954 -1.4823 -1.6138  0.6612
   30CHL1   H4B 3333   2.614   5.124   5.942 -1.1791  0.2140 -0.6303
   30CHL1    C5 3334   2.714   5.177   5.757  0.5223  0.1645  0.6857
   30CHL1    C6 3335   2.643   5.095   5.683 -0.0795  0.1678 -0.2060
   30CHL1    H6 3336   2.571   5.025   5.728  1.4325 -0.7798  0.7647
   30CHL1    C7 3337   2.658   5.090   5.531 -0.8595  0.6182  0.3916
   30CHL1   H7A 3338   2.658   4.991   5.482  1.8823  1.4963 -1.5142
   30CHL1   H7B 3339   2.570   5.140   5.486  0.9118  3.9921  0.4232
   30CHL1    C8 3340   2.779   5.170   5.475 -0.2703 -0.1861 -0.3591
   30CHL1    H8 3341   2.874   5.114   5.487  1.9312  2.9805 -2.3581
   30CHL1   C14 3342   2.764   5.189   5.327  0.1089  0.2990 -0.0382
   30CHL1   H14 3343   2.675   5.252   5.306  0.7424  1.1929 -0.0774
   30CHL1   C15 3344   2.745   5.057   5.249 -0.4952 -0.8264 -0.3823
   30CHL1  H15A 3345   2.812   4.978   5.290 -0.6567  0.0561  1.6531
   30CHL1  H15B 3346   2.637   5.031   5.249 -0.6130 -0.3410 -1.2229
   30CHL1   C16 3347   2.794   5.092   5.106 -0.3633 -0.5670  0.2069
   30CHL1  H16A 3348   2.877   5.023   5.080  0.7428  0.7614  0.1594
   30CHL1  H16B 3349   2.711   5.079   5.032  0.9947 -3.6320 -0.8691
   30CHL1   C17 3350   2.855   5.236   5.115  0.0941 -0.5808 -0.1278
   30CHL1   H17 3351   2.776   5.307   5.083 -0.2187 -0.9607 -0.1983
   30CHL1   C13 3352   2.892   5.257   5.261 -0.5117  0.6117  0.0023
   30CHL1   C18 3353   3.019   5.172   5.290  0.1776  0.3573 -1.3027
   30CHL1  H18A 3354   3.114   5.215   5.252  0.8541  0.5111  0.4940
   30CHL1  H18B 3355   3.041   5.166   5.399 -0.6047 -0.2342 -1.1737
   30CHL1  H18C 3356   3.030   5.070   5.247 -2.0359  0.3223 -1.8188
   30CHL1   C12 3357   2.895   5.403   5.320  0.6231 -0.6634  0.8323
   30CHL1  H12A 3358   2.985   5.456   5.283  0.7573 -1.8228 -0.5435
   30CHL1  H12B 3359   2.801   5.459   5.299  1.2200  0.8774  2.1587
   30CHL1   C11 3360   2.914   5.401   5.477 -0.0353 -0.8327  1.1246
   30CHL1  H11A 3361   3.017   5.362   5.488  0.6348  0.2130 -1.1180
   30CHL1  H11B 3362   2.915   5.505   5.515  1.3198 -0.2996 -0.3474
   30CHL1    C9 3363   2.800   5.303   5.545  0.3022  0.4238 -0.7748
   30CHL1    H9 3364   2.704   5.357   5.534  0.2234  0.7136  1.2656
   30CHL1   C10 3365   2.820   5.280   5.700  0.2271  0.2419 -0.3506
   30CHL1   C19 3366   2.966   5.234   5.726  0.2347  0.0449  0.3261
   30CHL1  H19A 3367   2.987   5.220   5.834 -0.2909 -0.5828  0.3504
   30CHL1  H19B 3368   2.986   5.137   5.676 -1.5684  0.7622 -1.8901
   30CHL1  H19C 3369   3.044   5.305   5.690  1.5338 -1.4223  0.2027
   30CHL1    C1 3370   2.795   5.423   5.767 -0.3793  0.5939  0.1001
   30CHL1   H1A 3371   2.877   5.493   5.739 -0.6015  1.6054  1.8937
   30CHL1   H1B 3372   2.703   5.473   5.729 -0.8714  1.2815  2.1333
   30CHL1    C2 3373   2.789   5.421   5.916 -0.4854 -0.1616  0.4722
   30CHL1   H2A 3374   2.759   5.520   5.956  0.0839  0.6055 -0.9262
   30CHL1   H2B 3375   2.889   5.395   5.959 -1.2258  1.1735  3.0703
   30CHL1   C20 3376   2.962   5.261   5.010 -0.2869 -0.8567  0.4335
   30CHL1   H20 3377   3.053   5.201   5.030 -0.6306 -1.6948 -0.5110
   30CHL1   C21 3378   2.998   5.415   4.992 -0.5382  0.5656 -0.4295
   30CHL1  H21A 3379   3.011   5.478   5.083 -0.8651  0.9090 -0.6178
   30CHL1  H21B 3380   2.919   5.465   4.932 -2.2814 -0.5129  0.8892
   30CHL1  H21C 3381   3.091   5.422   4.933 -0.5556 -2.2562 -0.8506
   30CHL1   C22 3382   2.935   5.192   4.873  0.3765 -0.8587  0.2668
   30CHL1  H22A 3383   2.928   5.084   4.894  0.5968 -1.1336 -1.0045
   30CHL1  H22B 3384   2.830   5.210   4.841 -0.4226 -1.2039  2.6543
   30CHL1   C23 3385   3.024   5.237   4.753  0.6548  0.3971  1.0583
   30CHL1  H23A 3386   2.992   5.339   4.723 -1.0115  0.5885  3.4139
   30CHL1  H23B 3387   3.132   5.245   4.781  1.0971  0.3051 -0.5908
   30CHL1   C24 3388   3.009   5.149   4.630 -0.7241 -0.0081  0.2005
   30CHL1  H24A 3389   3.024   5.042   4.655 -1.4961 -0.3324 -0.7213
   30CHL1  H24B 3390   2.910   5.169   4.583 -1.1719  0.8176  1.4662
   30CHL1   C25 3391   3.110   5.179   4.512  0.0376  0.6641  0.1483
   30CHL1   H25 3392   3.213   5.153   4.545 -0.1282  0.3778  0.4333
   30CHL1   C26 3393   3.077   5.100   4.394  0.0437 -0.5669  0.3531
   30CHL1  H26A 3394   3.069   4.990   4.406 -0.5417 -0.3363  2.2056
   30CHL1  H26B 3395   2.978   5.128   4.351  0.1049 -0.3783  0.3327
   30CHL1  H26C 3396   3.159   5.119   4.321 -1.5170  0.5504 -1.1702
   30CHL1   C27 3397   3.109   5.329   4.478 -0.0395  0.0971  0.1445
   30CHL1  H27A 3398   3.166   5.351   4.386 -0.2252  1.9756  0.4704
   30CHL1  H27B 3399   3.003   5.352   4.452  0.2306 -1.5057 -2.5694
   30CHL1  H27C 3400   3.130   5.409   4.552 -0.7299 -0.7964  1.3423
   31CHL1    C3 3401   1.552   5.031   6.033 -0.8993  0.0918 -0.4809
   31CHL1    H3 3402   1.652   4.982   6.038 -1.7785 -1.7506 -0.5362
   31CHL1    O3 3403   1.491   5.051   6.159 -0.1695  0.3253 -0.0611
   31CHL1   H3' 3404   1.395   5.055   6.147 -0.4928 -1.1354  1.8887
   31CHL1    C4 3405   1.574   5.170   5.980  0.0015  0.8765  0.3549
   31CHL1   H4A 3406   1.478   5.226   5.978  0.6671  2.0569  0.8986
   31CHL1   H4B 3407   1.636   5.217   6.059  1.1765 -2.0356  1.2059
   31CHL1    C5 3408   1.631   5.181   5.846  0.0122 -0.6279  0.4089
   31CHL1    C6 3409   1.730   5.258   5.810  0.8884 -0.8430  0.0663
   31CHL1    H6 3410   1.782   5.303   5.895 -0.6333  0.5322  0.2944
   31CHL1    C7 3411   1.782   5.287   5.672 -0.0944  0.0635  0.0654
   31CHL1   H7A 3412   1.799   5.396   5.655 -1.2648  0.2515  0.0648
   31CHL1   H7B 3413   1.884   5.244   5.664  0.7033  1.9846 -0.5031
   31CHL1    C8 3414   1.690   5.228   5.570 -0.5325 -0.6866  0.5449
   31CHL1    H8 3415   1.605   5.297   5.549 -1.0322 -1.0638  1.2900
   31CHL1   C14 3416   1.762   5.207   5.436  0.2907  0.1752 -0.3631
   31CHL1   H14 3417   1.841   5.131   5.452  0.0363 -0.0525 -0.1879
   31CHL1   C15 3418   1.847   5.324   5.374  0.1362 -0.9760 -0.7039
   31CHL1  H15A 3419   1.791   5.420   5.372  3.8804  1.3069  0.6429
   31CHL1  H15B 3420   1.945   5.332   5.425 -0.9187 -1.3161  1.4530
   31CHL1   C16 3421   1.874   5.279   5.231  0.4014 -0.4302  0.9170
   31CHL1  H16A 3422   1.835   5.356   5.161  0.4461 -0.4159  0.9075
   31CHL1  H16B 3423   1.981   5.256   5.212  0.4100 -0.4060  0.9351
   31CHL1   C17 3424   1.799   5.143   5.216 -0.0230 -0.7138  0.1634
   31CHL1   H17 3425   1.879   5.072   5.245 -0.1414 -1.6143 -1.6581
   31CHL1   C13 3426   1.694   5.140   5.324 -0.7472  0.1807 -0.2508
   31CHL1   C18 3427   1.566   5.220   5.288  0.7445 -0.2613  0.2612
   31CHL1  H18A 3428   1.496   5.162   5.225 -1.4717  0.6931  1.7798
   31CHL1  H18B 3429   1.509   5.252   5.377  2.4871 -2.1998  2.1657
   31CHL1  H18C 3430   1.593   5.313   5.233  2.5506 -1.1752 -0.4551
   31CHL1   C12 3431   1.639   5.002   5.365  0.6095  0.2130  0.7087
   31CHL1  H12A 3432   1.576   4.962   5.283  0.1911  0.8936  0.6896
   31CHL1  H12B 3433   1.721   4.927   5.373 -0.8382 -1.4449  0.3778
   31CHL1   C11 3434   1.556   5.009   5.505 -0.0262  0.4870 -0.2535
   31CHL1  H11A 3435   1.457   5.048   5.474 -0.3882 -0.3117 -0.1303
   31CHL1  H11B 3436   1.541   4.911   5.555  1.4032  1.9960  3.2430
   31CHL1    C9 3437   1.630   5.093   5.612  0.4744  0.8042 -0.3583
   31CHL1    H9 3438   1.724   5.038   5.629 -2.5458 -4.1596  1.4382
   31CHL1   C10 3439   1.552   5.105   5.746 -0.2773  0.3510  0.1778
   31CHL1   C19 3440   1.415   5.168   5.713  0.0190  0.2882 -0.2409
   31CHL1  H19A 3441   1.430   5.265   5.661 -0.9607 -0.2074 -1.4966
   31CHL1  H19B 3442   1.351   5.090   5.665  2.0583 -2.2900  1.0873
   31CHL1  H19C 3443   1.365   5.184   5.810 -0.4018 -2.8952  0.1322
   31CHL1    C1 3444   1.522   4.959   5.793  0.1282 -0.1227 -0.1835
   31CHL1   H1A 3445   1.450   4.903   5.730 -0.9211  0.4580  0.4634
   31CHL1   H1B 3446   1.620   4.908   5.795  1.4070  2.3164  0.1294
   31CHL1    C2 3447   1.467   4.949   5.934  0.6240 -0.7578 -0.2897
   31CHL1   H2A 3448   1.467   4.842   5.963 -1.2222 -0.2698  1.6765
   31CHL1   H2B 3449   1.370   5.003   5.936  0.2483 -1.4414  2.4690
   31CHL1   C20 3450   1.757   5.099   5.071  0.1619 -0.0311  0.4575
   31CHL1   H20 3451   1.650   5.121   5.050  0.5532 -0.2582 -1.9991
   31CHL1   C21 3452   1.760   4.944   5.065 -0.2315 -0.0669 -0.1068
   31CHL1  H21A 3453   1.867   4.915   5.059  0.1252  0.9563  1.2162
   31CHL1  H21B 3454   1.703   4.903   4.979  0.3201 -1.0693 -0.0086
   31CHL1  H21C 3455   1.722   4.886   5.153  1.7663  2.3819  2.4434
   31CHL1   C22 3456   1.838   5.173   4.963  0.0482  0.6052 -0.3587
   31CHL1  H22A 3457   1.809   5.279   4.952  0.8979  0.8956  0.1636
   31CHL1  H22B 3458   1.944   5.161   4.993  0.1044 -2.4197 -1.5668
   31CHL1   C23 3459   1.841   5.097   4.821  0.0124  0.1251  0.3822
   31CHL1  H23A 3460   1.850   4.986   4.831  1.3692 -0.0338 -2.0567
   31CHL1  H23B 3461   1.749   5.120   4.763  2.5630  2.1917 -3.0608
   31CHL1   C24 3462   1.942   5.154   4.725 -0.3843  0.4998  0.6843
   31CHL1  H24A 3463   1.901   5.244   4.676 -2.1505 -0.4674  0.3620
   31CHL1  H24B 3464   2.032   5.178   4.786 -1.5918 -1.0493  3.1514
   31CHL1   C25 3465   1.992   5.057   4.621  0.0583 -0.0502 -0.6743
   31CHL1   H25 3466   2.049   4.972   4.665 -0.5566 -0.5570 -0.8635
   31CHL1   C26 3467   1.872   4.979   4.557  0.3443  0.5721  0.1527
   31CHL1  H26A 3468   1.791   5.052   4.537 -0.3036  0.1483  1.1492
   31CHL1  H26B 3469   1.909   4.921   4.470  0.3846  0.9188 -0.0623
   31CHL1  H26C 3470   1.830   4.907   4.631  0.3351 -2.1932 -2.4442
   31CHL1   C27 3471   2.090   5.120   4.521 -1.2142 -0.8162  0.6562
   31CHL1  H27A 3472   2.180   5.161   4.569 -1.1905 -0.0884  0.0043
   31CHL1  H27B 3473   2.125   5.051   4.440  1.9401 -0.0381  1.3022
   31CHL1  H27C 3474   2.040   5.205   4.469  2.9251  2.5600  1.9429
   32CHL1    C3 3475   4.492   1.299   5.877 -1.1040 -0.1709  0.4592
   32CHL1    H3 3476   4.428   1.386   5.852 -0.7447  0.3388  1.2923
   32CHL1    O3 3477   4.498   1.293   6.017 -0.0466 -0.2563  0.2404
   32CHL1   H3' 3478   4.457   1.213   6.051  0.5183 -1.0284 -0.8514
   32CHL1    C4 3479   4.430   1.173   5.820 -0.7702  0.0175 -0.5037
   32CHL1   H4A 3480   4.496   1.093   5.859 -1.2551 -1.0280 -1.8206
   32CHL1   H4B 3481   4.333   1.148   5.868  0.8991 -0.9273  2.5508
   32CHL1    C5 3482   4.422   1.174   5.672 -0.0576  0.4721  0.0810
   32CHL1    C6 3483   4.307   1.158   5.603 -0.0064  1.0570  0.0589
   32CHL1    H6 3484   4.217   1.136   5.663  0.1645 -1.4190 -0.5316
   32CHL1    C7 3485   4.290   1.142   5.456 -0.0567 -0.8431  0.0962
   32CHL1   H7A 3486   4.236   1.048   5.431 -0.0377 -0.7946 -0.1315
   32CHL1   H7B 3487   4.233   1.229   5.419  1.1172  1.0994  2.7260
   32CHL1    C8 3488   4.430   1.134   5.384  0.5697 -0.6564  0.1373
   32CHL1    H8 3489   4.466   1.030   5.399 -2.0189 -1.4371  1.2900
   32CHL1   C14 3490   4.413   1.163   5.243  0.1206  0.5777  0.2872
   32CHL1   H14 3491   4.365   1.263   5.234 -0.7013  0.1077 -0.6844
   32CHL1   C15 3492   4.309   1.077   5.162 -0.2192  1.0650  0.2088
   32CHL1  H15A 3493   4.310   0.972   5.200  0.8074  0.4130 -1.5849
   32CHL1  H15B 3494   4.211   1.123   5.188 -1.0557 -0.3982 -0.3106
   32CHL1   C16 3495   4.361   1.094   5.015  0.4434 -0.3746  0.0814
   32CHL1  H16A 3496   4.368   0.994   4.966 -1.1134  0.2415 -1.4613
   32CHL1  H16B 3497   4.285   1.141   4.949 -0.5011 -3.3748 -1.0256
   32CHL1   C17 3498   4.481   1.188   5.019  0.0955 -0.1820 -0.4256
   32CHL1   H17 3499   4.448   1.294   5.024 -0.4255 -0.3776  0.2479
   32CHL1   C13 3500   4.538   1.161   5.157 -0.6045 -0.2096 -0.9811
   32CHL1   C18 3501   4.596   1.021   5.156  0.4158  0.3775 -0.1976
   32CHL1  H18A 3502   4.643   0.999   5.254 -1.1290  1.2336  0.7330
   32CHL1  H18B 3503   4.524   0.938   5.137  1.3325 -0.5261  0.2275
   32CHL1  H18C 3504   4.680   1.018   5.083  1.4112 -2.4094  0.9900
   32CHL1   C12 3505   4.637   1.267   5.208 -0.2361 -1.1072  0.8133
   32CHL1  H12A 3506   4.737   1.241   5.167 -0.2129  2.7831 -1.7810
   32CHL1  H12B 3507   4.607   1.369   5.176  0.2410 -0.7630  1.4653
   32CHL1   C11 3508   4.655   1.261   5.361 -0.3673 -0.1414 -0.4498
   32CHL1  H11A 3509   4.729   1.179   5.376 -0.9168 -0.6792 -0.6428
   32CHL1  H11B 3510   4.685   1.362   5.397  1.9164 -0.1297 -2.2586
   32CHL1    C9 3511   4.526   1.243   5.445  0.1703  0.0256 -0.1639
   32CHL1    H9 3512   4.463   1.335   5.435  0.1261  0.2950  2.3312
   32CHL1   C10 3513   4.546   1.221   5.601  1.2830  0.7457  0.4788
   32CHL1   C19 3514   4.653   1.116   5.623 -0.4723 -0.1301 -0.3329
   32CHL1  H19A 3515   4.637   1.027   5.558 -0.2927 -0.1359 -0.3673
   32CHL1  H19B 3516   4.751   1.156   5.590  0.5309 -1.5279  0.8593
   32CHL1  H19C 3517   4.669   1.089   5.730  2.3626  0.8960 -0.4648
   32CHL1    C1 3518   4.599   1.360   5.661 -0.5017  0.0066  0.2468
   32CHL1   H1A 3519   4.697   1.388   5.616 -1.5064  0.3217 -1.7805
   32CHL1   H1B 3520   4.536   1.450   5.647  0.8433  0.7481 -1.1655
   32CHL1    C2 3521   4.623   1.346   5.814 -0.2075  0.5804  0.0727
   32CHL1   H2A 3522   4.655   1.446   5.850  0.3397  0.7245 -0.8160
   32CHL1   H2B 3523   4.715   1.288   5.836 -0.0715  1.1575  1.0420
   32CHL1   C20 3524   4.569   1.181   4.891  0.0823  0.5405  0.0062
   32CHL1   H20 3525   4.618   1.081   4.885  0.2318  0.5204  1.4215
   32CHL1   C21 3526   4.675   1.291   4.897 -0.4132  0.3023 -0.2377
   32CHL1  H21A 3527   4.723   1.313   4.800  0.0977  1.9091  0.3656
   32CHL1  H21B 3528   4.752   1.279   4.976 -0.6897  2.0203  0.3097
   32CHL1  H21C 3529   4.617   1.384   4.918 -0.1407  0.3625  0.2725
   32CHL1   C22 3530   4.489   1.190   4.759 -0.8843  0.2388 -0.1934
   32CHL1  H22A 3531   4.398   1.129   4.776  1.3885 -3.2568 -0.1010
   32CHL1  H22B 3532   4.443   1.290   4.743 -0.3167  0.5335 -0.0012
   32CHL1   C23 3533   4.568   1.142   4.637 -1.1112 -0.0642  0.6636
   32CHL1  H23A 3534   4.670   1.183   4.626 -1.2345  0.1596  0.3342
   32CHL1  H23B 3535   4.569   1.032   4.652 -0.0252 -0.5614 -2.5834
   32CHL1   C24 3536   4.505   1.167   4.496 -0.0505 -0.7694 -0.6579
   32CHL1  H24A 3537   4.546   1.094   4.422 -0.8214  1.5980 -3.5091
   32CHL1  H24B 3538   4.396   1.149   4.495 -0.4020  1.2501 -0.7887
   32CHL1   C25 3539   4.522   1.309   4.437  0.0667  0.5269 -0.2860
   32CHL1   H25 3540   4.475   1.385   4.504 -1.6163  0.3743 -1.2498
   32CHL1   C26 3541   4.672   1.352   4.426 -0.0207  0.3290  0.1129
   32CHL1  H26A 3542   4.674   1.452   4.377 -2.9100  2.4411  3.9937
   32CHL1  H26B 3543   4.716   1.366   4.527  2.6364  3.1678 -1.3625
   32CHL1  H26C 3544   4.728   1.278   4.366  1.1229  0.8986  0.4669
   32CHL1   C27 3545   4.470   1.307   4.289  0.3057 -0.6005  0.0305
   32CHL1  H27A 3546   4.509   1.222   4.230  2.6735  0.6371 -0.2348
   32CHL1  H27B 3547   4.359   1.301   4.292  0.0562  2.9414 -0.7283
   32CHL1  H27C 3548   4.498   1.403   4.240 -0.6075  1.2797  3.0471
   33CHL1    C3 3549   1.246   4.201   5.992  0.3427 -0.2642  0.5064
   33CHL1    H3 3550   1.137   4.179   5.990 -0.1248  1.9594  0.4500
   33CHL1    O3 3551   1.285   4.253   6.116 -0.4827  0.2823 -0.1329
   33CHL1   H3' 3552   1.329   4.180   6.161  1.9242  0.7250 -1.6675
   33CHL1    C4 3553   1.322   4.064   5.970  0.5820 -0.3550  0.1204
   33CHL1   H4A 3554   1.432   4.077   5.973  0.5889  0.1490 -1.6041
   33CHL1   H4B 3555   1.299   4.001   6.058 -0.3387 -1.3459 -0.8185
   33CHL1    C5 3556   1.286   3.993   5.843 -1.1025  0.8496  0.2316
   33CHL1    C6 3557   1.236   3.871   5.845  0.3161  0.8515 -0.2214
   33CHL1    H6 3558   1.230   3.810   5.936  0.3523 -0.1110 -0.8640
   33CHL1    C7 3559   1.184   3.810   5.721 -0.0039 -0.1677 -0.4258
   33CHL1   H7A 3560   1.215   3.703   5.730  1.5532  0.4287  1.6598
   33CHL1   H7B 3561   1.074   3.807   5.707 -0.2366 -1.9906  1.5216
   33CHL1    C8 3562   1.244   3.869   5.590 -0.4802 -0.3365 -0.4096
   33CHL1    H8 3563   1.352   3.844   5.590 -0.2911  0.3358  1.6643
   33CHL1   C14 3564   1.186   3.816   5.466 -0.2503 -0.2768  1.5957
   33CHL1   H14 3565   1.081   3.853   5.469 -0.5913 -1.0128 -0.4909
   33CHL1   C15 3566   1.176   3.666   5.439 -0.3081 -0.0729  0.1864
   33CHL1  H15A 3567   1.281   3.631   5.447 -1.3804 -3.2479  1.1718
   33CHL1  H15B 3568   1.117   3.607   5.513 -2.5799  2.4729  0.5090
   33CHL1   C16 3569   1.140   3.660   5.289 -0.3327 -0.3832 -0.4372
   33CHL1  H16A 3570   1.206   3.591   5.234 -0.0313 -0.7297  0.3531
   33CHL1  H16B 3571   1.038   3.620   5.272 -0.6777  0.0356  0.5720
   33CHL1   C17 3572   1.157   3.802   5.226 -0.4813 -0.4112 -0.0725
   33CHL1   H17 3573   1.067   3.867   5.221 -1.4875 -1.8663 -1.2933
   33CHL1   C13 3574   1.240   3.874   5.333 -0.2224 -0.5114 -0.0151
   33CHL1   C18 3575   1.392   3.849   5.316  0.0830 -0.8194 -0.0449
   33CHL1  H18A 3576   1.410   3.741   5.301  0.8483 -1.0348  2.1420
   33CHL1  H18B 3577   1.427   3.912   5.231  0.1767 -0.6059  0.1503
   33CHL1  H18C 3578   1.442   3.885   5.409  1.7187  0.8182 -1.5099
   33CHL1   C12 3579   1.214   4.032   5.344 -1.0848  0.5554 -0.0937
   33CHL1  H12A 3580   1.257   4.074   5.250 -0.6447  0.1722 -0.0680
   33CHL1  H12B 3581   1.107   4.062   5.343 -1.4547 -0.7728 -1.4102
   33CHL1   C11 3582   1.286   4.096   5.464 -0.4166  0.5873 -0.7015
   33CHL1  H11A 3583   1.397   4.093   5.458 -0.3206  0.1553  1.0329
   33CHL1  H11B 3584   1.250   4.201   5.468 -1.0696  0.3674 -0.6503
   33CHL1    C9 3585   1.239   4.024   5.595  0.0774 -0.5841 -0.2344
   33CHL1    H9 3586   1.132   4.049   5.612  0.1489  0.6036 -1.4100
   33CHL1   C10 3587   1.313   4.085   5.724  0.0167 -0.0348 -0.1594
   33CHL1   C19 3588   1.462   4.074   5.711  0.2806 -0.1822 -0.1054
   33CHL1  H19A 3589   1.502   4.136   5.628 -2.2172 -0.2319 -1.4019
   33CHL1  H19B 3590   1.522   4.098   5.801 -0.5338 -1.0612  0.6830
   33CHL1  H19C 3591   1.491   3.967   5.701  1.1883 -0.2359  2.7315
   33CHL1    C1 3592   1.270   4.233   5.743  0.0220 -0.3784 -0.3506
   33CHL1   H1A 3593   1.301   4.303   5.662  1.5599  0.1712  0.6801
   33CHL1   H1B 3594   1.162   4.219   5.724  0.1075 -1.2768 -0.2020
   33CHL1    C2 3595   1.288   4.294   5.879 -0.1163 -0.2367 -0.0681
   33CHL1   H2A 3596   1.231   4.388   5.866 -0.3311 -0.3844 -0.1881
   33CHL1   H2B 3597   1.398   4.305   5.895 -0.2444 -1.6981  1.9585
   33CHL1   C20 3598   1.200   3.792   5.077 -1.0754  0.5313 -0.3895
   33CHL1   H20 3599   1.305   3.757   5.073 -1.1127  0.3427  0.3275
   33CHL1   C21 3600   1.198   3.927   5.012 -0.6439 -0.2712 -0.0676
   33CHL1  H21A 3601   1.260   3.998   5.072 -1.3878 -1.0103  1.6094
   33CHL1  H21B 3602   1.100   3.978   5.003  0.8247  2.3017 -2.5454
   33CHL1  H21C 3603   1.232   3.920   4.906 -0.2644 -0.5645  0.0710
   33CHL1   C22 3604   1.120   3.696   4.985 -0.7328  0.1511 -0.8945
   33CHL1  H22A 3605   1.123   3.593   5.028  1.1789  0.2399 -0.7871
   33CHL1  H22B 3606   1.014   3.727   4.969 -0.8274  0.1881 -0.2139
   33CHL1   C23 3607   1.184   3.681   4.843  0.6176 -0.1698  1.0291
   33CHL1  H23A 3608   1.169   3.774   4.784  0.8520 -0.7574  0.0486
   33CHL1  H23B 3609   1.291   3.655   4.861  0.6502 -0.1308  0.8918
   33CHL1   C24 3610   1.108   3.568   4.760  0.1170 -0.3368 -0.8303
   33CHL1  H24A 3611   1.149   3.475   4.805 -1.9477 -1.6027 -1.5095
   33CHL1  H24B 3612   1.000   3.569   4.783  0.7728 -1.6907  2.6918
   33CHL1   C25 3613   1.140   3.566   4.609 -0.5813 -0.3987 -0.1059
   33CHL1   H25 3614   1.112   3.658   4.552  2.0317 -0.1587 -1.0547
   33CHL1   C26 3615   1.286   3.531   4.581 -0.0290 -0.5011 -0.6014
   33CHL1  H26A 3616   1.347   3.612   4.627 -0.8581 -0.1486 -0.0951
   33CHL1  H26B 3617   1.309   3.427   4.612  0.2028 -0.5805 -1.0393
   33CHL1  H26C 3618   1.304   3.540   4.472 -0.6414  0.7725 -0.6041
   33CHL1   C27 3619   1.047   3.459   4.544 -0.5642  0.2715  0.6647
   33CHL1  H27A 3620   0.939   3.467   4.568 -0.9510 -0.4922 -0.7896
   33CHL1  H27B 3621   1.051   3.475   4.434 -0.9353 -0.1296  0.5958
   33CHL1  H27C 3622   1.076   3.355   4.572 -0.5299  0.6733  2.1348
   34CHL1    C3 3623   2.146   5.907   5.875 -0.6490 -0.4801 -0.2522
   34CHL1    H3 3624   2.253   5.889   5.854 -0.3490 -1.0817  1.6934
   34CHL1    O3 3625   2.128   5.931   6.014 -0.1270 -0.1278 -0.0611
   34CHL1   H3' 3626   2.102   6.023   6.026 -1.9830 -0.9067  2.3101
   34CHL1    C4 3627   2.099   6.021   5.789 -0.0965  0.6433  0.0645
   34CHL1   H4A 3628   1.994   6.048   5.814  0.0905  0.4252  1.1259
   34CHL1   H4B 3629   2.161   6.113   5.801  0.7625  0.0195  0.4334
   34CHL1    C5 3630   2.095   5.999   5.639 -0.0276  0.0970 -1.0391
   34CHL1    C6 3631   2.163   6.070   5.552  1.0610 -0.4730 -0.4158
   34CHL1    H6 3632   2.225   6.149   5.596  0.3372 -0.0055 -0.2262
   34CHL1    C7 3633   2.168   6.048   5.400 -0.2198  0.2506 -0.0831
   34CHL1   H7A 3634   2.148   6.136   5.336 -1.1560  0.2545  0.2177
   34CHL1   H7B 3635   2.268   6.000   5.387  0.8817  2.5030 -0.1073
   34CHL1    C8 3636   2.061   5.949   5.347  0.2312 -0.3002  0.1872
   34CHL1    H8 3637   1.966   6.005   5.353  1.3402  1.6591 -0.1597
   34CHL1   C14 3638   2.086   5.897   5.204 -0.8331 -0.3423  0.3500
   34CHL1   H14 3639   2.178   5.835   5.199 -0.4436  0.0461  2.1564
   34CHL1   C15 3640   2.086   6.004   5.085  0.3128  0.5825 -0.6283
   34CHL1  H15A 3641   1.991   6.062   5.088 -0.5942 -0.8839 -0.1744
   34CHL1  H15B 3642   2.176   6.067   5.067 -0.3009  1.5175 -0.4705
   34CHL1   C16 3643   2.071   5.911   4.966  0.6392  0.5270 -0.5672
   34CHL1  H16A 3644   1.988   5.949   4.903  0.4970  0.5830 -0.3488
   34CHL1  H16B 3645   2.163   5.904   4.904  0.1557 -0.3124 -1.1952
   34CHL1   C17 3646   2.026   5.765   5.013  0.1145 -0.2196 -0.1133
   34CHL1   H17 3647   2.113   5.696   5.023  0.5723  0.1821 -1.2729
   34CHL1   C13 3648   1.980   5.795   5.160  0.3869 -0.3253 -0.0269
   34CHL1   C18 3649   1.829   5.847   5.165 -0.2053  0.3044  0.0271
   34CHL1  H18A 3650   1.826   5.894   5.265 -1.9042 -0.3939  0.3351
   34CHL1  H18B 3651   1.796   5.920   5.088 -1.6675 -1.5288 -1.1504
   34CHL1  H18C 3652   1.752   5.767   5.154 -0.7981  0.9792 -0.7960
   34CHL1   C12 3653   1.992   5.676   5.253 -0.1349 -1.0105  0.2758
   34CHL1  H12A 3654   1.922   5.592   5.235 -1.5031 -0.0959  1.2264
   34CHL1  H12B 3655   2.098   5.645   5.252  0.2660  0.0968  3.6643
   34CHL1   C11 3656   1.968   5.717   5.401  0.5539  0.5118  0.1473
   34CHL1  H11A 3657   1.858   5.728   5.415  0.5663 -0.9253  1.4863
   34CHL1  H11B 3658   2.012   5.639   5.467  1.9084  0.7462 -0.4720
   34CHL1    C9 3659   2.060   5.834   5.449 -0.1406  0.6867  0.1684
   34CHL1    H9 3660   2.167   5.803   5.447  0.1623  1.4185  2.7546
   34CHL1   C10 3661   2.030   5.866   5.599 -0.1337 -0.2917 -0.4499
   34CHL1   C19 3662   1.875   5.883   5.630 -0.0916  0.1622 -0.5062
   34CHL1  H19A 3663   1.858   5.906   5.737  2.8785 -1.5632  0.4214
   34CHL1  H19B 3664   1.825   5.955   5.563 -1.8449  0.2378  0.8679
   34CHL1  H19C 3665   1.821   5.787   5.614 -0.5444  0.5791 -1.5443
   34CHL1    C1 3666   2.077   5.755   5.685 -0.6599  0.8832  0.4081
   34CHL1   H1A 3667   2.019   5.660   5.685 -1.4038  1.2483 -3.1600
   34CHL1   H1B 3668   2.179   5.729   5.651 -0.8204 -1.5942  1.7074
   34CHL1    C2 3669   2.075   5.778   5.842  0.3482  0.3046  0.5101
   34CHL1   H2A 3670   2.111   5.690   5.900  1.4736  0.1178 -0.4397
   34CHL1   H2B 3671   1.966   5.786   5.861  0.5313 -0.5145  1.9943
   34CHL1   C20 3672   1.919   5.694   4.924  0.0253  0.1299  0.4092
   34CHL1   H20 3673   1.817   5.728   4.950 -0.5837 -1.3029 -0.0225
   34CHL1   C21 3674   1.930   5.545   4.940  0.1519 -0.2715 -0.5219
   34CHL1  H21A 3675   2.036   5.513   4.943 -0.0344 -0.8209  0.2377
   34CHL1  H21B 3676   1.877   5.484   4.864 -1.9524  1.0561 -0.1415
   34CHL1  H21C 3677   1.889   5.520   5.040  0.0735  0.2920 -0.4119
   34CHL1   C22 3678   1.949   5.723   4.773  0.7214 -0.4703 -0.2632
   34CHL1  H22A 3679   1.874   5.666   4.715  0.4848 -0.0504 -0.3693
   34CHL1  H22B 3680   1.946   5.824   4.726 -1.5289 -1.5780 -2.5938
   34CHL1   C23 3681   2.090   5.676   4.733  0.5080 -0.1501  0.9414
   34CHL1  H23A 3682   2.160   5.722   4.806  0.9693  0.4504  0.1354
   34CHL1  H23B 3683   2.092   5.566   4.747 -1.0541  0.0261  2.8210
   34CHL1   C24 3684   2.120   5.710   4.583 -0.4051  0.2374  0.1352
   34CHL1  H24A 3685   2.036   5.660   4.530 -1.7960 -0.4714  2.8802
   34CHL1  H24B 3686   2.097   5.819   4.582 -1.6568 -0.0116  0.7527
   34CHL1   C25 3687   2.255   5.680   4.527  0.3331 -0.5335 -0.0573
   34CHL1   H25 3688   2.322   5.735   4.597  1.1782  2.0519 -2.8092
   34CHL1   C26 3689   2.285   5.524   4.543 -0.3845 -0.3806 -0.2749
   34CHL1  H26A 3690   2.395   5.508   4.531 -0.2643 -0.6308  1.1685
   34CHL1  H26B 3691   2.278   5.489   4.648  1.6033 -0.9841 -0.3183
   34CHL1  H26C 3692   2.216   5.472   4.473 -0.2916  0.2537 -0.8471
   34CHL1   C27 3693   2.273   5.731   4.378  0.4652  0.2678 -0.0415
   34CHL1  H27A 3694   2.181   5.715   4.317 -0.2396  1.9771  0.5454
   34CHL1  H27B 3695   2.282   5.841   4.385 -3.0023  0.7772 -2.3971
   34CHL1  H27C 3696   2.363   5.685   4.331  0.8987 -0.2341  1.2596
   35CHL1    C3 3697   2.743   6.000   6.001 -0.5049  0.4825  0.5387
   35CHL1    H3 3698   2.837   6.038   5.956 -1.5584 -0.0448 -2.1417
   35CHL1    O3 3699   2.740   6.023   6.144  0.0893 -0.0419 -0.3543
   35CHL1   H3' 3700   2.707   6.113   6.150 -0.4967 -0.2511 -0.4477
   35CHL1    C4 3701   2.618   6.060   5.931 -0.6872 -0.6801  0.6792
   35CHL1   H4A 3702   2.518   6.038   5.974 -1.2330 -0.7974 -0.6160
   35CHL1   H4B 3703   2.629   6.169   5.952 -0.0737 -0.7279  0.6173
   35CHL1    C5 3704   2.612   6.044   5.783  0.3730 -0.1634  0.3405
   35CHL1    C6 3705   2.595   6.144   5.700  0.3386 -0.0560 -0.1487
   35CHL1    H6 3706   2.592   6.248   5.734 -0.7070  0.4958 -1.8703
   35CHL1    C7 3707   2.579   6.131   5.549 -0.4841  0.2020 -0.1589
   35CHL1   H7A 3708   2.501   6.189   5.495  0.8368  1.9646 -0.2234
   35CHL1   H7B 3709   2.670   6.183   5.512 -0.2752 -0.6854 -0.9239
   35CHL1    C8 3710   2.582   5.985   5.495  0.1445  0.0023  0.2644
   35CHL1    H8 3711   2.476   5.952   5.499  0.7254 -2.1806 -1.3089
   35CHL1   C14 3712   2.631   5.982   5.351 -0.1232 -0.5004  0.7190
   35CHL1   H14 3713   2.740   5.992   5.372 -0.2500 -1.0977  1.6636
   35CHL1   C15 3714   2.563   6.080   5.250 -0.0809 -0.6259 -0.0892
   35CHL1  H15A 3715   2.456   6.094   5.276 -0.6905 -0.7308 -2.4427
   35CHL1  H15B 3716   2.609   6.181   5.256 -1.2159  0.0631 -2.3699
   35CHL1   C16 3717   2.577   6.020   5.114  0.1069 -0.1594  0.7221
   35CHL1  H16A 3718   2.476   6.022   5.067  0.1941 -1.6093  0.4470
   35CHL1  H16B 3719   2.636   6.083   5.044 -1.0276 -1.0120 -1.0658
   35CHL1   C17 3720   2.638   5.875   5.144  0.3455 -0.0330  0.8578
   35CHL1   H17 3721   2.748   5.886   5.143  0.4850 -1.4403 -0.9632
   35CHL1   C13 3722   2.601   5.840   5.293 -0.5470 -0.2179 -0.0671
   35CHL1   C18 3723   2.455   5.795   5.284 -0.1281  0.4773 -0.2428
   35CHL1  H18A 3724   2.454   5.691   5.245  2.2797  0.5920 -0.7108
   35CHL1  H18B 3725   2.405   5.803   5.383  1.2764  2.0491  0.3807
   35CHL1  H18C 3726   2.405   5.863   5.211  1.0884  1.0144 -0.6107
   35CHL1   C12 3727   2.683   5.740   5.374  0.0022  0.1458 -0.2002
   35CHL1  H12A 3728   2.651   5.639   5.340  0.1432  0.4114 -1.1620
   35CHL1  H12B 3729   2.790   5.756   5.349 -0.2528 -0.1140 -1.5385
   35CHL1   C11 3730   2.659   5.747   5.525  0.0003  0.5204  0.2022
   35CHL1  H11A 3731   2.558   5.706   5.543 -0.1549  0.7687 -0.1129
   35CHL1  H11B 3732   2.735   5.680   5.571  0.5386  2.2266  1.8516
   35CHL1    C9 3733   2.670   5.892   5.582 -0.3784  0.1723 -0.0817
   35CHL1    H9 3734   2.773   5.932   5.578 -1.0743  2.3095  1.8862
   35CHL1   C10 3735   2.639   5.897   5.734 -0.5057 -0.3705 -0.0313
   35CHL1   C19 3736   2.503   5.831   5.763  0.0169  0.0972  0.5931
   35CHL1  H19A 3737   2.457   5.858   5.861  0.4094  0.3852  0.7035
   35CHL1  H19B 3738   2.434   5.855   5.679  0.7733  0.1617 -0.0153
   35CHL1  H19C 3739   2.508   5.720   5.767 -0.2173  0.1006  1.1435
   35CHL1    C1 3740   2.741   5.824   5.825 -0.3999  0.4612  0.2887
   35CHL1   H1A 3741   2.735   5.714   5.810 -1.4612  0.5553 -0.0171
   35CHL1   H1B 3742   2.839   5.866   5.795 -0.8708  0.3438 -1.4962
   35CHL1    C2 3743   2.732   5.848   5.978  0.1291 -0.1106 -1.0209
   35CHL1   H2A 3744   2.807   5.792   6.037 -0.4926  0.4897  0.3733
   35CHL1   H2B 3745   2.633   5.819   6.020 -0.4194  2.0305 -0.7390
   35CHL1   C20 3746   2.608   5.774   5.027 -0.0322  0.1923  0.0076
   35CHL1   H20 3747   2.498   5.763   5.020  0.1084  0.1289 -3.0575
   35CHL1   C21 3748   2.672   5.637   5.065 -1.0473  0.6231  0.3110
   35CHL1  H21A 3749   2.781   5.654   5.078 -1.2431  1.9258  0.3227
   35CHL1  H21B 3750   2.658   5.561   4.984  1.0761  0.8781 -0.3270
   35CHL1  H21C 3751   2.629   5.595   5.158 -0.5846  1.3679  0.8671
   35CHL1   C22 3752   2.655   5.831   4.885  0.0606  0.2588 -0.0950
   35CHL1  H22A 3753   2.579   5.907   4.859  0.6178  0.0345 -2.4668
   35CHL1  H22B 3754   2.757   5.874   4.881  0.1764 -0.0139 -0.0651
   35CHL1   C23 3755   2.658   5.728   4.767  0.1560 -0.1032  0.3976
   35CHL1  H23A 3756   2.728   5.647   4.796 -0.0507 -0.8010 -0.9989
   35CHL1  H23B 3757   2.553   5.692   4.772  0.6433 -1.4342  1.4504
   35CHL1   C24 3758   2.694   5.798   4.634  0.5388  0.3957 -0.3105
   35CHL1  H24A 3759   2.627   5.883   4.609 -0.5932 -0.0516  1.1206
   35CHL1  H24B 3760   2.800   5.832   4.634  1.0964 -1.2614 -1.6742
   35CHL1   C25 3761   2.683   5.701   4.516 -0.5586 -0.2175  0.2363
   35CHL1   H25 3762   2.589   5.645   4.537 -1.4701  1.5388  0.9974
   35CHL1   C26 3763   2.659   5.775   4.384  0.1012 -0.1091  0.3426
   35CHL1  H26A 3764   2.739   5.851   4.370  1.2589 -1.3499  0.1723
   35CHL1  H26B 3765   2.666   5.716   4.290  0.3660  1.0533 -0.3873
   35CHL1  H26C 3766   2.560   5.825   4.393 -1.3833 -2.9632  0.6324
   35CHL1   C27 3767   2.796   5.598   4.524 -0.5456 -0.6721  0.4159
   35CHL1  H27A 3768   2.899   5.637   4.510 -0.2561 -2.1484 -1.8491
   35CHL1  H27B 3769   2.785   5.548   4.622  1.3780 -0.3577  0.7955
   35CHL1  H27C 3770   2.788   5.509   4.459  1.1746 -0.4665 -0.0867
   36CHL1    C3 3771   0.788   4.109   5.916 -0.4875  0.2054  0.2560
   36CHL1    H3 3772   0.896   4.099   5.937 -1.0464 -1.1164  2.5859
   36CHL1    O3 3773   0.735   4.106   6.047 -0.2975  0.4581 -0.1319
   36CHL1   H3' 3774   0.639   4.114   6.039 -0.0259  2.1576 -1.9503
   36CHL1    C4 3775   0.755   4.246   5.848 -0.0932  0.1015  0.2257
   36CHL1   H4A 3776   0.645   4.258   5.858 -0.0640  0.1149  0.5571
   36CHL1   H4B 3777   0.794   4.333   5.906  0.1908 -1.2293  2.0774
   36CHL1    C5 3778   0.797   4.253   5.702 -0.4526 -0.4149 -0.6174
   36CHL1    C6 3779   0.886   4.352   5.663  0.6525 -0.8071 -0.1843
   36CHL1    H6 3780   0.911   4.418   5.747 -2.3490 -2.4881  2.1131
   36CHL1    C7 3781   0.922   4.377   5.517 -0.1937 -0.2045 -0.2724
   36CHL1   H7A 3782   0.904   4.481   5.481 -0.9769 -0.8597 -1.8361
   36CHL1   H7B 3783   1.030   4.356   5.499 -0.1499 -0.3678  0.1887
   36CHL1    C8 3784   0.839   4.291   5.426  0.2324 -0.0601  0.8079
   36CHL1    H8 3785   0.745   4.349   5.410  0.4994  0.2404  0.2947
   36CHL1   C14 3786   0.902   4.280   5.282 -0.5196 -0.0863 -1.1273
   36CHL1   H14 3787   0.994   4.218   5.292 -1.8234 -1.9244 -0.0608
   36CHL1   C15 3788   0.971   4.407   5.221  0.0476  0.7914 -0.3020
   36CHL1  H15A 3789   0.920   4.500   5.253 -1.3892 -0.0276 -0.1800
   36CHL1  H15B 3790   1.079   4.408   5.249  0.1656 -0.7115 -0.6413
   36CHL1   C16 3791   0.961   4.395   5.074  0.2045 -0.0481 -0.4492
   36CHL1  H16A 3792   0.886   4.470   5.041 -0.2158 -0.9863 -1.6902
   36CHL1  H16B 3793   1.055   4.412   5.018  0.7154  0.1953  0.4657
   36CHL1   C17 3794   0.894   4.257   5.042  0.0030 -0.3211  0.5884
   36CHL1   H17 3795   0.976   4.183   5.027 -0.2950 -0.7425  1.0020
   36CHL1   C13 3796   0.813   4.223   5.171 -0.5953  0.0710  0.6938
   36CHL1   C18 3797   0.683   4.304   5.150 -0.2689 -0.1444 -0.2030
   36CHL1  H18A 3798   0.619   4.305   5.241  0.4902 -0.8419  0.3447
   36CHL1  H18B 3799   0.702   4.410   5.122  3.4919 -1.1307 -1.5384
   36CHL1  H18C 3800   0.620   4.264   5.067  2.0280 -1.2427 -1.4464
   36CHL1   C12 3801   0.782   4.084   5.223  0.8356  0.1334 -0.2571
   36CHL1  H12A 3802   0.732   4.019   5.149  1.2040 -1.3657  0.7805
   36CHL1  H12B 3803   0.880   4.031   5.230  0.5023 -0.2482  1.9682
   36CHL1   C11 3804   0.726   4.071   5.368  0.1882  0.4220 -0.2205
   36CHL1  H11A 3805   0.622   4.107   5.352 -0.8042 -2.3350 -0.2175
   36CHL1  H11B 3806   0.723   3.964   5.400 -5.1527  0.3664 -0.4134
   36CHL1    C9 3807   0.805   4.144   5.474 -0.0211  0.6743 -0.1448
   36CHL1    H9 3808   0.910   4.109   5.476  0.5111  2.2143 -0.0070
   36CHL1   C10 3809   0.743   4.138   5.614 -0.7676  0.5686 -0.2062
   36CHL1   C19 3810   0.595   4.186   5.592  0.3448  0.5538  0.2236
   36CHL1  H19A 3811   0.592   4.282   5.536 -0.3074 -0.1015 -0.8838
   36CHL1  H19B 3812   0.534   4.118   5.528  0.8888  2.9861 -3.0187
   36CHL1  H19C 3813   0.537   4.198   5.687  0.8116  0.3218  0.5358
   36CHL1    C1 3814   0.768   4.007   5.685 -0.4205  0.1147  0.1565
   36CHL1   H1A 3815   0.725   3.918   5.634 -0.8746 -0.3164  1.2850
   36CHL1   H1B 3816   0.879   4.001   5.692 -0.3452 -1.4644 -1.8211
   36CHL1    C2 3817   0.723   3.996   5.834  0.2419  0.1517 -0.4411
   36CHL1   H2A 3818   0.747   3.899   5.883  0.1641  1.7594  2.9516
   36CHL1   H2B 3819   0.612   4.009   5.828  0.3236  1.0868  0.0079
   36CHL1   C20 3820   0.822   4.269   4.902  0.2711  0.2676 -0.5919
   36CHL1   H20 3821   0.746   4.350   4.916  1.3482  1.1074  0.5317
   36CHL1   C21 3822   0.752   4.138   4.876 -0.3121 -0.2295  0.6020
   36CHL1  H21A 3823   0.701   4.154   4.779  2.9047  2.4762 -0.7225
   36CHL1  H21B 3824   0.684   4.100   4.956  0.2555  2.6522  2.5095
   36CHL1  H21C 3825   0.833   4.064   4.858 -1.3523 -1.4394  0.7656
   36CHL1   C22 3826   0.913   4.307   4.780  0.1318  0.0695  0.7451
   36CHL1  H22A 3827   0.843   4.324   4.695  0.5742 -3.0079 -0.2720
   36CHL1  H22B 3828   0.969   4.401   4.803  0.6151  0.1866 -0.8135
   36CHL1   C23 3829   1.004   4.198   4.727  0.3909 -0.5645 -0.5755
   36CHL1  H23A 3830   1.067   4.174   4.816 -0.0624  0.4204  0.0225
   36CHL1  H23B 3831   0.943   4.111   4.695  0.5807 -0.9349  0.0498
   36CHL1   C24 3832   1.085   4.233   4.603  0.3488  0.2441  0.1509
   36CHL1  H24A 3833   1.009   4.271   4.531  1.7263  0.6634 -1.1078
   36CHL1  H24B 3834   1.157   4.312   4.631 -0.5304  0.1673  2.7268
   36CHL1   C25 3835   1.162   4.117   4.548  0.8817 -0.4859 -1.1888
   36CHL1   H25 3836   1.190   4.047   4.629 -0.4361  0.3071 -0.0422
   36CHL1   C26 3837   1.088   4.051   4.431 -0.4739 -0.3987 -0.3663
   36CHL1  H26A 3838   0.989   4.009   4.457 -0.9279  0.2889 -0.9516
   36CHL1  H26B 3839   1.048   4.123   4.357  0.7833 -1.2592 -1.9180
   36CHL1  H26C 3840   1.154   3.973   4.387  0.6702 -0.4563  1.3971
   36CHL1   C27 3841   1.291   4.183   4.483 -0.5745 -0.1651  0.2064
   36CHL1  H27A 3842   1.338   4.245   4.563 -1.3562  0.0374  0.5123
   36CHL1  H27B 3843   1.366   4.115   4.437 -0.2145  0.5251 -0.2394
   36CHL1  H27C 3844   1.257   4.244   4.397 -0.5721  0.5064  0.6753
   37CHL1    C3 3845   1.012   2.326   5.944  0.0520 -0.4260 -0.1186
   37CHL1    H3 3846   1.022   2.215   5.945 -0.4929 -0.4888  1.9812
   37CHL1    O3 3847   1.076   2.386   6.051 -0.3552 -0.1338 -0.0070
   37CHL1   H3' 3848   1.036   2.471   6.070 -0.0506  0.2982 -1.2655
   37CHL1    C4 3849   1.084   2.377   5.828 -0.4626 -0.4829  0.4920
   37CHL1   H4A 3850   1.097   2.487   5.839 -2.0007 -0.2962  0.5719
   37CHL1   H4B 3851   1.186   2.336   5.838 -0.5988 -0.8146  0.5258
   37CHL1    C5 3852   1.021   2.351   5.694 -0.6092  0.2024  0.2658
   37CHL1    C6 3853   1.098   2.288   5.597 -0.0080 -0.3043  0.1911
   37CHL1    H6 3854   1.198   2.248   5.619  0.5795  0.7560 -0.5067
   37CHL1    C7 3855   1.041   2.259   5.461  0.9300 -0.1140 -0.5312
   37CHL1   H7A 3856   1.104   2.298   5.379  1.6694  0.6589  0.3870
   37CHL1   H7B 3857   1.039   2.148   5.451 -1.4181  0.0519 -2.2208
   37CHL1    C8 3858   0.907   2.330   5.441  0.4933 -0.2706  0.0382
   37CHL1    H8 3859   0.909   2.439   5.417 -0.7478 -0.3211 -0.3068
   37CHL1   C14 3860   0.845   2.260   5.314  0.3720  0.0366 -0.0549
   37CHL1   H14 3861   0.824   2.156   5.347 -0.0019  0.3638  0.7529
   37CHL1   C15 3862   0.927   2.262   5.186  0.1389 -0.6218  0.3271
   37CHL1  H15A 3863   0.968   2.363   5.164 -0.3952 -0.3695  0.5104
   37CHL1  H15B 3864   1.010   2.188   5.193 -0.4345 -1.3954 -0.8536
   37CHL1   C16 3865   0.821   2.229   5.077  0.1925 -0.2783  0.0828
   37CHL1  H16A 3866   0.835   2.303   4.996 -0.0864  0.2438  0.5077
   37CHL1  H16B 3867   0.828   2.129   5.029 -1.3724  1.0003 -2.9451
   37CHL1   C17 3868   0.680   2.243   5.143  0.6900  0.5865 -0.2173
   37CHL1   H17 3869   0.654   2.138   5.166  1.1176  1.3835  4.3894
   37CHL1   C13 3870   0.706   2.316   5.277  0.1717  0.7023  0.9406
   37CHL1   C18 3871   0.705   2.460   5.247  0.2389 -0.6306 -0.3719
   37CHL1  H18A 3872   0.609   2.500   5.206  0.3393 -0.3879 -0.3710
   37CHL1  H18B 3873   0.729   2.521   5.337 -0.3218 -0.9957  0.0287
   37CHL1  H18C 3874   0.786   2.477   5.173  3.1785 -1.7316  2.5048
   37CHL1   C12 3875   0.615   2.281   5.395  0.0193  0.1143  0.4219
   37CHL1  H12A 3876   0.515   2.327   5.374  0.2217  0.2241 -0.3355
   37CHL1  H12B 3877   0.619   2.172   5.411 -0.1090  0.4528  2.8749
   37CHL1   C11 3878   0.662   2.341   5.528  0.3476  0.2850 -0.2001
   37CHL1  H11A 3879   0.643   2.450   5.526 -0.6608  0.1089 -0.9739
   37CHL1  H11B 3880   0.609   2.297   5.615  0.1717  1.3521  0.2324
   37CHL1    C9 3881   0.814   2.325   5.558  0.4315  0.8084  0.9451
   37CHL1    H9 3882   0.816   2.217   5.585  1.6192  0.8259  0.9554
   37CHL1   C10 3883   0.871   2.385   5.687 -0.7042 -0.0773  0.3141
   37CHL1   C19 3884   0.847   2.534   5.687 -0.5000  0.1633  0.1260
   37CHL1  H19A 3885   0.893   2.591   5.771 -0.5093 -0.6044  0.6571
   37CHL1  H19B 3886   0.887   2.578   5.593 -0.3962  3.1992  1.5334
   37CHL1  H19C 3887   0.738   2.555   5.696 -0.9555 -1.8329 -0.5694
   37CHL1    C1 3888   0.799   2.322   5.809  0.1086 -0.5993  0.1709
   37CHL1   H1A 3889   0.692   2.352   5.801  0.7278  1.0877 -2.3720
   37CHL1   H1B 3890   0.802   2.211   5.803 -4.8726 -0.8553  0.4704
   37CHL1    C2 3891   0.863   2.360   5.939  0.7610  0.0023  0.1733
   37CHL1   H2A 3892   0.814   2.311   6.025  0.3686 -0.7718 -0.4799
   37CHL1   H2B 3893   0.867   2.470   5.948  1.1386  0.1355 -1.3577
   37CHL1   C20 3894   0.581   2.302   5.044 -0.5044 -0.2409 -0.1622
   37CHL1   H20 3895   0.623   2.400   5.011  1.1124 -0.0555  2.3067
   37CHL1   C21 3896   0.439   2.303   5.100 -0.1485 -0.1727 -0.2086
   37CHL1  H21A 3897   0.366   2.354   5.034  0.0854 -0.5454 -0.7623
   37CHL1  H21B 3898   0.417   2.352   5.198  0.9193 -1.7564  0.8509
   37CHL1  H21C 3899   0.401   2.199   5.103  0.9382 -0.6218 -1.4378
   37CHL1   C22 3900   0.581   2.230   4.905 -0.1738 -0.4375 -0.2674
   37CHL1  H22A 3901   0.682   2.234   4.857 -0.9300  0.9762 -1.7742
   37CHL1  H22B 3902   0.540   2.129   4.925  0.5900 -0.6885  0.0522
   37CHL1   C23 3903   0.499   2.294   4.794 -0.7582 -0.2223 -0.1976
   37CHL1  H23A 3904   0.396   2.283   4.832 -0.8118  0.2592 -0.1945
   37CHL1  H23B 3905   0.527   2.401   4.784 -1.3413 -0.0692 -0.1909
   37CHL1   C24 3906   0.509   2.225   4.658  0.0692  0.2016  0.3126
   37CHL1  H24A 3907   0.616   2.206   4.632  0.1992  0.0131  0.9446
   37CHL1  H24B 3908   0.457   2.126   4.658 -0.7617  0.6204 -2.4391
   37CHL1   C25 3909   0.439   2.298   4.544  0.0746 -0.1915 -0.0987
   37CHL1   H25 3910   0.497   2.393   4.536 -0.2734  0.2295  1.9503
   37CHL1   C26 3911   0.464   2.207   4.417  0.6190 -0.6058  0.4859
   37CHL1  H26A 3912   0.396   2.119   4.420  1.5119 -1.5132 -3.2417
   37CHL1  H26B 3913   0.440   2.272   4.330 -1.1843 -1.2208  0.4996
   37CHL1  H26C 3914   0.569   2.175   4.406  0.9291  0.2877  0.8279
   37CHL1   C27 3915   0.290   2.325   4.564  0.3530  0.3434 -0.2792
   37CHL1  H27A 3916   0.237   2.228   4.573  1.6408 -0.3221  0.3558
   37CHL1  H27B 3917   0.259   2.387   4.652 -1.2004  2.6148 -2.3677
   37CHL1  H27C 3918   0.242   2.367   4.473 -1.8605 -0.4162  0.5074
   38CHL1    C3 3919   3.265   0.420   5.957  1.0010  0.4945  0.4684
   38CHL1    H3 3920   3.160   0.389   5.975  0.9825  2.0262  3.2881
   38CHL1    O3 3921   3.337   0.382   6.073  0.2813  0.3472  0.5462
   38CHL1   H3' 3922   3.277   0.416   6.140  0.6097  1.2787  0.3799
   38CHL1    C4 3923   3.324   0.344   5.836 -0.7612 -0.9855  0.8497
   38CHL1   H4A 3924   3.434   0.360   5.824 -0.7228 -1.7203  0.1640
   38CHL1   H4B 3925   3.315   0.237   5.862 -0.4193 -0.7382  1.9886
   38CHL1    C5 3926   3.254   0.385   5.709  0.4873 -0.2083  0.2772
   38CHL1    C6 3927   3.182   0.295   5.634  0.3958  0.2784 -0.4607
   38CHL1    H6 3928   3.171   0.190   5.664 -0.5738 -0.5075 -3.3972
   38CHL1    C7 3929   3.111   0.337   5.513  0.4680  0.0708  0.4014
   38CHL1   H7A 3930   3.118   0.249   5.446  0.2290  1.7689 -1.9100
   38CHL1   H7B 3931   3.002   0.344   5.533 -0.0152  0.0394 -2.0182
   38CHL1    C8 3932   3.159   0.473   5.461  0.4673 -0.4631 -0.3913
   38CHL1    H8 3933   3.261   0.467   5.417  1.3454 -0.5888  1.5892
   38CHL1   C14 3934   3.067   0.511   5.345 -0.4043  0.0855  0.4582
   38CHL1   H14 3935   2.962   0.510   5.380 -1.3889  1.0259 -2.3202
   38CHL1   C15 3936   3.066   0.423   5.214  0.2630  0.5662  0.1558
   38CHL1  H15A 3937   3.153   0.355   5.202 -1.6612 -2.5053  2.7454
   38CHL1  H15B 3938   2.972   0.365   5.229  0.7835 -0.8424 -1.7182
   38CHL1   C16 3939   3.042   0.517   5.089 -0.3071  0.2806 -0.0849
   38CHL1  H16A 3940   3.136   0.521   5.029  0.0160 -0.1249  0.3888
   38CHL1  H16B 3941   2.952   0.478   5.037  0.3194 -0.7262 -0.4429
   38CHL1   C17 3942   3.006   0.650   5.153  0.6123 -0.4723  0.0947
   38CHL1   H17 3943   2.901   0.649   5.190  0.9520 -0.0863  1.0803
   38CHL1   C13 3944   3.094   0.651   5.283 -0.8147 -0.4366  0.0069
   38CHL1   C18 3945   3.243   0.658   5.231  0.2965 -0.3557 -0.1705
   38CHL1  H18A 3946   3.258   0.756   5.181  1.4382 -0.2831  0.3045
   38CHL1  H18B 3947   3.312   0.647   5.318  0.0207 -1.5843 -0.0957
   38CHL1  H18C 3948   3.276   0.574   5.166 -2.4892 -1.3389 -0.3684
   38CHL1   C12 3949   3.075   0.750   5.401  0.0981 -0.1529 -0.2491
   38CHL1  H12A 3950   3.108   0.853   5.375 -0.4990  0.2373  0.5105
   38CHL1  H12B 3951   2.968   0.757   5.430  0.6526  2.2902  1.3820
   38CHL1   C11 3952   3.165   0.718   5.519 -0.7582  0.1266  0.1738
   38CHL1  H11A 3953   3.267   0.751   5.489 -1.3296 -0.4141 -2.4223
   38CHL1  H11B 3954   3.132   0.789   5.598 -0.7581  1.7843 -1.2729
   38CHL1    C9 3955   3.155   0.580   5.568  0.1607  0.0194 -0.5070
   38CHL1    H9 3956   3.054   0.578   5.614 -0.1948  0.0730 -1.2672
   38CHL1   C10 3957   3.257   0.536   5.679  0.1905  0.4688 -0.7156
   38CHL1   C19 3958   3.401   0.583   5.633 -0.2929  0.2785 -0.3269
   38CHL1  H19A 3959   3.410   0.536   5.533 -2.4322 -0.8581 -0.0185
   38CHL1  H19B 3960   3.397   0.694   5.626 -1.2817  0.1208 -3.3028
   38CHL1  H19C 3961   3.471   0.559   5.715 -1.3865  1.1525  0.8799
   38CHL1    C1 3962   3.209   0.607   5.808  0.8384 -1.2028  0.3207
   38CHL1   H1A 3963   3.204   0.717   5.792  0.5853 -1.2105  0.3484
   38CHL1   H1B 3964   3.105   0.579   5.834  0.7555 -0.4217  0.8656
   38CHL1    C2 3965   3.284   0.566   5.937  0.8036 -0.5874 -0.0584
   38CHL1   H2A 3966   3.240   0.623   6.021 -1.4960 -1.1450 -0.8384
   38CHL1   H2B 3967   3.391   0.594   5.924  1.0445 -1.5118 -0.0960
   38CHL1   C20 3968   3.005   0.776   5.062  0.2576  0.6411 -0.1181
   38CHL1   H20 3969   3.112   0.807   5.053 -0.3070  1.9592 -2.5359
   38CHL1   C21 3970   2.934   0.891   5.134  0.4588 -0.8304 -0.4953
   38CHL1  H21A 3971   2.959   0.988   5.088 -1.7688  0.7840  1.5440
   38CHL1  H21B 3972   2.980   0.924   5.230 -0.7321  2.3121 -0.9576
   38CHL1  H21C 3973   2.823   0.882   5.141  0.2763  1.5480 -0.0750
   38CHL1   C22 3974   2.940   0.750   4.923 -0.0160 -0.2055  0.3176
   38CHL1  H22A 3975   2.996   0.661   4.886 -0.8935 -0.9014  0.6508
   38CHL1  H22B 3976   2.840   0.709   4.948 -0.1317  0.5370  1.1056
   38CHL1   C23 3977   2.941   0.857   4.825 -0.0089 -0.0597 -0.3814
   38CHL1  H23A 3978   2.874   0.938   4.861 -3.1050 -2.8741  0.5830
   38CHL1  H23B 3979   3.041   0.904   4.817  1.5830 -2.8928  1.9095
   38CHL1   C24 3980   2.903   0.818   4.688 -0.3771 -0.1842  0.1008
   38CHL1  H24A 3981   2.799   0.780   4.699 -0.8787  1.1444 -0.0521
   38CHL1  H24B 3982   2.904   0.908   4.623  0.1837  0.8642  1.5362
   38CHL1   C25 3983   2.988   0.708   4.618 -0.4275 -0.2641  0.3354
   38CHL1   H25 3984   2.996   0.624   4.690  0.0977 -0.1946  0.3625
   38CHL1   C26 3985   2.912   0.668   4.490 -0.4645  0.1807  0.1797
   38CHL1  H26A 3986   2.874   0.761   4.441  1.8042  1.7045  1.2603
   38CHL1  H26B 3987   2.974   0.610   4.418  0.7930 -0.4731  1.7793
   38CHL1  H26C 3988   2.825   0.604   4.517 -1.9599  1.6115 -1.0799
   38CHL1   C27 3989   3.131   0.757   4.590  0.2581 -0.6319 -1.0445
   38CHL1  H27A 3990   3.128   0.858   4.543 -3.5984 -0.0583  0.2192
   38CHL1  H27B 3991   3.185   0.753   4.687  0.7268 -0.0314 -1.2771
   38CHL1  H27C 3992   3.179   0.692   4.514  0.2271  1.1746 -2.6682
   39CHL1    C3 3993   4.470   0.680   5.922 -0.0592 -0.4558 -0.1534
   39CHL1    H3 3994   4.361   0.684   5.943  0.0840 -0.8152  0.7205
   39CHL1    O3 3995   4.540   0.682   6.046  0.8967  0.1105 -0.7834
   39CHL1   H3' 3996   4.493   0.745   6.102  2.1709  0.8272 -0.5092
   39CHL1    C4 3997   4.498   0.537   5.862 -0.3163 -0.3149  0.1769
   39CHL1   H4A 3998   4.608   0.526   5.874 -0.2711  0.7115  0.7314
   39CHL1   H4B 3999   4.461   0.452   5.923 -2.0302 -0.3779 -0.9259
   39CHL1    C5 4000   4.461   0.507   5.721  0.1887  0.0645 -0.1348
   39CHL1    C6 4001   4.393   0.394   5.690  1.2829  0.1287  0.4827
   39CHL1    H6 4002   4.356   0.326   5.769 -3.1843  0.6869 -0.9892
   39CHL1    C7 4003   4.390   0.349   5.548  1.0669  0.2147  0.0004
   39CHL1   H7A 4004   4.423   0.245   5.531 -2.6096 -1.2113  0.9558
   39CHL1   H7B 4005   4.283   0.368   5.524  0.9832  0.1071  0.2883
   39CHL1    C8 4006   4.462   0.436   5.441 -0.4938 -0.4505 -0.2761
   39CHL1    H8 4007   4.564   0.393   5.444  0.9212  2.6915 -0.9972
   39CHL1   C14 4008   4.399   0.418   5.302 -0.5644  0.2106  0.0905
   39CHL1   H14 4009   4.299   0.467   5.301 -0.6893 -0.0595 -0.6620
   39CHL1   C15 4010   4.363   0.277   5.255 -0.4536 -0.0150 -0.4772
   39CHL1  H15A 4011   4.451   0.210   5.265 -2.5439 -2.3765  3.5900
   39CHL1  H15B 4012   4.279   0.236   5.315  0.5679 -2.6776 -0.7912
   39CHL1   C16 4013   4.332   0.288   5.110 -0.4145 -0.0408  0.7136
   39CHL1  H16A 4014   4.398   0.220   5.053 -1.9583  0.6449 -1.9927
   39CHL1  H16B 4015   4.223   0.277   5.089 -0.8360  2.7763  1.1907
   39CHL1   C17 4016   4.377   0.443   5.071  0.4380 -0.2659  0.9372
   39CHL1   H17 4017   4.284   0.502   5.084  0.0862 -0.3690 -1.0591
   39CHL1   C13 4018   4.477   0.485   5.185 -0.5435  0.2267  0.7352
   39CHL1   C18 4019   4.613   0.410   5.170 -0.3388 -0.1248  0.4702
   39CHL1  H18A 4020   4.693   0.460   5.112  0.0349 -0.9161  0.2974
   39CHL1  H18B 4021   4.638   0.374   5.272 -0.1102 -2.4432 -0.3646
   39CHL1  H18C 4022   4.598   0.317   5.111  0.4585  0.4225 -0.6053
   39CHL1   C12 4023   4.497   0.636   5.209 -0.3012 -0.0866  0.2342
   39CHL1  H12A 4024   4.581   0.665   5.142 -0.8155 -1.4989 -1.0395
   39CHL1  H12B 4025   4.403   0.691   5.187 -1.7058 -2.4397  0.2111
   39CHL1   C11 4026   4.549   0.656   5.358  0.2076 -0.1526 -0.4508
   39CHL1  H11A 4027   4.657   0.630   5.359 -0.1249 -2.0722 -4.2886
   39CHL1  H11B 4028   4.548   0.764   5.384  0.3733 -0.3617  0.4293
   39CHL1    C9 4029   4.468   0.583   5.466 -0.4516  0.5561  0.2761
   39CHL1    H9 4030   4.361   0.614   5.474 -0.5624 -0.2718  2.2244
   39CHL1   C10 4031   4.518   0.604   5.618  0.8753  0.4945  0.7870
   39CHL1   C19 4032   4.661   0.575   5.620 -0.0785 -0.0205  0.3271
   39CHL1  H19A 4033   4.723   0.664   5.596 -1.5041  1.4446  1.9438
   39CHL1  H19B 4034   4.712   0.543   5.714 -1.1472  1.7476  1.5347
   39CHL1  H19C 4035   4.686   0.488   5.555 -3.1088 -0.3576 -0.4512
   39CHL1    C1 4036   4.491   0.754   5.672 -0.6552  0.0634  0.4140
   39CHL1   H1A 4037   4.550   0.833   5.621  2.1610 -0.8060  2.2214
   39CHL1   H1B 4038   4.385   0.760   5.640 -0.4931  3.1267  0.3216
   39CHL1    C2 4039   4.525   0.781   5.820 -0.6302 -0.1083  0.2439
   39CHL1   H2A 4040   4.490   0.884   5.843  2.6050  0.6285  2.3044
   39CHL1   H2B 4041   4.636   0.783   5.828 -0.5229 -1.9972 -0.4981
   39CHL1   C20 4042   4.415   0.465   4.925  0.5243 -0.0494 -1.2932
   39CHL1   H20 4043   4.507   0.406   4.904 -0.6848 -2.1062 -0.9491
   39CHL1   C21 4044   4.427   0.615   4.896  0.1234 -1.3708  0.5739
   39CHL1  H21A 4045   4.513   0.657   4.953 -0.3114 -0.6363  0.7031
   39CHL1  H21B 4046   4.334   0.667   4.929  0.7685  0.4570 -0.4362
   39CHL1  H21C 4047   4.444   0.632   4.788 -1.7103 -0.4526  0.4153
   39CHL1   C22 4048   4.314   0.401   4.825 -0.1471  0.2881 -0.2852
   39CHL1  H22A 4049   4.298   0.294   4.849 -0.3182  0.6041  1.0190
   39CHL1  H22B 4050   4.220   0.458   4.810 -0.7519 -0.6138 -0.0029
   39CHL1   C23 4051   4.370   0.394   4.683 -0.4376 -0.3860 -0.7075
   39CHL1  H23A 4052   4.361   0.492   4.631 -1.9527 -0.0665  0.1271
   39CHL1  H23B 4053   4.473   0.353   4.686 -0.7754 -1.2192 -0.3082
   39CHL1   C24 4054   4.289   0.303   4.587  0.6664  0.2320  0.2405
   39CHL1  H24A 4055   4.282   0.203   4.636 -1.3707  0.7895  1.1092
   39CHL1  H24B 4056   4.184   0.338   4.580  1.3833  2.1702 -1.5130
   39CHL1   C25 4057   4.339   0.272   4.452 -0.2498  0.2389 -0.0913
   39CHL1   H25 4058   4.448   0.253   4.461  0.0255 -0.1468 -3.6574
   39CHL1   C26 4059   4.277   0.145   4.404  0.1306  0.3833  0.5348
   39CHL1  H26A 4060   4.287   0.060   4.475 -0.1774  0.4228  0.6276
   39CHL1  H26B 4061   4.171   0.156   4.373  0.2700 -0.7853 -0.4242
   39CHL1  H26C 4062   4.326   0.107   4.312 -0.6776 -0.3268  0.3885
   39CHL1   C27 4063   4.330   0.394   4.358 -0.0831 -0.0065  0.2236
   39CHL1  H27A 4064   4.368   0.364   4.258 -1.5304 -1.5629  0.1271
   39CHL1  H27B 4065   4.227   0.432   4.344 -0.0109  0.6887  1.5082
   39CHL1  H27C 4066   4.402   0.468   4.399  0.8136 -0.5004 -0.4312
   40CHL1    C3 4067   2.623   6.643   5.971 -0.0290 -0.0078  0.7801
   40CHL1    H3 4068   2.721   6.601   5.940 -1.0604 -1.3883 -0.6369
   40CHL1    O3 4069   2.633   6.677   6.108  0.2575  0.4313 -0.0740
   40CHL1   H3' 4070   2.670   6.765   6.118 -2.7088  1.6033  1.2999
   40CHL1    C4 4071   2.581   6.767   5.890 -0.2029  0.7658  0.0345
   40CHL1   H4A 4072   2.482   6.805   5.926 -1.2292 -1.8613  0.0506
   40CHL1   H4B 4073   2.660   6.843   5.907  2.2758 -2.2221  2.4136
   40CHL1    C5 4074   2.563   6.729   5.741  0.1595 -0.4727 -0.2207
   40CHL1    C6 4075   2.633   6.798   5.647 -0.2957 -0.2916 -0.1494
   40CHL1    H6 4076   2.709   6.864   5.691 -2.2236  0.9384  1.4079
   40CHL1    C7 4077   2.620   6.771   5.499  0.6401 -0.4134 -0.8948
   40CHL1   H7A 4078   2.618   6.872   5.451 -2.1540 -0.7987 -1.6886
   40CHL1   H7B 4079   2.716   6.723   5.471  1.2420 -0.4104  1.0857
   40CHL1    C8 4080   2.496   6.689   5.462  0.1056  0.0636 -0.7754
   40CHL1    H8 4081   2.407   6.756   5.454  0.9836  1.3159 -0.1963
   40CHL1   C14 4082   2.521   6.629   5.324  0.1089  0.0513 -0.5827
   40CHL1   H14 4083   2.610   6.563   5.335 -0.5300 -0.7720 -0.2833
   40CHL1   C15 4084   2.559   6.720   5.200 -0.4019  0.0775 -0.7425
   40CHL1  H15A 4085   2.497   6.812   5.196 -1.2249 -0.3368  1.6751
   40CHL1  H15B 4086   2.670   6.733   5.203 -0.6418  1.9964  0.6033
   40CHL1   C16 4087   2.523   6.630   5.079  0.7166 -0.6364  0.5296
   40CHL1  H16A 4088   2.463   6.686   5.005 -1.0721  0.7905  2.9772
   40CHL1  H16B 4089   2.625   6.613   5.037  0.8781 -1.3422  1.1966
   40CHL1   C17 4090   2.453   6.504   5.139  0.1331  0.4829  0.0902
   40CHL1   H17 4091   2.533   6.430   5.163  0.4561  1.0454  0.7582
   40CHL1   C13 4092   2.404   6.543   5.276 -0.8470  0.1310  0.2532
   40CHL1   C18 4093   2.275   6.640   5.259 -0.0490  0.4456 -0.8988
   40CHL1  H18A 4094   2.297   6.708   5.174  1.5733 -0.4729 -1.2282
   40CHL1  H18B 4095   2.193   6.574   5.223  0.8457 -0.2775 -1.6319
   40CHL1  H18C 4096   2.250   6.699   5.349  1.8294  0.4023 -0.3370
   40CHL1   C12 4097   2.386   6.428   5.374 -0.4983 -0.1649 -0.8258
   40CHL1  H12A 4098   2.299   6.362   5.356 -0.5050 -0.6068  0.7304
   40CHL1  H12B 4099   2.476   6.364   5.365 -2.1199 -2.8868  1.4815
   40CHL1   C11 4100   2.354   6.481   5.516 -0.6249  0.3976 -0.5492
   40CHL1  H11A 4101   2.255   6.529   5.500 -0.7080  0.1203 -0.8709
   40CHL1  H11B 4102   2.343   6.401   5.593 -0.5392  1.8649  1.0134
   40CHL1    C9 4103   2.467   6.575   5.563 -0.1419  0.0945 -0.2236
   40CHL1    H9 4104   2.557   6.512   5.547  0.3255  0.5049  0.7945
   40CHL1   C10 4105   2.463   6.624   5.711 -0.4102  0.4527  0.3564
   40CHL1   C19 4106   2.321   6.683   5.738 -0.3484  0.3803  0.5357
   40CHL1  H19A 4107   2.251   6.598   5.756 -0.5083  0.0216 -1.5481
   40CHL1  H19B 4108   2.334   6.725   5.840 -0.4398  1.1617  0.2280
   40CHL1  H19C 4109   2.279   6.752   5.660 -3.4678 -1.1657  0.7520
   40CHL1    C1 4110   2.499   6.504   5.801 -0.2545 -0.5889  0.1037
   40CHL1   H1A 4111   2.424   6.424   5.785 -0.4055 -0.6009  0.8315
   40CHL1   H1B 4112   2.598   6.466   5.767  0.5242  0.8597  0.7089
   40CHL1    C2 4113   2.523   6.530   5.954  0.1575 -0.2493  0.9646
   40CHL1   H2A 4114   2.565   6.440   6.002  0.9251  0.5196  1.7441
   40CHL1   H2B 4115   2.428   6.545   6.011  0.3962 -0.3042  1.3804
   40CHL1   C20 4116   2.369   6.431   5.030  0.6195 -0.0237  0.0072
   40CHL1   H20 4117   2.311   6.501   4.966 -0.1865  0.7543  1.5450
   40CHL1   C21 4118   2.270   6.328   5.087 -0.1296  0.3278  0.5147
   40CHL1  H21A 4119   2.233   6.263   5.004 -0.9632  0.6079  0.6558
   40CHL1  H21B 4120   2.196   6.379   5.152  1.8424 -0.0206  3.0807
   40CHL1  H21C 4121   2.327   6.267   5.159 -0.1352  0.4066  0.5865
   40CHL1   C22 4122   2.471   6.359   4.935  0.2374  0.0596  0.4216
   40CHL1  H22A 4123   2.530   6.442   4.890  1.6184 -0.5808  1.0051
   40CHL1  H22B 4124   2.533   6.288   4.994 -1.3389 -0.1602  1.8423
   40CHL1   C23 4125   2.405   6.291   4.819 -0.5598  0.2242 -0.7816
   40CHL1  H23A 4126   2.355   6.202   4.864  1.0850 -0.5054 -0.3582
   40CHL1  H23B 4127   2.336   6.366   4.774  1.6212  3.5578  1.2280
   40CHL1   C24 4128   2.508   6.228   4.724  0.3615  0.8403  0.0484
   40CHL1  H24A 4129   2.569   6.313   4.686 -1.3520  3.1310  2.2628
   40CHL1  H24B 4130   2.579   6.167   4.784 -1.3937  0.3571  1.6774
   40CHL1   C25 4131   2.450   6.129   4.621 -0.4585  0.2204 -0.5327
   40CHL1   H25 4132   2.531   6.070   4.572 -0.3953  1.1284 -1.5493
   40CHL1   C26 4133   2.352   6.023   4.682  0.1638 -0.2402  0.6723
   40CHL1  H26A 4134   2.273   6.074   4.741  2.4393  0.0342  3.6380
   40CHL1  H26B 4135   2.299   5.971   4.600  1.7083 -2.1625  0.8605
   40CHL1  H26C 4136   2.406   5.952   4.748  0.4595 -1.4391 -0.8241
   40CHL1   C27 4137   2.377   6.203   4.506  0.0806 -0.1946 -0.1738
   40CHL1  H27A 4138   2.298   6.277   4.532  1.5113  1.0217  0.8017
   40CHL1  H27B 4139   2.456   6.259   4.452 -1.6019  0.6570 -1.8396
   40CHL1  H27C 4140   2.345   6.127   4.431  1.8812  0.3234 -1.4948
   41CHL1    C3 4141   1.862   6.648   5.932 -0.5213 -0.6217  0.6154
   41CHL1    H3 4142   1.787   6.567   5.939 -0.8314 -0.4040 -0.1061
   41CHL1    O3 4143   1.902   6.702   6.056  0.0473 -0.3769 -0.2012
   41CHL1   H3' 4144   1.983   6.751   6.039 -0.3282 -0.7860 -3.4936
   41CHL1    C4 4145   1.976   6.596   5.848 -0.0704  0.2577  0.0149
   41CHL1   H4A 4146   2.058   6.670   5.840 -1.8721  2.0873 -2.6968
   41CHL1   H4B 4147   2.018   6.518   5.914 -0.1911  1.6869  1.8348
   41CHL1    C5 4148   1.946   6.542   5.709 -0.3504  0.1885 -0.0196
   41CHL1    C6 4149   1.973   6.414   5.665 -1.0028 -0.5171 -0.7989
   41CHL1    H6 4150   2.039   6.355   5.731 -1.3806  0.0557  0.1086
   41CHL1    C7 4151   1.940   6.362   5.531  0.4744 -0.3328 -0.6317
   41CHL1   H7A 4152   2.029   6.313   5.485  0.9107 -0.5218  0.4062
   41CHL1   H7B 4153   1.846   6.303   5.544  0.3314 -0.6815 -3.0023
   41CHL1    C8 4154   1.907   6.479   5.433  0.2739  0.1199  0.3051
   41CHL1    H8 4155   2.009   6.516   5.405  0.6039 -0.5016  0.6759
   41CHL1   C14 4156   1.845   6.424   5.310 -0.1686  0.3304  0.6130
   41CHL1   H14 4157   1.749   6.382   5.347 -0.2545 -1.8293 -1.9656
   41CHL1   C15 4158   1.910   6.307   5.239  0.0301  0.8810 -0.3601
   41CHL1  H15A 4159   2.018   6.329   5.242 -0.2237  1.8923  1.7219
   41CHL1  H15B 4160   1.887   6.217   5.300 -1.3922  1.5349  0.0924
   41CHL1   C16 4161   1.850   6.308   5.095 -0.6044 -0.3282  0.3418
   41CHL1  H16A 4162   1.921   6.319   5.011 -0.1597 -1.9802  0.4772
   41CHL1  H16B 4163   1.805   6.207   5.079 -2.1505 -0.1401  3.1631
   41CHL1   C17 4164   1.747   6.427   5.098 -0.8317  0.1223  0.4139
   41CHL1   H17 4165   1.651   6.384   5.133 -1.3891  0.2958 -0.8749
   41CHL1   C13 4166   1.799   6.525   5.208  0.5412  0.2100 -0.9508
   41CHL1   C18 4167   1.917   6.615   5.157  0.3797  0.2215 -0.2645
   41CHL1  H18A 4168   1.990   6.559   5.094  1.6938  2.3186 -0.6424
   41CHL1  H18B 4169   1.875   6.703   5.104 -0.6931  0.7322  1.3930
   41CHL1  H18C 4170   1.964   6.657   5.248 -1.8130  0.5624  0.7337
   41CHL1   C12 4171   1.689   6.610   5.279  0.1504  0.0577 -0.3471
   41CHL1  H12A 4172   1.658   6.685   5.204  5.9080  1.0810 -1.9304
   41CHL1  H12B 4173   1.606   6.539   5.300  0.0952 -0.3406 -1.8715
   41CHL1   C11 4174   1.741   6.677   5.404 -0.9361  0.1092 -0.0802
   41CHL1  H11A 4175   1.812   6.752   5.362 -0.5335  0.7272  1.6998
   41CHL1  H11B 4176   1.660   6.744   5.440 -1.3166  1.1591 -2.7482
   41CHL1    C9 4177   1.811   6.578   5.505 -0.8256  0.5090 -0.8949
   41CHL1    H9 4178   1.729   6.514   5.545 -0.0981  0.5867  0.7219
   41CHL1   C10 4179   1.867   6.646   5.628 -0.0618  0.4722  1.1829
   41CHL1   C19 4180   1.959   6.759   5.570  1.0823  0.0928 -0.9590
   41CHL1  H19A 4181   1.900   6.841   5.524  1.5464  1.0681  0.1478
   41CHL1  H19B 4182   2.012   6.809   5.654 -1.8520 -0.3245  1.2430
   41CHL1  H19C 4183   2.038   6.720   5.502  1.1792 -1.9127  0.2324
   41CHL1    C1 4184   1.747   6.707   5.702  0.1239  0.2836  0.4169
   41CHL1   H1A 4185   1.706   6.784   5.633  1.9806  1.0793  0.1512
   41CHL1   H1B 4186   1.673   6.626   5.717  0.9883 -0.5801  0.0627
   41CHL1    C2 4187   1.784   6.759   5.845  0.0632 -0.5350 -0.1996
   41CHL1   H2A 4188   1.692   6.793   5.897 -0.3821 -0.9930 -0.6808
   41CHL1   H2B 4189   1.848   6.849   5.834 -0.8372  0.0968 -0.3433
   41CHL1   C20 4190   1.719   6.484   4.951  0.1116  0.0382 -0.2811
   41CHL1   H20 4191   1.807   6.543   4.915  1.2700 -0.2063  2.0195
   41CHL1   C21 4192   1.592   6.578   4.954  0.9478  0.3460 -0.2528
   41CHL1  H21A 4193   1.506   6.528   5.004  1.5907  1.0382  1.5829
   41CHL1  H21B 4194   1.567   6.614   4.852  0.2180 -1.7890 -0.8635
   41CHL1  H21C 4195   1.614   6.678   4.996  2.0573 -0.1877  0.4600
   41CHL1   C22 4196   1.690   6.364   4.854  0.4146  0.6448  0.3941
   41CHL1  H22A 4197   1.644   6.275   4.901  1.8187 -1.5822 -2.2997
   41CHL1  H22B 4198   1.610   6.392   4.782  1.3439  0.3558 -0.7816
   41CHL1   C23 4199   1.809   6.314   4.778  0.6033  0.0012  0.2330
   41CHL1  H23A 4200   1.888   6.390   4.790 -0.3337  0.8821  0.8590
   41CHL1  H23B 4201   1.852   6.216   4.807 -1.3605 -0.8313  0.4281
   41CHL1   C24 4202   1.790   6.300   4.629 -0.4713 -0.0859  0.1723
   41CHL1  H24A 4203   1.716   6.219   4.612 -0.1124 -0.7675  1.7525
   41CHL1  H24B 4204   1.758   6.396   4.582  0.0060 -0.5118 -1.0328
   41CHL1   C25 4205   1.917   6.267   4.551  0.7557  0.2879 -0.3244
   41CHL1   H25 4206   1.996   6.344   4.565  1.3275 -0.6266  1.8143
   41CHL1   C26 4207   1.984   6.132   4.595 -0.3724 -0.2134  0.0753
   41CHL1  H26A 4208   1.914   6.046   4.598 -1.7690  0.8983  0.0041
   41CHL1  H26B 4209   2.071   6.095   4.536  0.2508 -1.1359  1.5469
   41CHL1  H26C 4210   2.015   6.138   4.701 -0.6053 -0.3455  0.1510
   41CHL1   C27 4211   1.895   6.262   4.398  0.1508 -0.9469 -0.2123
   41CHL1  H27A 4212   1.819   6.185   4.372  0.4738 -0.5445 -2.4939
   41CHL1  H27B 4213   1.858   6.362   4.364 -1.3035 -0.9694  1.2562
   41CHL1  H27C 4214   1.992   6.244   4.347  0.5212  1.6727 -0.5144
   42CHL1    C3 4215   4.980   6.413   6.027 -0.2550 -0.3826  0.5326
   42CHL1    H3 4216   5.007   6.518   6.050 -0.3331 -0.1464 -0.4165
   42CHL1    O3 4217   4.989   6.325   6.139  0.6032  0.3292 -0.0751
   42CHL1   H3' 4218   4.998   6.237   6.102  0.3334  0.1410  0.3014
   42CHL1    C4 4219   4.835   6.415   5.984 -0.7613  0.7582  0.1098
   42CHL1   H4A 4220   4.817   6.306   5.974 -1.0595  0.7751  0.4560
   42CHL1   H4B 4221   4.768   6.453   6.064 -0.2001  0.9203  0.5082
   42CHL1    C5 4222   4.813   6.478   5.848 -0.5770 -0.8079 -0.0945
   42CHL1    C6 4223   4.732   6.591   5.837  0.3349  0.1716  0.5964
   42CHL1    H6 4224   4.681   6.634   5.924  1.2690  1.2912  0.5955
   42CHL1    C7 4225   4.690   6.650   5.707  0.6211  0.0262  0.0359
   42CHL1   H7A 4226   4.581   6.657   5.686  0.8337  0.8830 -0.8509
   42CHL1   H7B 4227   4.711   6.758   5.694 -0.5867  0.0910 -1.5738
   42CHL1    C8 4228   4.747   6.568   5.582 -0.1700 -0.4539 -0.0190
   42CHL1    H8 4229   4.673   6.491   5.551  0.1711 -1.1554  0.8549
   42CHL1   C14 4230   4.747   6.664   5.462 -0.7767  0.4753 -0.4402
   42CHL1   H14 4231   4.815   6.746   5.494 -0.2695 -1.1310  2.9103
   42CHL1   C15 4232   4.624   6.741   5.410 -0.0193 -0.0603 -0.1955
   42CHL1  H15A 4233   4.533   6.681   5.389 -0.2101 -0.1639  0.8957
   42CHL1  H15B 4234   4.599   6.817   5.487 -1.3573  1.6166 -2.2523
   42CHL1   C16 4235   4.674   6.809   5.285  0.1835 -0.4557 -0.2599
   42CHL1  H16A 4236   4.594   6.808   5.207  1.7120 -1.2855 -1.8692
   42CHL1  H16B 4237   4.692   6.918   5.294 -0.1611 -0.4352  0.1973
   42CHL1   C17 4238   4.801   6.730   5.237  0.0566 -0.1443 -0.1542
   42CHL1   H17 4239   4.879   6.804   5.263  1.0516 -1.4406  0.6521
   42CHL1   C13 4240   4.821   6.608   5.337  0.2997  0.2375  0.5668
   42CHL1   C18 4241   4.757   6.484   5.281 -0.3279  0.2130  1.1194
   42CHL1  H18A 4242   4.664   6.506   5.224 -0.9119  0.8622  2.3065
   42CHL1  H18B 4243   4.831   6.439   5.211  0.7677  1.4503  1.4771
   42CHL1  H18C 4244   4.731   6.407   5.358  1.4460 -1.5580  0.0046
   42CHL1   C12 4245   4.972   6.585   5.372  0.1665 -0.4814 -0.0132
   42CHL1  H12A 4246   5.023   6.553   5.279 -0.9807 -0.9787 -0.4805
   42CHL1  H12B 4247   5.018   6.682   5.401 -3.2549  1.6238 -1.2352
   42CHL1   C11 4248   4.981   6.478   5.484  0.2941 -0.2505  0.0286
   42CHL1  H11A 4249   4.952   6.377   5.448  1.5889 -1.3703  1.9768
   42CHL1  H11B 4250   5.088   6.476   5.512 -0.0667  2.8730  1.9446
   42CHL1    C9 4251   4.891   6.519   5.608 -0.4383 -0.1374  0.1460
   42CHL1    H9 4252   4.941   6.616   5.629 -3.3714  0.9876  2.1554
   42CHL1   C10 4253   4.896   6.422   5.729 -0.3600  0.7985 -0.5712
   42CHL1   C19 4254   4.836   6.283   5.692 -0.5347  0.4620 -0.1883
   42CHL1  H19A 4255   4.841   6.221   5.783  0.4661  2.6528  1.2991
   42CHL1  H19B 4256   4.735   6.296   5.648 -0.7703 -1.2476 -0.1733
   42CHL1  H19C 4257   4.899   6.236   5.613 -1.6517  0.0501 -0.8465
   42CHL1    C1 4258   5.047   6.423   5.779  0.0185 -0.2010  0.4458
   42CHL1   H1A 4259   5.109   6.382   5.696  0.8272 -1.5433  1.6844
   42CHL1   H1B 4260   5.063   6.533   5.787  0.2912 -0.2089  0.0127
   42CHL1    C2 4261   5.074   6.360   5.913  0.2623  0.1133 -0.0985
   42CHL1   H2A 4262   5.180   6.370   5.944 -0.5836 -1.0312  3.3719
   42CHL1   H2B 4263   5.071   6.251   5.893  0.8736 -0.2960  1.9589
   42CHL1   C20 4264   4.810   6.710   5.082 -0.7792  0.2163  0.7535
   42CHL1   H20 4265   4.731   6.636   5.056  0.1619 -1.4467  2.5347
   42CHL1   C21 4266   4.943   6.644   5.041 -0.2078  0.3257  0.3246
   42CHL1  H21A 4267   4.966   6.540   5.075 -0.5342 -0.1528 -0.8924
   42CHL1  H21B 4268   5.031   6.704   5.073 -0.3169  0.3142  0.6498
   42CHL1  H21C 4269   4.957   6.634   4.931  2.1979 -1.1345  0.7270
   42CHL1   C22 4270   4.797   6.839   5.001  0.1199  0.2436 -0.1712
   42CHL1  H22A 4271   4.715   6.907   5.033  0.5298  1.2793 -1.2845
   42CHL1  H22B 4272   4.899   6.882   5.012 -0.3364  0.7959  2.2419
   42CHL1   C23 4273   4.757   6.811   4.853 -0.2197  0.1445  0.3569
   42CHL1  H23A 4274   4.780   6.705   4.831  0.1119  0.1323  0.7510
   42CHL1  H23B 4275   4.648   6.825   4.838 -0.4933 -1.4694  0.6981
   42CHL1   C24 4276   4.831   6.900   4.755  0.8445 -0.6508 -0.5502
   42CHL1  H24A 4277   4.785   7.001   4.762 -1.7707 -1.9168  1.8762
   42CHL1  H24B 4278   4.931   6.920   4.798 -0.8594  4.4645  1.4353
   42CHL1   C25 4279   4.799   6.858   4.616  0.0747 -0.6625  0.1895
   42CHL1   H25 4280   4.696   6.815   4.620  0.8815 -2.7771 -0.8823
   42CHL1   C26 4281   4.806   6.981   4.522 -0.5406  0.4198  0.5408
   42CHL1  H26A 4282   4.907   7.025   4.535  0.5294 -1.4387 -1.1141
   42CHL1  H26B 4283   4.780   6.957   4.417 -0.4496  0.7152  0.4518
   42CHL1  H26C 4284   4.727   7.054   4.553 -2.5410 -1.5345  0.2151
   42CHL1   C27 4285   4.888   6.748   4.564  0.0287  0.1998  0.6798
   42CHL1  H27A 4286   4.900   6.661   4.633  1.1770 -2.1260 -2.3149
   42CHL1  H27B 4287   4.852   6.707   4.467 -0.7541  2.3401  0.0455
   42CHL1  H27C 4288   4.986   6.794   4.543 -0.1280 -0.5356 -1.8277
   43CHL1    C3 4289   0.264   2.621   5.911  0.0252 -0.5089 -0.0732
   43CHL1    H3 4290   0.156   2.608   5.931  0.0956 -1.1500 -0.1076
   43CHL1    O3 4291   0.324   2.615   6.037  0.1892 -0.4859 -0.1746
   43CHL1   H3' 4292   0.413   2.587   6.014  0.7357  0.1156  1.1578
   43CHL1    C4 4293   0.312   2.502   5.819  0.3963 -0.1512 -0.7514
   43CHL1   H4A 4294   0.423   2.503   5.814  0.5755  1.2896  2.6254
   43CHL1   H4B 4295   0.284   2.410   5.874 -4.6462  0.2444 -2.3838
   43CHL1    C5 4296   0.255   2.511   5.682 -0.4104 -0.5289  0.4128
   43CHL1    C6 4297   0.182   2.414   5.631  0.0628  0.4576 -0.6125
   43CHL1    H6 4298   0.168   2.323   5.690 -1.8045 -1.3177 -3.6138
   43CHL1    C7 4299   0.117   2.410   5.492  0.1883 -0.1800 -0.6140
   43CHL1   H7A 4300   0.142   2.317   5.436  2.3244 -0.2795  0.4232
   43CHL1   H7B 4301   0.008   2.413   5.511  0.0990 -0.3377 -1.0982
   43CHL1    C8 4302   0.157   2.535   5.406 -0.6005  0.2064  0.2114
   43CHL1    H8 4303   0.261   2.519   5.372 -1.6217 -3.5344 -1.4753
   43CHL1   C14 4304   0.064   2.548   5.290  0.6543 -0.1724 -0.2479
   43CHL1   H14 4305  -0.038   2.558   5.334  1.0353  1.2610  0.3506
   43CHL1   C15 4306   0.057   2.433   5.192  0.2832  0.3280 -0.1140
   43CHL1  H15A 4307   0.155   2.395   5.156  0.5489  0.8532  0.0421
   43CHL1  H15B 4308  -0.017   2.355   5.219 -0.9034  1.3067 -0.4919
   43CHL1   C16 4309  -0.011   2.488   5.070 -0.1417 -0.6940 -0.2294
   43CHL1  H16A 4310   0.041   2.454   4.978 -1.6532 -2.0757 -0.5948
   43CHL1  H16B 4311  -0.119   2.460   5.072 -0.7477  1.5376 -0.4464
   43CHL1   C17 4312   0.000   2.646   5.087 -0.2469  0.0853  0.8240
   43CHL1   H17 4313  -0.103   2.674   5.116  0.4830  3.2779  0.5109
   43CHL1   C13 4314   0.101   2.668   5.205 -0.2782  0.2561 -0.3161
   43CHL1   C18 4315   0.246   2.649   5.157 -0.2609  0.3409 -0.6246
   43CHL1  H18A 4316   0.253   2.569   5.081 -0.6491 -0.6703  0.3881
   43CHL1  H18B 4317   0.282   2.737   5.100 -2.1395  1.8322  0.4095
   43CHL1  H18C 4318   0.332   2.613   5.217 -0.2291 -2.0426 -2.0757
   43CHL1   C12 4319   0.071   2.793   5.296 -0.1737  0.2600  0.2537
   43CHL1  H12A 4320   0.095   2.891   5.248  3.5692 -1.2200 -1.0231
   43CHL1  H12B 4321  -0.036   2.793   5.326 -1.2414  1.3257 -3.2807
   43CHL1   C11 4322   0.154   2.795   5.422  0.1324  0.0664  0.7565
   43CHL1  H11A 4323   0.255   2.803   5.376 -0.9583 -1.0008 -1.8933
   43CHL1  H11B 4324   0.132   2.883   5.488 -1.8587 -0.3156  0.6133
   43CHL1    C9 4325   0.156   2.663   5.497 -0.5877 -0.0571  0.4590
   43CHL1    H9 4326   0.060   2.658   5.551 -1.3096 -0.9218 -0.8543
   43CHL1   C10 4327   0.264   2.648   5.613 -0.0809 -0.0141  1.1582
   43CHL1   C19 4328   0.409   2.677   5.554  0.5655 -0.2625 -0.6176
   43CHL1  H19A 4329   0.414   2.786   5.537  1.7696 -0.3416 -0.8205
   43CHL1  H19B 4330   0.480   2.653   5.637  1.3392 -1.3982 -1.5756
   43CHL1  H19C 4331   0.428   2.623   5.459 -0.6266 -1.9260  0.0635
   43CHL1    C1 4332   0.237   2.762   5.714  0.2752 -0.1778 -0.2744
   43CHL1   H1A 4333   0.273   2.861   5.677  0.1855 -0.0931 -0.1351
   43CHL1   H1B 4334   0.126   2.757   5.715  0.3007 -0.6445  0.3510
   43CHL1    C2 4335   0.298   2.754   5.850 -0.6883 -0.0868 -0.7271
   43CHL1   H2A 4336   0.270   2.841   5.912  0.3838 -0.7666  0.7292
   43CHL1   H2B 4337   0.408   2.756   5.835 -0.3046  0.4643  1.9520
   43CHL1   C20 4338   0.039   2.709   4.950  0.4651 -0.9895  0.3580
   43CHL1   H20 4339   0.134   2.663   4.915  0.5108 -0.6909  0.0854
   43CHL1   C21 4340   0.050   2.861   4.969 -0.1598 -0.8276 -0.5646
   43CHL1  H21A 4341   0.034   2.921   4.876 -1.4455  1.2476  0.9702
   43CHL1  H21B 4342   0.148   2.892   5.011 -0.0767 -1.2447 -0.4460
   43CHL1  H21C 4343  -0.020   2.894   5.048  1.4601  1.3638  0.0114
   43CHL1   C22 4344  -0.063   2.675   4.839  1.1431  0.8405 -0.0489
   43CHL1  H22A 4345  -0.122   2.580   4.840  0.9672  0.9451 -0.3350
   43CHL1  H22B 4346  -0.135   2.759   4.843  0.0946  0.0254 -1.2673
   43CHL1   C23 4347   0.005   2.697   4.696  0.0368  0.1922 -0.5947
   43CHL1  H23A 4348   0.040   2.802   4.694 -0.7826  0.5198  0.9410
   43CHL1  H23B 4349   0.099   2.638   4.691  0.8895  1.4968 -0.2159
   43CHL1   C24 4350  -0.092   2.666   4.580  0.4381 -0.2387  0.7184
   43CHL1  H24A 4351  -0.194   2.698   4.612  0.6364  1.6412 -0.4669
   43CHL1  H24B 4352  -0.070   2.730   4.492  1.8183 -0.1915  1.0943
   43CHL1   C25 4353  -0.076   2.532   4.512 -0.8841 -0.1204  0.9186
   43CHL1   H25 4354   0.032   2.508   4.503 -1.0878 -0.9446  0.5041
   43CHL1   C26 4355  -0.124   2.412   4.591  0.8681  1.0015  0.5184
   43CHL1  H26A 4356  -0.093   2.412   4.697  1.9463 -0.2060  0.2218
   43CHL1  H26B 4357  -0.227   2.448   4.610  0.0986 -0.9775  0.2612
   43CHL1  H26C 4358  -0.124   2.314   4.538 -1.0359  1.3114 -0.0672
   43CHL1   C27 4359  -0.133   2.513   4.367  0.0215  0.3444  0.5559
   43CHL1  H27A 4360  -0.240   2.486   4.363  0.0691  0.3123 -1.4555
   43CHL1  H27B 4361  -0.110   2.591   4.291 -0.4032 -0.2778 -0.2274
   43CHL1  H27C 4362  -0.087   2.421   4.323 -0.3575  0.2290  0.3996
   44CHL1    C3 4363   0.553   4.818   5.965  0.5647 -0.3616  0.7546
   44CHL1    H3 4364   0.550   4.929   5.956  0.0859 -0.3518  1.0301
   44CHL1    O3 4365   0.558   4.811   6.106 -0.1136 -0.8582  0.1730
   44CHL1   H3' 4366   0.641   4.769   6.130 -0.5545 -1.0838  1.3080
   44CHL1    C4 4367   0.417   4.767   5.928 -0.1167 -0.8162 -0.0878
   44CHL1   H4A 4368   0.403   4.665   5.971  0.5061 -0.4082  1.1036
   44CHL1   H4B 4369   0.336   4.823   5.979 -0.2465 -3.4940  2.7804
   44CHL1    C5 4370   0.393   4.759   5.779 -0.6530  0.3735  0.2001
   44CHL1    C6 4371   0.282   4.814   5.733 -0.1787 -0.4785  0.1811
   44CHL1    H6 4372   0.201   4.851   5.799  0.0192  0.5417 -0.1356
   44CHL1    C7 4373   0.241   4.794   5.589  0.3112  0.2935  0.1480
   44CHL1   H7A 4374   0.140   4.749   5.583  0.6243 -0.2438 -1.1656
   44CHL1   H7B 4375   0.247   4.896   5.545  0.4626  0.3470  0.2928
   44CHL1    C8 4376   0.337   4.707   5.509  0.1405 -0.2416  0.2902
   44CHL1    H8 4377   0.312   4.601   5.527  1.6265 -0.9122 -1.3761
   44CHL1   C14 4378   0.315   4.742   5.361  0.5038 -0.5497 -0.5328
   44CHL1   H14 4379   0.354   4.846   5.354  2.4496 -1.3474 -2.0566
   44CHL1   C15 4380   0.176   4.750   5.301 -0.4431  0.6098  0.1444
   44CHL1  H15A 4381   0.113   4.671   5.347  0.5561 -0.7189 -0.7227
   44CHL1  H15B 4382   0.131   4.850   5.317  0.7418  0.9265  1.6795
   44CHL1   C16 4383   0.202   4.738   5.149 -0.6340  0.7373 -0.8154
   44CHL1  H16A 4384   0.142   4.647   5.129 -2.6351  1.0857  3.0462
   44CHL1  H16B 4385   0.169   4.831   5.098 -3.2405  1.0432  1.3246
   44CHL1   C17 4386   0.352   4.719   5.126 -0.1949 -0.2264 -0.3460
   44CHL1   H17 4387   0.389   4.823   5.131  1.7076 -0.8794 -0.4298
   44CHL1   C13 4388   0.404   4.659   5.259  0.0831  0.4514  0.0044
   44CHL1   C18 4389   0.372   4.505   5.264  0.0449  1.0347  0.4642
   44CHL1  H18A 4390   0.442   4.452   5.196  1.9600  1.3270  2.1578
   44CHL1  H18B 4391   0.384   4.464   5.366 -1.4574 -1.6716 -0.4176
   44CHL1  H18C 4392   0.268   4.484   5.233  0.3797 -0.9239  0.5916
   44CHL1   C12 4393   0.545   4.681   5.306  0.1086 -0.1874  0.3976
   44CHL1  H12A 4394   0.614   4.619   5.245 -2.2926 -1.5324 -1.0171
   44CHL1  H12B 4395   0.570   4.788   5.290  0.0622 -0.3914 -1.0752
   44CHL1   C11 4396   0.575   4.641   5.456  0.2350 -0.1974 -1.0056
   44CHL1  H11A 4397   0.554   4.533   5.467  1.2699 -0.6789 -3.3732
   44CHL1  H11B 4398   0.684   4.654   5.476  0.2594  0.0518 -1.2831
   44CHL1    C9 4399   0.486   4.725   5.553  0.1126  0.9266 -0.1897
   44CHL1    H9 4400   0.513   4.830   5.528 -3.6441  1.4214 -2.4753
   44CHL1   C10 4401   0.510   4.696   5.701  0.1995 -0.4721  0.6311
   44CHL1   C19 4402   0.521   4.544   5.727  0.8872  0.3165 -0.0674
   44CHL1  H19A 4403   0.617   4.514   5.679  1.3900  0.4082  0.8502
   44CHL1  H19B 4404   0.525   4.520   5.836 -1.5199  1.7472  0.3683
   44CHL1  H19C 4405   0.447   4.483   5.672  2.0945 -1.3004  0.0582
   44CHL1    C1 4406   0.640   4.765   5.744  0.8270 -0.2721  0.0988
   44CHL1   H1A 4407   0.721   4.717   5.686 -1.6184 -3.3038 -0.9082
   44CHL1   H1B 4408   0.630   4.871   5.712  0.2799  0.1641  1.6406
   44CHL1    C2 4409   0.670   4.756   5.892  0.4747  0.3493 -0.1587
   44CHL1   H2A 4410   0.759   4.821   5.908  0.9430 -0.8834  2.3772
   44CHL1   H2B 4411   0.694   4.653   5.925 -0.9654  0.1511  0.3194
   44CHL1   C20 4412   0.412   4.660   4.991  0.0582  0.7021 -0.4806
   44CHL1   H20 4413   0.380   4.747   4.929 -0.3184  1.3676  0.6251
   44CHL1   C21 4414   0.333   4.539   4.941 -0.1705  0.5025  0.1474
   44CHL1  H21A 4415   0.367   4.445   4.988 -2.3217 -1.2948 -1.7205
   44CHL1  H21B 4416   0.349   4.534   4.831  2.7120  2.0019  0.4658
   44CHL1  H21C 4417   0.223   4.549   4.956  0.1877  1.3645  2.2989
   44CHL1   C22 4418   0.568   4.650   4.980 -0.2116 -0.4211  0.7717
   44CHL1  H22A 4419   0.602   4.751   5.012  1.3538 -1.1390  1.3898
   44CHL1  H22B 4420   0.608   4.582   5.058  0.9700  1.7107  2.0864
   44CHL1   C23 4421   0.619   4.613   4.832  0.0298  0.3476 -0.2013
   44CHL1  H23A 4422   0.724   4.575   4.830 -0.1201 -0.1738  1.4729
   44CHL1  H23B 4423   0.559   4.529   4.792 -0.1133  0.3575 -0.0060
   44CHL1   C24 4424   0.606   4.727   4.728  0.4323  0.5136  1.0858
   44CHL1  H24A 4425   0.504   4.762   4.701  0.0424 -1.6260 -0.3829
   44CHL1  H24B 4426   0.658   4.821   4.753  0.8620  0.6806 -0.4239
   44CHL1   C25 4427   0.660   4.691   4.585 -0.0882 -0.0918 -0.2394
   44CHL1   H25 4428   0.769   4.673   4.594  0.2628  2.0600 -0.0991
   44CHL1   C26 4429   0.604   4.570   4.517 -0.4048 -0.0549  0.0325
   44CHL1  H26A 4430   0.501   4.583   4.478 -0.0840  0.3041 -0.6917
   44CHL1  H26B 4431   0.664   4.559   4.424 -0.2227  1.4662 -0.0447
   44CHL1  H26C 4432   0.614   4.485   4.588 -1.0285 -0.1098  0.0544
   44CHL1   C27 4433   0.649   4.815   4.498  0.4578  0.6808  0.4724
   44CHL1  H27A 4434   0.698   4.806   4.399 -1.2156  1.3039 -0.4491
   44CHL1  H27B 4435   0.547   4.859   4.486  0.1603 -0.1320  0.0376
   44CHL1  H27C 4436   0.699   4.902   4.547 -2.1543  1.7299  1.3809
   45CHL1    C3 4437   7.292   5.345   5.917 -0.9499 -0.4559  0.3500
   45CHL1    H3 4438   7.386   5.289   5.938 -0.9986 -0.7339 -0.1412
   45CHL1    O3 4439   7.262   5.418   6.031  0.0983 -0.1039  0.0776
   45CHL1   H3' 4440   7.193   5.478   6.002  1.2241  1.2925  0.2493
   45CHL1    C4 4441   7.306   5.443   5.806  0.4161 -1.0590  0.0365
   45CHL1   H4A 4442   7.224   5.519   5.805 -1.1024 -2.6492  1.1026
   45CHL1   H4B 4443   7.393   5.506   5.834 -0.2546  0.3428 -0.9654
   45CHL1    C5 4444   7.323   5.379   5.668  0.1976  0.0647  0.1717
   45CHL1    C6 4445   7.426   5.408   5.586  0.9143  0.3947  0.2074
   45CHL1    H6 4446   7.507   5.473   5.622  0.6741  0.5080  0.5437
   45CHL1    C7 4447   7.440   5.364   5.446 -0.0678  0.5496  0.2126
   45CHL1   H7A 4448   7.477   5.446   5.380 -0.1006  0.4444  0.0637
   45CHL1   H7B 4449   7.515   5.282   5.445 -0.1358  0.4635  1.7022
   45CHL1    C8 4450   7.307   5.301   5.400  0.2607  0.0820 -0.2609
   45CHL1    H8 4451   7.227   5.376   5.384 -0.8792 -0.5037  2.4248
   45CHL1   C14 4452   7.334   5.234   5.260  0.0506  0.7824  0.1469
   45CHL1   H14 4453   7.404   5.156   5.295 -0.6642  0.8199  1.7037
   45CHL1   C15 4454   7.417   5.305   5.157 -0.2598 -0.8416  0.0648
   45CHL1  H15A 4455   7.372   5.406   5.142  0.1699 -0.2967  2.2942
   45CHL1  H15B 4456   7.522   5.317   5.190 -0.6062  3.7561 -0.1781
   45CHL1   C16 4457   7.395   5.220   5.024  0.0103  0.8797 -0.3001
   45CHL1  H16A 4458   7.364   5.295   4.947 -0.9456 -0.3070 -1.0825
   45CHL1  H16B 4459   7.493   5.170   5.007 -1.0283 -0.7722 -1.6048
   45CHL1   C17 4460   7.281   5.117   5.064 -0.0083  0.1499  0.4896
   45CHL1   H17 4461   7.330   5.024   5.101 -0.8413  0.5229  2.6543
   45CHL1   C13 4462   7.213   5.171   5.193 -0.0733 -0.9075 -0.7792
   45CHL1   C18 4463   7.121   5.286   5.141  0.0214 -0.0080  0.4253
   45CHL1  H18A 4464   7.096   5.351   5.227  1.6896  2.6781 -1.0431
   45CHL1  H18B 4465   7.175   5.357   5.074 -2.5540  1.5371 -0.0932
   45CHL1  H18C 4466   7.019   5.254   5.110  0.8763 -1.4829 -0.9484
   45CHL1   C12 4467   7.146   5.060   5.293 -0.6054 -0.6037  0.1779
   45CHL1  H12A 4468   7.045   5.043   5.250 -0.4052 -1.1574 -0.0761
   45CHL1  H12B 4469   7.213   4.973   5.307  0.0204 -0.4118 -1.5062
   45CHL1   C11 4470   7.121   5.129   5.435 -0.1272  0.1885 -0.2075
   45CHL1  H11A 4471   7.049   5.210   5.411  1.1562  0.8456 -2.0158
   45CHL1  H11B 4472   7.076   5.058   5.507 -2.2160  0.0577 -1.6011
   45CHL1    C9 4473   7.245   5.203   5.500  0.5987  0.2608  0.2973
   45CHL1    H9 4474   7.321   5.126   5.527 -0.4556 -0.3472  1.6741
   45CHL1   C10 4475   7.212   5.284   5.627 -0.0114  0.3146 -0.1606
   45CHL1   C19 4476   7.079   5.362   5.610  0.1192  0.4377 -0.6719
   45CHL1  H19A 4477   7.076   5.432   5.523 -0.2610 -1.1171 -1.9456
   45CHL1  H19B 4478   6.995   5.289   5.608 -1.3153  2.0659 -2.5701
   45CHL1  H19C 4479   7.056   5.425   5.698  0.4939 -2.2357  1.4254
   45CHL1    C1 4480   7.191   5.190   5.748  0.5162 -0.4864 -0.1882
   45CHL1   H1A 4481   7.101   5.129   5.727  0.6014 -1.6828  2.7078
   45CHL1   H1B 4482   7.259   5.103   5.762  1.0711 -0.1865 -0.9785
   45CHL1    C2 4483   7.174   5.253   5.888  0.8861 -0.0305 -0.1827
   45CHL1   H2A 4484   7.172   5.172   5.964  1.1316  1.0941  1.0432
   45CHL1   H2B 4485   7.075   5.304   5.890  1.4933  1.1458  1.5299
   45CHL1   C20 4486   7.196   5.070   4.937 -0.2036  0.2164 -0.1538
   45CHL1   H20 4487   7.129   5.154   4.907 -1.8507 -0.8818  0.3637
   45CHL1   C21 4488   7.112   4.949   4.982  0.2019 -0.9206  0.5475
   45CHL1  H21A 4489   7.179   4.862   4.999  0.3505 -0.7074  1.0607
   45CHL1  H21B 4490   7.040   4.925   4.901 -0.1796  2.3225 -0.1524
   45CHL1  H21C 4491   7.058   4.958   5.080  0.1526  0.5584  0.3903
   45CHL1   C22 4492   7.274   5.030   4.813  0.4531 -0.3381 -0.5282
   45CHL1  H22A 4493   7.379   5.066   4.820  0.7795 -1.1126 -1.2668
   45CHL1  H22B 4494   7.278   4.921   4.792  2.9654 -0.0601 -1.6811
   45CHL1   C23 4495   7.210   5.105   4.689 -0.7366  0.1545 -0.6250
   45CHL1  H23A 4496   7.101   5.116   4.703 -0.6267  0.5153  0.0009
   45CHL1  H23B 4497   7.238   5.213   4.695  2.4619 -0.6416  0.0384
   45CHL1   C24 4498   7.263   5.036   4.561 -0.1499  0.6714 -0.5431
   45CHL1  H24A 4499   7.375   5.037   4.559 -0.1686  1.5845 -1.6863
   45CHL1  H24B 4500   7.228   4.931   4.555 -0.1011  0.5549  1.0416
   45CHL1   C25 4501   7.217   5.095   4.424  0.3297  0.4754  0.4578
   45CHL1   H25 4502   7.112   5.126   4.442 -0.5875 -0.3216 -3.2754
   45CHL1   C26 4503   7.297   5.223   4.391 -0.3816  0.0009  0.3457
   45CHL1  H26A 4504   7.405   5.201   4.377 -0.5849  0.5030 -2.1149
   45CHL1  H26B 4505   7.259   5.269   4.298 -0.6398 -0.6183  0.1408
   45CHL1  H26C 4506   7.292   5.295   4.475  0.9286  4.1007 -2.9491
   45CHL1   C27 4507   7.217   4.993   4.310 -0.3243 -0.5439 -0.3520
   45CHL1  H27A 4508   7.151   4.907   4.335 -0.5190 -0.5355 -0.8295
   45CHL1  H27B 4509   7.178   5.043   4.218 -1.6354 -0.4417  0.2576
   45CHL1  H27C 4510   7.316   4.948   4.285 -0.9889 -2.0630 -0.2636
   46CHL1    C3 4511   1.288   6.579   6.011 -0.0254 -0.0773  0.5546
   46CHL1    H3 4512   1.209   6.657   6.007  0.1384  0.0242 -1.8985
   46CHL1    O3 4513   1.336   6.546   6.142  0.3883 -0.3188  0.7512
   46CHL1   H3' 4514   1.278   6.480   6.180 -0.8763  1.0254  1.2514
   46CHL1    C4 4515   1.231   6.462   5.936  0.0183 -0.4116 -0.0073
   46CHL1   H4A 4516   1.291   6.368   5.944 -0.8566 -0.9453  0.3328
   46CHL1   H4B 4517   1.134   6.423   5.974 -0.1707 -0.7992 -0.8801
   46CHL1    C5 4518   1.208   6.483   5.785 -0.3242 -0.0502  0.2019
   46CHL1    C6 4519   1.087   6.465   5.743 -0.1833 -0.7402  0.6682
   46CHL1    H6 4520   1.014   6.419   5.812 -0.2320  1.3981  2.0982
   46CHL1    C7 4521   1.037   6.500   5.606  0.3026 -0.2475 -0.2125
   46CHL1   H7A 4522   0.964   6.428   5.565 -0.1969 -0.6307  1.3125
   46CHL1   H7B 4523   0.993   6.602   5.613 -1.5587 -0.9252 -1.7154
   46CHL1    C8 4524   1.149   6.507   5.500 -0.3676 -0.0412  0.0825
   46CHL1    H8 4525   1.178   6.401   5.483 -0.5295  0.1086 -1.1696
   46CHL1   C14 4526   1.108   6.581   5.375 -0.0921 -0.0546 -0.6528
   46CHL1   H14 4527   1.076   6.683   5.405  2.4359  0.2420  1.1416
   46CHL1   C15 4528   0.979   6.529   5.299 -0.2208 -0.0995 -0.4618
   46CHL1  H15A 4529   0.991   6.420   5.282 -0.4701 -0.1460 -0.3621
   46CHL1  H15B 4530   0.877   6.541   5.343  2.0083  0.2055  4.9325
   46CHL1   C16 4531   0.994   6.589   5.158 -0.0431  0.5431  0.5018
   46CHL1  H16A 4532   0.976   6.513   5.079  4.0788  1.2548 -1.2635
   46CHL1  H16B 4533   0.919   6.670   5.162 -1.1657 -0.4141 -0.6015
   46CHL1   C17 4534   1.139   6.647   5.148 -0.1351 -0.3284  0.7683
   46CHL1   H17 4535   1.113   6.751   5.176  1.1719  0.3831 -0.6037
   46CHL1   C13 4536   1.220   6.603   5.271  0.3450 -0.3762 -0.4656
   46CHL1   C18 4537   1.293   6.466   5.248  0.3396  0.0291  0.0617
   46CHL1  H18A 4538   1.392   6.475   5.197  0.0299 -0.1362 -0.5721
   46CHL1  H18B 4539   1.313   6.403   5.338 -0.2907 -0.6088 -0.2394
   46CHL1  H18C 4540   1.229   6.396   5.190 -1.1094  1.1473  0.3131
   46CHL1   C12 4541   1.319   6.707   5.329 -0.5038  0.5410 -0.3484
   46CHL1  H12A 4542   1.396   6.710   5.249  0.5223  1.6572  0.6721
   46CHL1  H12B 4543   1.257   6.797   5.345 -0.9411  0.3225 -0.8207
   46CHL1   C11 4544   1.368   6.664   5.468  0.5719 -0.2066 -0.0695
   46CHL1  H11A 4545   1.457   6.598   5.463  0.4562 -0.1691 -3.3857
   46CHL1  H11B 4546   1.409   6.756   5.515  0.3111  0.0691 -0.3844
   46CHL1    C9 4547   1.262   6.595   5.557 -0.0210 -0.4064  0.2133
   46CHL1    H9 4548   1.198   6.683   5.578 -0.4244 -0.6715  0.0941
   46CHL1   C10 4549   1.319   6.554   5.698  0.5089 -0.1232 -0.0792
   46CHL1   C19 4550   1.427   6.433   5.677 -0.0295  0.3489  0.5293
   46CHL1  H19A 4551   1.437   6.381   5.774  2.0284  0.3239  0.3277
   46CHL1  H19B 4552   1.395   6.361   5.598 -0.3210 -0.0289  0.9893
   46CHL1  H19C 4553   1.525   6.478   5.652  0.2070 -0.3471  0.2059
   46CHL1    C1 4554   1.367   6.677   5.786 -0.4784  0.3279 -0.3192
   46CHL1   H1A 4555   1.457   6.730   5.747  0.2621  1.6420  2.9933
   46CHL1   H1B 4556   1.289   6.756   5.796 -1.0931 -0.0959 -1.6006
   46CHL1    C2 4557   1.402   6.640   5.934 -0.0774 -0.1083 -0.1113
   46CHL1   H2A 4558   1.432   6.731   5.989  0.9478 -0.0749 -0.7212
   46CHL1   H2B 4559   1.492   6.575   5.924 -1.0445 -1.5924  0.6413
   46CHL1   C20 4560   1.199   6.658   5.008 -0.6242 -0.2665 -0.3498
   46CHL1   H20 4561   1.262   6.567   5.004  0.6702  0.6232 -0.4353
   46CHL1   C21 4562   1.269   6.791   4.996  0.0908 -0.0202 -0.4846
   46CHL1  H21A 4563   1.346   6.805   5.075 -1.6230  1.1501  1.0212
   46CHL1  H21B 4564   1.209   6.883   5.010 -0.5165 -0.2048 -1.8533
   46CHL1  H21C 4565   1.325   6.804   4.901  1.1015  0.8071  0.2048
   46CHL1   C22 4566   1.093   6.644   4.894 -0.6549  0.5412 -0.5153
   46CHL1  H22A 4567   1.068   6.536   4.885 -0.6398  0.5842 -1.1101
   46CHL1  H22B 4568   1.006   6.714   4.888 -0.9370 -0.0113 -3.6444
   46CHL1   C23 4569   1.161   6.679   4.756  0.9626  0.6158  0.2546
   46CHL1  H23A 4570   1.082   6.652   4.683  0.3383  0.1230  1.0974
   46CHL1  H23B 4571   1.193   6.785   4.756  1.0036  0.6062 -0.7666
   46CHL1   C24 4572   1.284   6.594   4.711  0.1401  0.0735  0.1042
   46CHL1  H24A 4573   1.347   6.587   4.803  0.6415  1.2035 -0.1479
   46CHL1  H24B 4574   1.237   6.493   4.708 -1.3805  0.7745 -0.1009
   46CHL1   C25 4575   1.354   6.631   4.582  0.1881 -0.9362  0.1441
   46CHL1   H25 4576   1.285   6.650   4.496  0.1900 -1.0481  0.1179
   46CHL1   C26 4577   1.433   6.761   4.608  0.7876 -0.1424  0.3512
   46CHL1  H26A 4578   1.489   6.757   4.704  2.2159 -0.4332 -0.4869
   46CHL1  H26B 4579   1.509   6.772   4.528 -0.1099  1.7251 -0.2761
   46CHL1  H26C 4580   1.359   6.844   4.609 -1.0159 -1.6856 -1.8949
   46CHL1   C27 4581   1.448   6.522   4.539 -0.0384  0.3779 -0.2092
   46CHL1  H27A 4582   1.484   6.547   4.437 -0.7056  2.1366 -0.0228
   46CHL1  H27B 4583   1.527   6.507   4.614 -0.4702  1.6407  0.5095
   46CHL1  H27C 4584   1.401   6.421   4.535  0.3727  0.2413 -2.3246
   47CHL1    C3 4585   1.292   0.414   5.988 -0.8213 -0.8213  0.8776
   47CHL1    H3 4586   1.327   0.514   5.954 -0.6318 -1.2691 -0.2540
   47CHL1    O3 4587   1.322   0.393   6.128 -0.5222  0.1901  0.6588
   47CHL1   H3' 4588   1.249   0.343   6.167 -1.5722  0.6321 -0.7037
   47CHL1    C4 4589   1.143   0.388   5.956  0.1352 -0.1709 -0.0640
   47CHL1   H4A 4590   1.110   0.286   5.987 -2.3559  1.5165  3.1164
   47CHL1   H4B 4591   1.083   0.464   6.010  0.0232 -1.2453  1.3516
   47CHL1    C5 4592   1.122   0.402   5.811 -0.5003 -0.2740  0.4872
   47CHL1    C6 4593   1.034   0.486   5.757 -0.9348 -0.5671 -0.0781
   47CHL1    H6 4594   0.970   0.547   5.822  1.6561  2.1372  0.0742
   47CHL1    C7 4595   0.998   0.501   5.609 -0.8886 -0.0939  0.6624
   47CHL1   H7A 4596   0.888   0.510   5.600 -0.9045  0.2067  1.1412
   47CHL1   H7B 4597   1.055   0.583   5.560 -2.1466  0.4142  0.0398
   47CHL1    C8 4598   1.047   0.375   5.534  0.5399 -0.4850  0.4725
   47CHL1    H8 4599   0.980   0.290   5.558  2.4268 -2.1910 -0.1275
   47CHL1   C14 4600   1.037   0.404   5.388 -0.7268 -0.0250 -0.0274
   47CHL1   H14 4601   1.108   0.488   5.373 -0.4961 -0.4042 -1.0877
   47CHL1   C15 4602   0.901   0.459   5.333  0.2919 -0.6615  0.0054
   47CHL1  H15A 4603   0.820   0.388   5.360  1.4736 -2.1694 -0.3050
   47CHL1  H15B 4604   0.887   0.564   5.366  0.0438 -0.3115 -1.2024
   47CHL1   C16 4605   0.910   0.440   5.178  0.4186  0.6601 -0.4158
   47CHL1  H16A 4606   0.832   0.370   5.140 -0.1955  1.8286 -1.3211
   47CHL1  H16B 4607   0.907   0.543   5.137 -1.2831  0.2503 -1.3774
   47CHL1   C17 4608   1.044   0.369   5.153 -0.2239 -0.3773  0.1022
   47CHL1   H17 4609   1.112   0.456   5.149  0.8776 -1.1413  1.6236
   47CHL1   C13 4610   1.085   0.296   5.286 -0.4411 -0.9339  0.7382
   47CHL1   C18 4611   1.004   0.167   5.292 -0.1396 -0.0894  0.3192
   47CHL1  H18A 4612   0.904   0.195   5.253 -0.6363 -0.5182  1.2473
   47CHL1  H18B 4613   1.056   0.092   5.229  0.8548 -1.7987  3.0508
   47CHL1  H18C 4614   0.992   0.120   5.393 -2.7951  0.7711  0.4274
   47CHL1   C12 4615   1.234   0.269   5.318 -0.3153  0.0729 -0.3324
   47CHL1  H12A 4616   1.276   0.197   5.245  0.5401 -1.4338  1.5984
   47CHL1  H12B 4617   1.291   0.363   5.299 -0.9394  0.2141 -1.5662
   47CHL1   C11 4618   1.252   0.230   5.466 -0.1527 -0.3138 -0.6162
   47CHL1  H11A 4619   1.216   0.131   5.501 -0.3166  0.1898  0.6850
   47CHL1  H11B 4620   1.360   0.243   5.486 -0.6014  1.2250  0.9190
   47CHL1    C9 4621   1.188   0.331   5.573 -0.5021 -0.3776 -0.3309
   47CHL1    H9 4622   1.237   0.429   5.553  2.0723 -1.4472  0.5548
   47CHL1   C10 4623   1.202   0.304   5.722 -0.2900  0.5323  0.0427
   47CHL1   C19 4624   1.163   0.158   5.758  0.0174 -0.0895 -0.4492
   47CHL1  H19A 4625   1.250   0.095   5.727 -1.0280 -2.6746  1.6460
   47CHL1  H19B 4626   1.141   0.134   5.864 -2.6358 -0.9738 -1.1529
   47CHL1  H19C 4627   1.068   0.121   5.715  0.3146 -2.5769  0.9420
   47CHL1    C1 4628   1.356   0.311   5.765 -0.2266  1.3237 -0.0603
   47CHL1   H1A 4629   1.406   0.228   5.710  1.2222  2.4896 -0.5178
   47CHL1   H1B 4630   1.383   0.413   5.732  0.3875  1.5580  1.1544
   47CHL1    C2 4631   1.384   0.308   5.916  0.3152  0.9171 -0.1874
   47CHL1   H2A 4632   1.489   0.331   5.943  1.1836 -3.0699  0.0418
   47CHL1   H2B 4633   1.361   0.204   5.948 -0.0897  0.8425 -0.7025
   47CHL1   C20 4634   1.042   0.286   5.023 -0.3547 -0.0489  0.7968
   47CHL1   H20 4635   0.986   0.192   5.044 -1.7547  0.9459  1.6080
   47CHL1   C21 4636   1.188   0.246   4.981 -0.2385 -0.1436 -0.2843
   47CHL1  H21A 4637   1.180   0.172   4.898 -3.2542 -1.2062  0.8595
   47CHL1  H21B 4638   1.236   0.176   5.052 -0.5562 -0.0211  0.0516
   47CHL1  H21C 4639   1.253   0.329   4.946 -1.4595  0.4730 -1.1427
   47CHL1   C22 4640   0.974   0.354   4.896  0.8245 -0.2710  0.1296
   47CHL1  H22A 4641   0.864   0.365   4.910  0.9063 -1.7095  2.1481
   47CHL1  H22B 4642   1.007   0.460   4.886  1.4848 -0.3216  1.7234
   47CHL1   C23 4643   0.997   0.272   4.771 -0.4978 -0.1341 -0.8338
   47CHL1  H23A 4644   1.098   0.289   4.727  0.5611  0.4505  1.6890
   47CHL1  H23B 4645   1.000   0.163   4.792  0.0834 -0.6062 -3.2329
   47CHL1   C24 4646   0.887   0.295   4.665  0.3493 -0.0221 -1.2122
   47CHL1  H24A 4647   0.796   0.281   4.726  0.6202  1.6645 -0.3945
   47CHL1  H24B 4648   0.875   0.402   4.634  0.4370 -0.2533 -2.0686
   47CHL1   C25 4649   0.878   0.206   4.539 -0.0917  0.3005 -0.1148
   47CHL1   H25 4650   0.867   0.098   4.566  0.8224 -0.1885 -1.6227
   47CHL1   C26 4651   0.771   0.239   4.438 -0.6142 -0.2566 -0.0446
   47CHL1  H26A 4652   0.780   0.349   4.419  1.9109  0.1871  3.2590
   47CHL1  H26B 4653   0.770   0.188   4.339 -1.1812  0.0709 -0.2106
   47CHL1  H26C 4654   0.676   0.215   4.489 -0.0943  1.1049  1.6386
   47CHL1   C27 4655   1.009   0.220   4.454 -0.3758  0.2989 -0.0312
   47CHL1  H27A 4656   1.000   0.171   4.354  1.6858  0.6800 -0.4336
   47CHL1  H27B 4657   1.022   0.325   4.420  0.3020  1.0576  2.5158
   47CHL1  H27C 4658   1.104   0.191   4.504 -0.0942 -0.4175 -0.9633
   48CHL1    C3 4659   6.367   0.179   6.013 -0.3808 -0.4698 -0.5459
   48CHL1    H3 4660   6.260   0.206   6.004 -0.6751 -1.6696 -0.7024
   48CHL1    O3 4661   6.418   0.166   6.147 -0.6674 -0.2288  1.0472
   48CHL1   H3' 4662   6.513   0.166   6.138 -0.9359  1.5118 -3.2843
   48CHL1    C4 4663   6.369   0.042   5.942  0.3637 -0.3900  0.0114
   48CHL1   H4A 4664   6.466  -0.003   5.970 -0.1103  0.1327  2.7054
   48CHL1   H4B 4665   6.299  -0.023   6.001 -0.3528  0.9692  0.6851
   48CHL1    C5 4666   6.330   0.041   5.795 -0.0567 -0.2244  0.2640
   48CHL1    C6 4667   6.229  -0.034   5.748  0.2328 -0.7450 -0.4642
   48CHL1    H6 4668   6.175  -0.107   5.811  1.6808 -2.5582 -1.2920
   48CHL1    C7 4669   6.205  -0.054   5.601 -0.6980  0.5398  0.0258
   48CHL1   H7A 4670   6.200  -0.158   5.561 -0.2105  0.3924  0.3414
   48CHL1   H7B 4671   6.104  -0.012   5.584 -0.0374  0.9818 -2.9628
   48CHL1    C8 4672   6.305   0.030   5.513  0.2597 -0.4472  0.0268
   48CHL1    H8 4673   6.394  -0.033   5.492  0.3300 -0.6271  0.8244
   48CHL1   C14 4674   6.246   0.055   5.377  0.0552 -0.3867  0.1561
   48CHL1   H14 4675   6.152   0.113   5.386  0.1161 -0.0443 -1.2905
   48CHL1   C15 4676   6.204  -0.077   5.306 -0.1714 -0.0000 -0.0265
   48CHL1  H15A 4677   6.289  -0.148   5.316  1.4821  1.5087 -2.7920
   48CHL1  H15B 4678   6.105  -0.115   5.337 -0.5094 -0.6961 -1.9156
   48CHL1   C16 4679   6.184  -0.036   5.159 -0.1280  0.0360 -0.3543
   48CHL1  H16A 4680   6.242  -0.109   5.099 -0.1951 -0.5439  0.2731
   48CHL1  H16B 4681   6.080  -0.039   5.120 -0.0640  1.4486 -0.6575
   48CHL1   C17 4682   6.251   0.104   5.151  0.3846  0.1356  0.2736
   48CHL1   H17 4683   6.167   0.170   5.182 -0.7544 -0.6797 -1.0366
   48CHL1   C13 4684   6.337   0.122   5.279  0.3542  0.3094  0.4764
   48CHL1   C18 4685   6.474   0.061   5.256 -1.0027 -0.8215  0.2149
   48CHL1  H18A 4686   6.522   0.061   5.356 -0.3265 -1.7573 -0.1041
   48CHL1  H18B 4687   6.466  -0.044   5.218  1.0117 -1.1895  0.7472
   48CHL1  H18C 4688   6.543   0.123   5.196 -2.2477 -1.2222 -1.6733
   48CHL1   C12 4689   6.349   0.267   5.326 -0.7986 -0.1703  0.3639
   48CHL1  H12A 4690   6.424   0.313   5.257 -1.3218  2.5931  1.5524
   48CHL1  H12B 4691   6.254   0.325   5.328  0.8036  2.5349  2.8185
   48CHL1   C11 4692   6.415   0.260   5.470 -0.4972 -0.1036 -0.0716
   48CHL1  H11A 4693   6.517   0.224   5.448 -2.0164 -1.7760 -5.1816
   48CHL1  H11B 4694   6.427   0.364   5.508  0.7138 -0.2757  0.0264
   48CHL1    C9 4695   6.340   0.164   5.575 -0.0212 -0.6945 -0.2781
   48CHL1    H9 4696   6.243   0.213   5.596  1.2308  1.9522 -0.4827
   48CHL1   C10 4697   6.406   0.145   5.717 -1.0584  0.5889  0.2424
   48CHL1   C19 4698   6.550   0.093   5.701 -0.0833  0.1647  0.3369
   48CHL1  H19A 4699   6.614   0.169   5.652 -0.1005  0.6221  1.0147
   48CHL1  H19B 4700   6.601   0.066   5.796 -3.1855  0.5254  2.1980
   48CHL1  H19C 4701   6.543   0.003   5.637 -1.2639  0.3434  0.1968
   48CHL1    C1 4702   6.404   0.283   5.789  0.0785  0.3064  0.3348
   48CHL1   H1A 4703   6.466   0.360   5.738 -1.3849  2.7087  2.0750
   48CHL1   H1B 4704   6.304   0.330   5.783 -0.7352 -1.0147  2.8043
   48CHL1    C2 4705   6.444   0.281   5.939  0.0662 -1.0042 -0.3009
   48CHL1   H2A 4706   6.417   0.379   5.984 -2.4503 -1.1789 -1.4009
   48CHL1   H2B 4707   6.555   0.275   5.949 -0.3269 -2.9286  3.8920
   48CHL1   C20 4708   6.312   0.157   5.020  0.1036  0.5092  0.1138
   48CHL1   H20 4709   6.400   0.222   5.040  0.0014  0.9571 -0.8741
   48CHL1   C21 4710   6.208   0.250   4.962 -0.3032 -0.2470  0.2664
   48CHL1  H21A 4711   6.254   0.294   4.870 -2.2011  1.2980  0.0275
   48CHL1  H21B 4712   6.113   0.202   4.931 -0.4818  0.2681  0.0026
   48CHL1  H21C 4713   6.171   0.329   5.031 -3.5070 -1.9778  0.6037
   48CHL1   C22 4714   6.358   0.055   4.917  0.6978  0.6604 -0.5099
   48CHL1  H22A 4715   6.431  -0.004   4.975 -0.7604  0.1593  0.8624
   48CHL1  H22B 4716   6.279  -0.018   4.887 -0.5304  1.8023 -0.0909
   48CHL1   C23 4717   6.426   0.116   4.790 -0.5631 -0.1209  0.6115
   48CHL1  H23A 4718   6.358   0.175   4.725 -0.3030  0.2222  0.6483
   48CHL1  H23B 4719   6.507   0.181   4.830 -0.7467 -0.0243  0.8294
   48CHL1   C24 4720   6.487   0.004   4.703  0.0169  0.4990 -0.2998
   48CHL1  H24A 4721   6.534  -0.071   4.770 -2.1503  0.4553  1.2059
   48CHL1  H24B 4722   6.404  -0.048   4.650 -0.4057  0.3719  0.4868
   48CHL1   C25 4723   6.588   0.060   4.599 -0.5446 -0.1278  0.1409
   48CHL1   H25 4724   6.668   0.111   4.656  1.3070 -1.1560 -1.5032
   48CHL1   C26 4725   6.651  -0.057   4.510  0.0681  0.1033  0.0109
   48CHL1  H26A 4726   6.564  -0.124   4.493 -1.5927  1.1287  4.0845
   48CHL1  H26B 4727   6.697  -0.019   4.415 -1.3031  0.4281 -0.5371
   48CHL1  H26C 4728   6.721  -0.123   4.566  1.4387 -0.1185 -1.8810
   48CHL1   C27 4729   6.528   0.150   4.486 -0.7519 -0.1256  0.0995
   48CHL1  H27A 4730   6.465   0.076   4.432  0.1180 -0.3872 -0.5605
   48CHL1  H27B 4731   6.453   0.222   4.523 -1.1592 -1.6031  2.2545
   48CHL1  H27C 4732   6.598   0.206   4.421 -0.0974 -1.0341 -0.0025
   49CHL1    C3 4733   3.751   3.998   2.498 -0.4047  0.0596 -0.8020
   49CHL1    H3 4734   3.784   4.104   2.496 -0.2425  0.1233  2.6264
   49CHL1    O3 4735   3.696   3.961   2.374  0.1177  0.0399 -0.0089
   49CHL1   H3' 4736   3.659   3.874   2.387 -0.6126  0.5871  1.7139
   49CHL1    C4 4737   3.866   3.898   2.524  0.5265 -0.2035 -0.3275
   49CHL1   H4A 4738   3.828   3.794   2.517  1.4696 -0.5864  0.1833
   49CHL1   H4B 4739   3.951   3.917   2.455  0.3296 -0.7910 -0.7382
   49CHL1    C5 4740   3.931   3.927   2.658 -0.5249  0.3860 -0.0285
   49CHL1    C6 4741   4.063   3.946   2.670  0.1989 -0.4970  0.5927
   49CHL1    H6 4742   4.130   3.937   2.584  0.3206 -1.0771  0.7491
   49CHL1    C7 4743   4.129   3.966   2.802 -0.0946 -0.9898  0.3570
   49CHL1   H7A 4744   4.210   3.891   2.812 -0.0597 -1.1336 -1.0231
   49CHL1   H7B 4745   4.186   4.062   2.809 -0.1837 -0.9766  0.9966
   49CHL1    C8 4746   4.041   3.954   2.925 -0.4511 -0.1185 -1.1523
   49CHL1    H8 4747   4.030   3.847   2.952  0.0701 -0.4047 -2.0384
   49CHL1   C14 4748   4.102   4.026   3.047 -0.1754 -0.2950 -0.0356
   49CHL1   H14 4749   4.105   4.132   3.011  2.6203 -0.9526 -1.8609
   49CHL1   C15 4750   4.253   3.993   3.082  0.2657  0.7567 -0.2929
   49CHL1  H15A 4751   4.265   3.883   3.080 -1.4187  0.5614 -1.0285
   49CHL1  H15B 4752   4.331   4.048   3.026 -0.9779  1.7567 -1.1008
   49CHL1   C16 4753   4.264   4.037   3.229 -0.1929 -0.7407 -0.7181
   49CHL1  H16A 4754   4.266   3.942   3.287 -1.6409  0.1073  0.7745
   49CHL1  H16B 4755   4.353   4.098   3.254 -1.1921  0.6960 -0.6319
   49CHL1   C17 4756   4.124   4.092   3.260  0.5916 -0.4399 -1.2364
   49CHL1   H17 4757   4.097   4.193   3.221 -0.3028  0.7760  2.3651
   49CHL1   C13 4758   4.023   4.014   3.178 -0.6913  0.0750  0.6601
   49CHL1   C18 4759   4.007   3.866   3.221 -0.0537  1.0410 -0.4922
   49CHL1  H18A 4760   4.097   3.838   3.279 -0.9152  1.1702  0.9516
   49CHL1  H18B 4761   3.918   3.875   3.288  1.2461 -2.2611  1.8037
   49CHL1  H18C 4762   3.981   3.798   3.137  0.5428  3.4288 -2.6741
   49CHL1   C12 4763   3.893   4.077   3.146 -0.5299  0.1318 -0.0151
   49CHL1  H12A 4764   3.821   4.059   3.229 -1.7097  2.2003 -0.5523
   49CHL1  H12B 4765   3.899   4.187   3.128  0.2817 -0.0972 -1.1705
   49CHL1   C11 4766   3.815   4.015   3.029 -0.1656 -0.0212  0.2675
   49CHL1  H11A 4767   3.798   3.907   3.051  1.5636 -0.0924  1.3628
   49CHL1  H11B 4768   3.719   4.069   3.014 -0.3344 -0.6293 -0.9134
   49CHL1    C9 4769   3.904   4.016   2.901  0.8376  0.6267  0.3333
   49CHL1    H9 4770   3.912   4.118   2.857 -0.7302 -0.2751 -2.1511
   49CHL1   C10 4771   3.840   3.942   2.781  0.5746  0.1374 -0.2571
   49CHL1   C19 4772   3.789   3.804   2.813 -0.2751 -0.4115 -0.0778
   49CHL1  H19A 4773   3.868   3.730   2.838 -2.6888 -2.5639  1.3907
   49CHL1  H19B 4774   3.718   3.799   2.898  1.8041 -1.6077  1.6105
   49CHL1  H19C 4775   3.726   3.762   2.731  0.4995 -1.3995 -0.1754
   49CHL1    C1 4776   3.716   4.036   2.745  0.3346  0.5224 -0.2619
   49CHL1   H1A 4777   3.637   4.024   2.822 -1.8750  1.7340 -2.2693
   49CHL1   H1B 4778   3.743   4.143   2.732  0.6345  0.3187 -1.3574
   49CHL1    C2 4779   3.647   4.003   2.607 -0.1288  0.0312  0.2966
   49CHL1   H2A 4780   3.563   4.070   2.580  1.1182  1.9888  1.2085
   49CHL1   H2B 4781   3.596   3.906   2.624 -1.0715  0.1699 -1.5893
   49CHL1   C20 4782   4.098   4.109   3.407  0.8408  0.1735 -0.4753
   49CHL1   H20 4783   3.998   4.158   3.409 -0.5339 -2.6011  1.4350
   49CHL1   C21 4784   4.193   4.223   3.452  0.4903  0.2137 -0.7113
   49CHL1  H21A 4785   4.297   4.187   3.440  1.0312  1.1801  0.8238
   49CHL1  H21B 4786   4.172   4.262   3.554  1.6784  1.7093 -1.0207
   49CHL1  H21C 4787   4.193   4.308   3.380 -1.6921 -1.6544 -2.9852
   49CHL1   C22 4788   4.088   3.988   3.501 -0.2008  1.2520 -0.6927
   49CHL1  H22A 4789   4.030   3.900   3.465 -0.0304  0.5410  0.7318
   49CHL1  H22B 4790   4.189   3.955   3.532 -1.0651 -2.6433 -1.7326
   49CHL1   C23 4791   4.016   4.035   3.631  1.7858  0.0551 -0.4648
   49CHL1  H23A 4792   4.057   4.133   3.664 -2.1089  2.0002 -1.0795
   49CHL1  H23B 4793   3.908   4.053   3.613  1.9424  1.3194 -0.1917
   49CHL1   C24 4794   4.030   3.939   3.745 -0.7758  0.3593  0.5874
   49CHL1  H24A 4795   4.004   3.842   3.698  1.0778 -0.7208  1.7338
   49CHL1  H24B 4796   4.132   3.922   3.786  1.1521  2.0576 -3.3043
   49CHL1   C25 4797   3.954   3.977   3.868 -0.4405 -0.1353 -0.1236
   49CHL1   H25 4798   3.852   4.011   3.840 -0.6288 -0.6209 -0.0447
   49CHL1   C26 4799   3.935   3.837   3.938 -0.0300 -0.6105  0.8845
   49CHL1  H26A 4800   3.887   3.762   3.872  0.4883 -0.1268 -0.0535
   49CHL1  H26B 4801   4.029   3.791   3.975 -0.9818 -1.5886  2.1201
   49CHL1  H26C 4802   3.870   3.847   4.028  0.5285  0.5701  1.1669
   49CHL1   C27 4803   4.021   4.090   3.949  1.1014  0.3538  0.2818
   49CHL1  H27A 4804   4.128   4.064   3.969  0.4477 -1.1779  1.9010
   49CHL1  H27B 4805   4.019   4.189   3.899  3.0686  1.2536  1.8906
   49CHL1  H27C 4806   3.968   4.096   4.046  1.0286 -3.0918  0.4875
   50CHL1    C3 4807   4.165   3.562   2.545 -0.7718  0.6141 -0.1394
   50CHL1    H3 4808   4.189   3.632   2.628  0.4352 -0.9993  0.9062
   50CHL1    O3 4809   4.180   3.641   2.426 -0.7014 -0.2087  0.5217
   50CHL1   H3' 4810   4.274   3.659   2.424 -0.4306 -1.1685  2.7547
   50CHL1    C4 4811   4.259   3.437   2.550  0.2613  0.0759  0.8490
   50CHL1   H4A 4812   4.231   3.370   2.466 -0.6154 -0.6691  1.7288
   50CHL1   H4B 4813   4.364   3.471   2.535  0.0325  0.8392  0.9329
   50CHL1    C5 4814   4.240   3.357   2.679 -0.1533  0.7826 -0.0686
   50CHL1    C6 4815   4.346   3.321   2.753  0.0747  0.3090 -0.3025
   50CHL1    H6 4816   4.440   3.362   2.713  1.6130 -1.3323  1.5284
   50CHL1    C7 4817   4.345   3.234   2.872 -0.0485 -0.4259 -0.3740
   50CHL1   H7A 4818   4.421   3.154   2.855  1.9968  1.0425  1.5758
   50CHL1   H7B 4819   4.357   3.295   2.964  0.2847  0.2379 -0.8502
   50CHL1    C8 4820   4.202   3.172   2.899 -0.0365 -0.4015  0.3188
   50CHL1    H8 4821   4.202   3.080   2.838 -0.5231  0.5942 -1.1993
   50CHL1   C14 4822   4.188   3.142   3.050  0.1243  0.0359  0.9637
   50CHL1   H14 4823   4.182   3.231   3.116 -2.0728  1.3333 -0.9461
   50CHL1   C15 4824   4.294   3.058   3.115  0.1364  0.1616 -0.2605
   50CHL1  H15A 4825   4.319   2.977   3.042 -0.9366  0.5282 -1.0376
   50CHL1  H15B 4826   4.390   3.110   3.139  0.3394 -0.2829 -0.1022
   50CHL1   C16 4827   4.225   2.993   3.240  0.7756 -0.2123  0.3028
   50CHL1  H16A 4828   4.241   2.883   3.241 -0.3918 -0.4252 -1.8007
   50CHL1  H16B 4829   4.277   3.029   3.331 -1.4261 -1.9215  2.2762
   50CHL1   C17 4830   4.074   3.025   3.232  0.2155 -0.7610  0.1252
   50CHL1   H17 4831   4.063   3.125   3.280 -0.0376 -0.5781 -0.3030
   50CHL1   C13 4832   4.053   3.070   3.085 -0.3817  0.3537 -1.3281
   50CHL1   C18 4833   4.034   2.942   2.995  0.1010 -0.0912 -0.5836
   50CHL1  H18A 4834   4.045   2.957   2.886 -1.3073 -1.0217 -0.8693
   50CHL1  H18B 4835   4.116   2.870   3.020  0.1220 -0.2702 -1.1761
   50CHL1  H18C 4836   3.930   2.905   3.008 -0.4972  1.8178  0.1700
   50CHL1   C12 4837   3.943   3.169   3.058 -0.1749  0.3224  0.5342
   50CHL1  H12A 4838   3.851   3.107   3.056  0.7736 -1.0800 -0.6860
   50CHL1  H12B 4839   3.943   3.248   3.136  0.7188  0.8602 -0.0042
   50CHL1   C11 4840   3.944   3.230   2.918  0.6626 -0.3000  0.1046
   50CHL1  H11A 4841   3.892   3.156   2.855  0.2819 -0.4428  0.5902
   50CHL1  H11B 4842   3.886   3.325   2.917 -0.4212 -0.9362 -3.6480
   50CHL1    C9 4843   4.087   3.272   2.865  0.4025 -1.2845  0.4324
   50CHL1    H9 4844   4.111   3.362   2.924 -0.4767 -1.8824  1.7308
   50CHL1   C10 4845   4.091   3.325   2.715 -0.1481  0.4452 -0.1913
   50CHL1   C19 4846   4.034   3.213   2.624 -0.6940  0.3532  0.0154
   50CHL1  H19A 4847   4.094   3.122   2.642 -2.6730 -0.5173  2.3882
   50CHL1  H19B 4848   3.926   3.186   2.634 -0.3841 -1.1761 -0.6178
   50CHL1  H19C 4849   4.044   3.236   2.515  1.2150  1.9138  0.4955
   50CHL1    C1 4850   4.002   3.454   2.701 -0.1606  0.8338 -0.5383
   50CHL1   H1A 4851   3.902   3.407   2.703  0.8352 -1.3231  0.3133
   50CHL1   H1B 4852   4.020   3.517   2.791 -0.0661  1.1302 -0.7642
   50CHL1    C2 4853   4.018   3.526   2.565  0.1671  0.0483 -0.2938
   50CHL1   H2A 4854   3.974   3.628   2.570  2.5807  1.1401 -0.6485
   50CHL1   H2B 4855   3.978   3.473   2.475  0.4942  1.6222 -1.3992
   50CHL1   C20 4856   3.983   2.918   3.298  0.6068  0.6949  0.0113
   50CHL1   H20 4857   3.984   2.816   3.255  0.3908  0.9514 -0.6047
   50CHL1   C21 4858   3.835   2.957   3.286  0.2156 -0.3661 -0.1716
   50CHL1  H21A 4859   3.775   2.872   3.327  0.0661 -0.0533  0.2581
   50CHL1  H21B 4860   3.795   2.961   3.182  0.6184 -0.7615 -0.3430
   50CHL1  H21C 4861   3.806   3.053   3.333 -1.3470 -1.3994  1.0445
   50CHL1   C22 4862   4.014   2.886   3.451  0.1756 -0.1286  0.3768
   50CHL1  H22A 4863   4.117   2.845   3.461 -0.0909 -1.2179 -1.2254
   50CHL1  H22B 4864   4.002   2.966   3.527  0.0899  1.5780 -1.4115
   50CHL1   C23 4865   3.922   2.769   3.507 -0.0587  0.1479 -0.3905
   50CHL1  H23A 4866   3.822   2.819   3.506 -0.6360 -0.8629 -5.4312
   50CHL1  H23B 4867   3.930   2.683   3.438  3.3653 -0.4174  0.6330
   50CHL1   C24 4868   3.965   2.736   3.658 -0.2923  0.4442 -0.2236
   50CHL1  H24A 4869   4.057   2.675   3.666  0.3255  1.1326 -1.9568
   50CHL1  H24B 4870   3.998   2.831   3.706  3.7697 -0.4406 -1.1013
   50CHL1   C25 4871   3.851   2.698   3.754  0.5183 -0.1341 -0.5444
   50CHL1   H25 4872   3.767   2.768   3.737 -0.7472 -1.8393 -1.4705
   50CHL1   C26 4873   3.793   2.561   3.724  0.1478  0.2251  0.1444
   50CHL1  H26A 4874   3.735   2.555   3.629  0.4999  1.3522 -0.1479
   50CHL1  H26B 4875   3.879   2.491   3.711  1.7680  2.0403  0.9246
   50CHL1  H26C 4876   3.734   2.525   3.811  0.0353  0.8877  0.3390
   50CHL1   C27 4877   3.891   2.698   3.905 -0.1135  0.1958 -0.7551
   50CHL1  H27A 4878   3.903   2.807   3.927 -1.3292  0.0860  0.4886
   50CHL1  H27B 4879   3.806   2.666   3.968  1.0325 -0.0194  0.7260
   50CHL1  H27C 4880   3.986   2.643   3.925 -0.0021 -0.1118 -2.0717
   51CHL1    C3 4881   4.081   4.407   2.548  0.1974  0.3271 -0.4150
   51CHL1    H3 4882   4.015   4.497   2.553  1.5761  1.2532  2.5764
   51CHL1    O3 4883   4.066   4.342   2.428 -0.6554 -0.5785  0.5768
   51CHL1   H3' 4884   4.113   4.259   2.428 -0.9504 -0.8118 -2.9575
   51CHL1    C4 4885   4.231   4.442   2.572  0.1034  0.0266 -0.1114
   51CHL1   H4A 4886   4.284   4.345   2.573  2.4624  1.2429 -1.6917
   51CHL1   H4B 4887   4.268   4.494   2.481  2.8966  0.9164  1.4691
   51CHL1    C5 4888   4.249   4.526   2.697 -0.1489  0.3411 -0.4965
   51CHL1    C6 4889   4.301   4.656   2.692 -0.6127  0.4218 -0.0353
   51CHL1    H6 4890   4.336   4.688   2.593  0.5622  0.6983  0.4580
   51CHL1    C7 4891   4.320   4.733   2.814  0.4720  0.2078  0.2916
   51CHL1   H7A 4892   4.425   4.767   2.806  0.9215 -1.2428 -0.1475
   51CHL1   H7B 4893   4.260   4.827   2.820  0.1193  0.0315 -0.3585
   51CHL1    C8 4894   4.315   4.653   2.945  0.3796 -0.2184  0.3130
   51CHL1    H8 4895   4.409   4.595   2.957 -0.4863 -1.7092  0.0371
   51CHL1   C14 4896   4.307   4.748   3.067 -0.2637 -1.1995  0.3431
   51CHL1   H14 4897   4.209   4.798   3.054  0.0458 -0.3268  1.2843
   51CHL1   C15 4898   4.405   4.867   3.076  0.1576 -0.1310 -0.9705
   51CHL1  H15A 4899   4.511   4.836   3.064  0.2228  0.8246 -3.0037
   51CHL1  H15B 4900   4.400   4.955   3.008  1.9556  0.7754  0.0381
   51CHL1   C16 4901   4.377   4.922   3.220 -0.1845  0.0560  0.7185
   51CHL1  H16A 4902   4.477   4.927   3.268 -0.7441  2.3925  1.7171
   51CHL1  H16B 4903   4.345   5.028   3.213  1.3929  0.4092 -1.9746
   51CHL1   C17 4904   4.299   4.814   3.294  0.8995 -0.4719  0.4978
   51CHL1   H17 4905   4.196   4.854   3.281  0.2857 -1.7815  1.2145
   51CHL1   C13 4906   4.287   4.688   3.207 -0.3766 -0.6185  0.2530
   51CHL1   C18 4907   4.408   4.606   3.229  0.1827  0.2350  0.3168
   51CHL1  H18A 4908   4.430   4.523   3.159 -2.2332  0.3365 -0.5851
   51CHL1  H18B 4909   4.506   4.659   3.230  0.6725 -0.5995 -1.4705
   51CHL1  H18C 4910   4.381   4.551   3.321 -1.5392  0.7427  0.1358
   51CHL1   C12 4911   4.168   4.580   3.200 -0.1851 -0.7429 -0.2883
   51CHL1  H12A 4912   4.154   4.523   3.294 -0.3311 -1.0030 -0.4665
   51CHL1  H12B 4913   4.083   4.648   3.179 -2.3556 -2.9512  1.1875
   51CHL1   C11 4914   4.166   4.478   3.082 -1.1048  0.3113 -0.0231
   51CHL1  H11A 4915   4.244   4.403   3.104 -0.0150  1.6665  0.7839
   51CHL1  H11B 4916   4.060   4.445   3.073 -0.5870 -0.7352 -2.8103
   51CHL1    C9 4917   4.199   4.549   2.948 -0.5588  0.2747 -0.0674
   51CHL1    H9 4918   4.108   4.611   2.934 -0.5424  0.1156 -0.9359
   51CHL1   C10 4919   4.200   4.449   2.825  0.4266 -0.2514 -0.2007
   51CHL1   C19 4920   4.301   4.339   2.863  0.2647 -0.2616 -0.0078
   51CHL1  H19A 4921   4.394   4.383   2.907 -0.5287 -1.2150  2.7157
   51CHL1  H19B 4922   4.261   4.271   2.941  1.5567 -0.4393  0.5113
   51CHL1  H19C 4923   4.324   4.273   2.777 -1.3879  1.0132 -1.4664
   51CHL1    C1 4924   4.058   4.386   2.801 -0.2711  0.1096 -0.0764
   51CHL1   H1A 4925   4.028   4.310   2.876 -2.8344  0.0471 -1.0997
   51CHL1   H1B 4926   3.983   4.468   2.801  1.2935  1.6027 -2.2105
   51CHL1    C2 4927   4.038   4.316   2.665 -0.4199  0.0180  0.5216
   51CHL1   H2A 4928   3.929   4.299   2.655 -0.2701 -1.5631  1.3408
   51CHL1   H2B 4929   4.084   4.216   2.650  0.3703  0.5206 -0.4461
   51CHL1   C20 4930   4.316   4.800   3.444  0.0937  0.1009 -0.5603
   51CHL1   H20 4931   4.420   4.764   3.464  0.5280  1.6257 -0.0334
   51CHL1   C21 4932   4.218   4.690   3.504 -0.1192  0.3725 -1.1452
   51CHL1  H21A 4933   4.115   4.729   3.491 -0.5376 -0.2898  0.1394
   51CHL1  H21B 4934   4.241   4.674   3.611 -1.6042  0.1723 -0.8365
   51CHL1  H21C 4935   4.225   4.590   3.456 -2.1447  0.3250 -1.3984
   51CHL1   C22 4936   4.318   4.935   3.531 -0.1171 -0.0089 -0.1317
   51CHL1  H22A 4937   4.377   5.017   3.485 -1.8061 -0.5692 -3.4114
   51CHL1  H22B 4938   4.214   4.973   3.537  0.4935  1.6601  0.3940
   51CHL1   C23 4939   4.367   4.925   3.677 -0.3061 -0.6079 -0.5117
   51CHL1  H23A 4940   4.293   4.864   3.733  0.9965 -0.5954  1.2442
   51CHL1  H23B 4941   4.465   4.875   3.663 -0.5291 -1.7872  1.9282
   51CHL1   C24 4942   4.390   5.062   3.740 -0.2724  1.1013  0.3862
   51CHL1  H24A 4943   4.469   5.107   3.677  0.5307  0.3298  0.8333
   51CHL1  H24B 4944   4.296   5.120   3.730 -0.9693 -0.1413 -0.5276
   51CHL1   C25 4945   4.452   5.050   3.875 -0.2851  0.3236  0.5464
   51CHL1   H25 4946   4.543   4.986   3.873 -1.0820 -0.8320  1.0034
   51CHL1   C26 4947   4.501   5.186   3.914  0.7740 -0.3007 -0.4227
   51CHL1  H26A 4948   4.423   5.265   3.901  2.3552  1.2346 -0.7149
   51CHL1  H26B 4949   4.541   5.195   4.018  0.6739  1.8183 -0.5510
   51CHL1  H26C 4950   4.576   5.225   3.843  1.1646  2.2670  1.3212
   51CHL1   C27 4951   4.345   5.002   3.974  1.1158 -0.2721  0.6924
   51CHL1  H27A 4952   4.387   5.017   4.076  1.5937  3.0845  0.0620
   51CHL1  H27B 4953   4.250   5.060   3.978  0.5179 -1.2318  0.4022
   51CHL1  H27C 4954   4.325   4.893   3.971 -0.7185  0.0576  0.7420
   52CHL1    C3 4955   4.183   5.386   2.610 -0.5744  0.4249  0.0596
   52CHL1    H3 4956   4.155   5.491   2.591 -2.3376  0.2059  1.3054
   52CHL1    O3 4957   4.214   5.333   2.486  0.1871  0.4819 -0.2648
   52CHL1   H3' 4958   4.285   5.269   2.497 -0.4645  0.1713  2.5556
   52CHL1    C4 4959   4.311   5.382   2.696 -0.0787 -0.6122 -0.4933
   52CHL1   H4A 4960   4.357   5.282   2.680  0.4463 -0.4206 -0.2026
   52CHL1   H4B 4961   4.397   5.437   2.652 -1.5162  1.3372 -0.9532
   52CHL1    C5 4962   4.283   5.412   2.841  0.3304  0.1982  0.2820
   52CHL1    C6 4963   4.359   5.510   2.900 -0.2884 -0.4773  0.2836
   52CHL1    H6 4964   4.424   5.572   2.837  0.6542 -2.3117 -0.5921
   52CHL1    C7 4965   4.345   5.546   3.044 -0.1642  0.4660  0.3559
   52CHL1   H7A 4966   4.448   5.564   3.080  0.3640 -0.0086 -0.8885
   52CHL1   H7B 4967   4.298   5.646   3.048 -0.6114  0.2788 -0.0846
   52CHL1    C8 4968   4.276   5.439   3.132  1.1660 -0.5555 -0.6140
   52CHL1    H8 4969   4.344   5.354   3.151  2.5781  0.7742  0.4175
   52CHL1   C14 4970   4.230   5.506   3.262  0.3686  0.1855  0.4364
   52CHL1   H14 4971   4.159   5.588   3.240 -0.7351 -0.0868  2.8277
   52CHL1   C15 4972   4.343   5.569   3.341 -0.6837  0.0254  0.5822
   52CHL1  H15A 4973   4.431   5.502   3.356 -0.8553 -0.1688  0.7374
   52CHL1  H15B 4974   4.382   5.665   3.303  1.8856 -1.5490 -0.9160
   52CHL1   C16 4975   4.266   5.591   3.468  0.8839  0.4160  0.9009
   52CHL1  H16A 4976   4.339   5.561   3.547  2.8132  0.0281 -0.9866
   52CHL1  H16B 4977   4.231   5.697   3.467 -1.7580 -0.4155  0.4826
   52CHL1   C17 4978   4.143   5.491   3.481  0.0813 -0.6060  0.5640
   52CHL1   H17 4979   4.052   5.552   3.463 -0.8706 -1.5495  2.0473
   52CHL1   C13 4980   4.159   5.406   3.357 -0.3997 -1.0384  0.1429
   52CHL1   C18 4981   4.261   5.292   3.391  0.2798 -0.2704  0.5008
   52CHL1  H18A 4982   4.283   5.230   3.301  2.5815  0.3206  0.6210
   52CHL1  H18B 4983   4.359   5.324   3.433  0.1118 -2.4926  2.7539
   52CHL1  H18C 4984   4.224   5.209   3.456  0.0534 -2.5472 -2.4245
   52CHL1   C12 4985   4.030   5.361   3.285  0.2095 -0.4884  0.1105
   52CHL1  H12A 4986   3.970   5.285   3.340  0.8420  0.4294  2.1584
   52CHL1  H12B 4987   3.964   5.449   3.271  0.2032 -0.3557  0.9148
   52CHL1   C11 4988   4.050   5.293   3.154 -0.6389  0.8978  0.5167
   52CHL1  H11A 4989   4.102   5.198   3.181  0.6124  0.9416 -1.6488
   52CHL1  H11B 4990   3.953   5.282   3.100 -0.1379 -0.6180 -0.1175
   52CHL1    C9 4991   4.152   5.379   3.052 -0.0308  0.0513  0.0240
   52CHL1    H9 4992   4.096   5.474   3.038  0.8830  0.5015 -0.6408
   52CHL1   C10 4993   4.182   5.330   2.911 -0.0650 -0.5458  0.4896
   52CHL1   C19 4994   4.217   5.176   2.917 -0.2094 -0.2520 -0.2680
   52CHL1  H19A 4995   4.138   5.119   2.969 -1.4205  1.4978 -0.1397
   52CHL1  H19B 4996   4.231   5.139   2.813 -0.5513 -3.4154  0.7807
   52CHL1  H19C 4997   4.311   5.168   2.976  0.3672 -0.0029 -1.1408
   52CHL1    C1 4998   4.050   5.339   2.830 -0.2212 -0.1554  0.7503
   52CHL1   H1A 4999   3.972   5.268   2.867 -1.1554 -0.9631 -2.5407
   52CHL1   H1B 5000   4.017   5.445   2.832  0.7006  0.1403  0.2937
   52CHL1    C2 5001   4.069   5.304   2.677  0.3372 -0.0272  0.4723
   52CHL1   H2A 5002   3.983   5.336   2.615 -0.4346  0.4681  1.7836
   52CHL1   H2B 5003   4.077   5.195   2.662 -0.2040 -0.0369  0.2685
   52CHL1   C20 5004   4.126   5.425   3.621  0.7990 -0.1696 -0.4968
   52CHL1   H20 5005   4.217   5.365   3.641 -0.8349 -2.1430  1.2890
   52CHL1   C21 5006   4.007   5.322   3.627 -0.8868 -0.0889 -0.0301
   52CHL1  H21A 5007   3.908   5.370   3.612 -0.4164  2.0415  3.1159
   52CHL1  H21B 5008   4.000   5.289   3.733 -0.3608  0.4940  0.1906
   52CHL1  H21C 5009   4.030   5.229   3.569 -0.1893  0.6333 -0.9324
   52CHL1   C22 5010   4.120   5.536   3.736  0.8915 -0.5663 -0.4616
   52CHL1  H22A 5011   4.190   5.618   3.711  1.1376 -0.6908 -0.1729
   52CHL1  H22B 5012   4.012   5.563   3.739  1.1642  0.4231  0.6205
   52CHL1   C23 5013   4.153   5.474   3.878 -0.1736  0.1138 -0.0116
   52CHL1  H23A 5014   4.059   5.419   3.899  0.7375 -1.1093  0.9633
   52CHL1  H23B 5015   4.238   5.402   3.878 -0.9480 -0.8011 -0.8011
   52CHL1   C24 5016   4.172   5.577   3.985 -0.1215 -0.3433 -0.6592
   52CHL1  H24A 5017   4.243   5.656   3.952  0.6519 -0.2179  1.2329
   52CHL1  H24B 5018   4.078   5.633   4.002 -0.5809 -1.6691  1.2327
   52CHL1   C25 5019   4.216   5.517   4.119  0.6995 -0.1409  0.0944
   52CHL1   H25 5020   4.294   5.443   4.093  0.3417 -0.3457 -0.4015
   52CHL1   C26 5021   4.268   5.633   4.207 -0.0142 -0.1570 -0.0206
   52CHL1  H26A 5022   4.328   5.702   4.144 -0.4585  0.5409  0.3204
   52CHL1  H26B 5023   4.186   5.697   4.245 -2.0115 -2.0363 -1.0030
   52CHL1  H26C 5024   4.321   5.589   4.294  0.7298 -0.8985 -0.8381
   52CHL1   C27 5025   4.096   5.443   4.185  0.5907 -0.4025  0.5217
   52CHL1  H27A 5026   4.015   5.510   4.221  1.0405  0.2459  0.3345
   52CHL1  H27B 5027   4.056   5.361   4.121  0.9553  1.2793 -1.9461
   52CHL1  H27C 5028   4.131   5.378   4.268  1.8632  0.7947  0.9380
   53CHL1    C3 5029   3.579   5.449   2.455  0.2409  0.0030 -0.2571
   53CHL1    H3 5030   3.511   5.361   2.459  1.1206 -0.6395  0.8878
   53CHL1    O3 5031   3.601   5.490   2.323 -0.0593 -0.5429 -0.4083
   53CHL1   H3' 5032   3.620   5.584   2.328  0.6930 -0.5998 -1.8193
   53CHL1    C4 5033   3.532   5.574   2.535 -0.1901  0.1467 -0.1731
   53CHL1   H4A 5034   3.593   5.666   2.521 -0.2529  0.1370 -0.5086
   53CHL1   H4B 5035   3.434   5.587   2.485  0.0412 -1.4456 -1.0360
   53CHL1    C5 5036   3.511   5.555   2.683  0.7055 -0.3805  0.2279
   53CHL1    C6 5037   3.396   5.588   2.745 -0.0090 -0.3927 -0.3173
   53CHL1    H6 5038   3.319   5.645   2.692  0.2154 -0.4298 -0.6898
   53CHL1    C7 5039   3.371   5.571   2.892  0.1003  0.2566  1.6032
   53CHL1   H7A 5040   3.324   5.660   2.939  0.3656  1.5376 -0.5008
   53CHL1   H7B 5041   3.293   5.492   2.902  0.2225  0.3782  3.8772
   53CHL1    C8 5042   3.488   5.539   2.977 -0.0255  0.0417 -0.1126
   53CHL1    H8 5043   3.542   5.632   3.001 -0.1678 -0.0717  0.6453
   53CHL1   C14 5044   3.447   5.470   3.104 -0.1305 -0.8548  0.2957
   53CHL1   H14 5045   3.402   5.371   3.079 -0.6150 -0.2956 -1.1085
   53CHL1   C15 5046   3.334   5.534   3.182 -0.3023 -0.5090 -0.9278
   53CHL1  H15A 5047   3.346   5.644   3.169  1.5526 -0.5064  0.5327
   53CHL1  H15B 5048   3.233   5.515   3.141 -1.4360  0.2019  1.4661
   53CHL1   C16 5049   3.359   5.486   3.326 -0.3566  0.6386 -0.6875
   53CHL1  H16A 5050   3.374   5.575   3.389 -2.5390 -0.1363  0.9955
   53CHL1  H16B 5051   3.272   5.432   3.369  0.3710  0.6579  0.8313
   53CHL1   C17 5052   3.481   5.391   3.322  0.0764 -0.2106 -0.2076
   53CHL1   H17 5053   3.450   5.289   3.289 -1.8729  0.5711 -0.8132
   53CHL1   C13 5054   3.565   5.445   3.197  0.0516  0.0985 -0.8692
   53CHL1   C18 5055   3.644   5.575   3.232  0.4569  0.4384 -0.1459
   53CHL1  H18A 5056   3.681   5.628   3.141  0.2143  1.2902  0.2465
   53CHL1  H18B 5057   3.590   5.659   3.281 -1.4329 -1.1575  0.5430
   53CHL1  H18C 5058   3.724   5.547   3.304 -0.5931 -2.1608  0.0727
   53CHL1   C12 5059   3.651   5.345   3.124 -0.4582  0.0841  0.5310
   53CHL1  H12A 5060   3.739   5.311   3.183  0.3493  0.5201 -0.4328
   53CHL1  H12B 5061   3.591   5.254   3.105 -0.8118  1.0227 -3.2599
   53CHL1   C11 5062   3.703   5.404   2.988  0.5783  0.4224  0.0935
   53CHL1  H11A 5063   3.756   5.498   3.013  1.1099  0.2924 -0.5138
   53CHL1  H11B 5064   3.764   5.331   2.931 -0.8629  0.8257 -2.0416
   53CHL1    C9 5065   3.584   5.448   2.899 -0.3980  0.4731  0.3714
   53CHL1    H9 5066   3.518   5.362   2.877  1.1544 -0.8673  0.8860
   53CHL1   C10 5067   3.627   5.495   2.757 -0.1688 -0.6859  0.8032
   53CHL1   C19 5068   3.740   5.597   2.776 -0.1708 -0.6108  0.2511
   53CHL1  H19A 5069   3.759   5.659   2.686 -4.0994  2.5250  1.4525
   53CHL1  H19B 5070   3.720   5.669   2.858  3.3565 -2.1297  2.5843
   53CHL1  H19C 5071   3.841   5.554   2.797  0.7620 -0.1450 -2.9587
   53CHL1    C1 5072   3.689   5.376   2.678 -0.0076  0.3546 -0.3872
   53CHL1   H1A 5073   3.788   5.358   2.725 -0.0298  1.8077  0.2378
   53CHL1   H1B 5074   3.623   5.288   2.691  0.4875  0.1098  0.5037
   53CHL1    C2 5075   3.707   5.392   2.520  0.0490 -0.3458 -0.6706
   53CHL1   H2A 5076   3.738   5.296   2.472 -0.9762 -0.8750 -0.2885
   53CHL1   H2B 5077   3.788   5.468   2.510 -0.0556 -0.2649 -0.9251
   53CHL1   C20 5078   3.552   5.385   3.464 -0.5098  0.4031  0.4814
   53CHL1   H20 5079   3.596   5.481   3.501  0.9859 -0.2026  0.3322
   53CHL1   C21 5080   3.667   5.281   3.455 -0.1881  0.6462  0.5926
   53CHL1  H21A 5081   3.639   5.186   3.404  2.8985 -0.2236  0.4196
   53CHL1  H21B 5082   3.712   5.253   3.552  2.0022  0.7057 -0.3668
   53CHL1  H21C 5083   3.757   5.322   3.403  0.8182 -0.7731  1.1944
   53CHL1   C22 5084   3.454   5.346   3.572 -0.5259 -0.5189  0.4821
   53CHL1  H22A 5085   3.372   5.421   3.566 -1.1135 -1.2424 -0.9093
   53CHL1  H22B 5086   3.409   5.246   3.551  1.1774 -1.1569 -0.1741
   53CHL1   C23 5087   3.504   5.354   3.720  0.4383  0.2620 -0.5175
   53CHL1  H23A 5088   3.582   5.276   3.732  0.3657  0.1307 -0.8930
   53CHL1  H23B 5089   3.544   5.456   3.738  2.2097 -0.4803 -0.2236
   53CHL1   C24 5090   3.387   5.312   3.815 -0.5287  0.7916 -0.0966
   53CHL1  H24A 5091   3.301   5.382   3.806  0.7402  2.4177  0.1938
   53CHL1  H24B 5092   3.364   5.208   3.782  1.3404  1.2789 -3.1584
   53CHL1   C25 5093   3.431   5.322   3.961 -0.3153  0.2293  0.0660
   53CHL1   H25 5094   3.456   5.427   3.987  3.6596 -0.3443 -1.0308
   53CHL1   C26 5095   3.304   5.292   4.049  0.3140  0.0949  0.9266
   53CHL1  H26A 5096   3.323   5.298   4.158 -1.0578  0.6111  1.1533
   53CHL1  H26B 5097   3.237   5.372   4.009  0.3009 -0.3293  0.0858
   53CHL1  H26C 5098   3.262   5.191   4.031 -0.4712  1.1907 -4.4832
   53CHL1   C27 5099   3.538   5.215   3.990 -0.6260 -0.8490 -0.1458
   53CHL1  H27A 5100   3.515   5.116   3.946 -0.1220 -1.7060  1.4469
   53CHL1  H27B 5101   3.645   5.239   3.973 -0.0492 -1.7290  2.0135
   53CHL1  H27C 5102   3.551   5.203   4.100  2.6853  0.2252 -0.3865
   54CHL1    C3 5103   2.697   5.626   2.572  0.3967 -0.0125  0.0176
   54CHL1    H3 5104   2.622   5.705   2.589 -1.4201 -1.3119 -1.7954
   54CHL1    O3 5105   2.693   5.610   2.431 -0.3653  0.0388 -0.1500
   54CHL1   H3' 5106   2.691   5.516   2.412 -1.3114 -0.1367  0.8017
   54CHL1    C4 5107   2.834   5.678   2.614 -0.7093 -0.0737 -0.4870
   54CHL1   H4A 5108   2.908   5.599   2.588  0.5622  0.6776  0.7768
   54CHL1   H4B 5109   2.865   5.767   2.554 -0.7533 -0.8935 -1.7337
   54CHL1    C5 5110   2.837   5.712   2.762  0.0326 -0.8233  0.4216
   54CHL1    C6 5111   2.867   5.829   2.821  0.0199 -0.6491  0.1554
   54CHL1    H6 5112   2.885   5.916   2.757 -2.2211 -1.7087 -1.9746
   54CHL1    C7 5113   2.878   5.840   2.967  0.4272  0.5686 -0.0508
   54CHL1   H7A 5114   2.972   5.895   2.987  1.4832  0.0634 -3.3633
   54CHL1   H7B 5115   2.789   5.899   2.997 -2.4206 -2.8112 -1.5409
   54CHL1    C8 5116   2.883   5.723   3.063 -0.4109  0.0981  0.2135
   54CHL1    H8 5117   2.985   5.678   3.063  0.0766  1.1748  2.0210
   54CHL1   C14 5118   2.830   5.759   3.202  0.4255 -0.4028  0.5190
   54CHL1   H14 5119   2.722   5.783   3.201  0.2729 -1.0861  0.2952
   54CHL1   C15 5120   2.907   5.868   3.270  0.0305 -0.0806 -0.0670
   54CHL1  H15A 5121   3.016   5.856   3.251 -0.0016 -0.2663 -0.1306
   54CHL1  H15B 5122   2.869   5.968   3.242  1.4850  0.8825  1.2917
   54CHL1   C16 5123   2.887   5.854   3.424 -0.2772 -0.0990  0.1020
   54CHL1  H16A 5124   2.985   5.862   3.475  0.4980 -1.2572 -1.1442
   54CHL1  H16B 5125   2.816   5.934   3.452  1.2958  1.3516  0.0572
   54CHL1   C17 5126   2.825   5.714   3.438  0.5120  0.4259  0.3423
   54CHL1   H17 5127   2.716   5.728   3.452  0.4394  0.8983 -0.6331
   54CHL1   C13 5128   2.845   5.636   3.301 -0.6022  0.3244  0.7510
   54CHL1   C18 5129   2.987   5.572   3.314 -0.7650 -0.5856  0.0169
   54CHL1  H18A 5130   3.020   5.524   3.220 -0.2382  1.1048 -0.6773
   54CHL1  H18B 5131   3.061   5.644   3.354 -2.7912  0.9560  1.1313
   54CHL1  H18C 5132   2.977   5.487   3.386  1.9361  0.7740  2.0674
   54CHL1   C12 5133   2.749   5.529   3.253  0.6206 -0.4729  0.5785
   54CHL1  H12A 5134   2.739   5.438   3.316  1.1220 -1.6017 -0.9111
   54CHL1  H12B 5135   2.651   5.578   3.241  0.4089 -0.8394  0.8080
   54CHL1   C11 5136   2.780   5.491   3.103 -0.7910 -0.1345 -0.3571
   54CHL1  H11A 5137   2.869   5.425   3.108 -2.7479 -2.9529 -1.4041
   54CHL1  H11B 5138   2.699   5.423   3.069 -1.8525  0.1607  1.4810
   54CHL1    C9 5139   2.785   5.618   3.005  0.7185 -0.0169 -0.6294
   54CHL1    H9 5140   2.680   5.655   3.017  0.4634 -0.4451 -1.4972
   54CHL1   C10 5141   2.799   5.585   2.848  0.0705  0.9416  0.1193
   54CHL1   C19 5142   2.910   5.486   2.820 -0.0096  0.3225  0.5505
   54CHL1  H19A 5143   2.876   5.385   2.852  1.0860  0.6549  2.8782
   54CHL1  H19B 5144   2.927   5.461   2.713 -2.7698 -1.4534  0.4625
   54CHL1  H19C 5145   3.010   5.501   2.866 -0.3222  0.2646  1.2546
   54CHL1    C1 5146   2.660   5.528   2.793 -0.4425 -0.0558 -0.7096
   54CHL1   H1A 5147   2.627   5.437   2.849 -1.4180  0.7756  0.0880
   54CHL1   H1B 5148   2.577   5.601   2.806 -0.2452 -0.2703  2.0297
   54CHL1    C2 5149   2.667   5.495   2.644 -0.2920  0.0553  0.2325
   54CHL1   H2A 5150   2.565   5.461   2.615 -0.8475  1.4031  0.5667
   54CHL1   H2B 5151   2.734   5.413   2.611 -3.5488 -1.4530 -2.9114
   54CHL1   C20 5152   2.862   5.656   3.575  0.4447 -0.0626  0.2519
   54CHL1   H20 5153   2.971   5.634   3.578  1.3107  3.9200  0.8836
   54CHL1   C21 5154   2.781   5.527   3.598  0.4752 -0.1202 -0.2283
   54CHL1  H21A 5155   2.681   5.538   3.550  0.8101  1.4268 -0.6120
   54CHL1  H21B 5156   2.785   5.503   3.706  1.7532 -1.2490 -0.5263
   54CHL1  H21C 5157   2.832   5.441   3.549  1.6326  1.5568 -2.0555
   54CHL1   C22 5158   2.833   5.747   3.702 -0.4984 -0.2112 -0.8529
   54CHL1  H22A 5159   2.861   5.686   3.790  1.4501  1.9717  0.0973
   54CHL1  H22B 5160   2.892   5.841   3.707  0.7988 -1.0883  0.8661
   54CHL1   C23 5161   2.679   5.783   3.716 -0.0212 -0.1827 -0.1788
   54CHL1  H23A 5162   2.652   5.872   3.655  0.5918 -0.4943 -0.9154
   54CHL1  H23B 5163   2.609   5.709   3.673  1.2778 -0.8965 -1.1180
   54CHL1   C24 5164   2.646   5.797   3.868 -0.2005 -0.2472  0.0589
   54CHL1  H24A 5165   2.685   5.705   3.917  1.1987 -0.1417 -0.8144
   54CHL1  H24B 5166   2.706   5.882   3.906 -0.5080  1.0908 -2.3272
   54CHL1   C25 5167   2.504   5.828   3.910  0.7540 -0.2748 -0.2886
   54CHL1   H25 5168   2.460   5.897   3.834  2.4444  0.8626 -0.2666
   54CHL1   C26 5169   2.416   5.709   3.893  0.6652  0.2157 -0.1988
   54CHL1  H26A 5170   2.432   5.635   3.973  1.1504  1.8449  1.2346
   54CHL1  H26B 5171   2.312   5.745   3.910  1.1391  1.5239 -0.0332
   54CHL1  H26C 5172   2.427   5.658   3.795  0.7783 -0.3056  0.0837
   54CHL1   C27 5173   2.503   5.867   4.063 -0.5898 -0.3104  0.0933
   54CHL1  H27A 5174   2.403   5.882   4.107 -0.4182  0.3952  0.2414
   54CHL1  H27B 5175   2.558   5.789   4.121 -1.3869 -0.8122  0.1783
   54CHL1  H27C 5176   2.561   5.961   4.072  0.1229 -0.7744  0.4429
   55CHL1    C3 5177   5.368   2.328   2.469  0.5429 -0.7477  0.6289
   55CHL1    H3 5178   5.379   2.425   2.522  0.1556 -0.6317  0.4920
   55CHL1    O3 5179   5.398   2.346   2.333 -0.4287  0.3109  0.4742
   55CHL1   H3' 5180   5.384   2.259   2.294 -0.2304 -1.7212  4.6768
   55CHL1    C4 5181   5.472   2.244   2.528 -0.0329  0.3989  1.3266
   55CHL1   H4A 5182   5.479   2.160   2.456 -0.8668 -0.0369  1.7490
   55CHL1   H4B 5183   5.569   2.294   2.507  0.2759 -1.2798 -1.5184
   55CHL1    C5 5184   5.445   2.189   2.665 -0.2810 -0.0143 -0.3394
   55CHL1    C6 5185   5.533   2.206   2.764  0.4728 -0.0421  0.1988
   55CHL1    H6 5186   5.629   2.255   2.741  1.8124 -2.5621  0.2815
   55CHL1    C7 5187   5.519   2.166   2.903 -0.1959  1.2439  0.7368
   55CHL1   H7A 5188   5.612   2.111   2.929 -0.0776  1.0833 -0.0191
   55CHL1   H7B 5189   5.514   2.256   2.968  0.3101  0.6009  1.6591
   55CHL1    C8 5190   5.402   2.065   2.921  0.0859  0.3595  0.3732
   55CHL1    H8 5191   5.431   1.965   2.883 -2.0346 -0.3136  0.4963
   55CHL1   C14 5192   5.367   2.047   3.068  0.3764 -0.9010  0.3118
   55CHL1   H14 5193   5.352   2.150   3.107  2.7769 -0.1896 -0.5652
   55CHL1   C15 5194   5.475   1.994   3.157 -0.3009 -0.1597 -0.3407
   55CHL1  H15A 5195   5.519   1.905   3.109  0.2668  0.2356 -0.5609
   55CHL1  H15B 5196   5.550   2.071   3.186  0.4079 -1.6052  1.7738
   55CHL1   C16 5197   5.393   1.942   3.279 -0.7461 -0.5087 -0.6190
   55CHL1  H16A 5198   5.408   1.832   3.280 -1.2346 -0.6120  3.3845
   55CHL1  H16B 5199   5.414   1.992   3.376  2.6138 -1.0723 -0.9934
   55CHL1   C17 5200   5.241   1.958   3.245 -0.1954  0.1450 -0.0130
   55CHL1   H17 5201   5.210   2.055   3.289 -2.3448 -0.7987  0.6182
   55CHL1   C13 5202   5.243   1.965   3.094 -0.2626 -0.1086  0.5905
   55CHL1   C18 5203   5.254   1.823   3.035 -0.5812 -0.2996  0.0256
   55CHL1  H18A 5204   5.352   1.775   3.052 -1.0832 -1.2833  0.2101
   55CHL1  H18B 5205   5.185   1.741   3.067 -0.7898 -0.2785 -0.3725
   55CHL1  H18C 5206   5.236   1.832   2.926  0.8719  2.4759 -0.0151
   55CHL1   C12 5207   5.132   2.053   3.033 -0.5479 -0.0177 -0.1780
   55CHL1  H12A 5208   5.032   2.011   3.058  0.0732 -1.8210 -0.6480
   55CHL1  H12B 5209   5.128   2.153   3.081 -0.2152  1.0627 -2.3286
   55CHL1   C11 5210   5.136   2.075   2.884  0.3360 -0.2155  0.5838
   55CHL1  H11A 5211   5.111   1.979   2.833  2.1645  0.0874 -0.9308
   55CHL1  H11B 5212   5.056   2.147   2.854  1.2847  0.8199  0.5122
   55CHL1    C9 5213   5.280   2.125   2.844  0.6441 -0.3439 -0.3398
   55CHL1    H9 5214   5.272   2.232   2.872  1.0915 -0.3663 -0.1214
   55CHL1   C10 5215   5.302   2.136   2.691 -0.3355 -0.8166  0.3293
   55CHL1   C19 5216   5.301   2.002   2.618  0.4615 -0.0015 -0.4476
   55CHL1  H19A 5217   5.385   1.936   2.650  0.1671 -0.4441 -0.5801
   55CHL1  H19B 5218   5.204   1.952   2.640  0.6743  0.2356  1.0510
   55CHL1  H19C 5219   5.314   2.006   2.508  0.2662 -0.1484 -0.4769
   55CHL1    C1 5220   5.196   2.229   2.627  0.2488 -1.0835 -0.4621
   55CHL1   H1A 5221   5.095   2.182   2.629  0.1312 -0.8632 -1.0942
   55CHL1   H1B 5222   5.199   2.318   2.692  0.9744 -0.1215 -1.7844
   55CHL1    C2 5223   5.223   2.270   2.485  0.0474  0.5241 -0.8857
   55CHL1   H2A 5224   5.154   2.350   2.452  1.4406  1.8553 -0.6701
   55CHL1   H2B 5225   5.214   2.189   2.409 -1.6028 -0.0535 -0.0829
   55CHL1   C20 5226   5.150   1.859   3.322  0.2903  0.5357  0.1134
   55CHL1   H20 5227   5.170   1.757   3.283  0.0613  1.8393 -3.6422
   55CHL1   C21 5228   5.008   1.897   3.291  0.4302  0.6183 -0.2483
   55CHL1  H21A 5229   4.941   1.827   3.345 -0.2481 -0.3284 -2.2793
   55CHL1  H21B 5230   4.977   1.890   3.185 -0.2016  0.8854 -0.0888
   55CHL1  H21C 5231   4.989   1.998   3.336  3.3641  0.9744  0.2828
   55CHL1   C22 5232   5.183   1.853   3.474 -0.1018 -0.2143 -0.0344
   55CHL1  H22A 5233   5.291   1.850   3.499 -0.3670 -1.0233  1.0615
   55CHL1  H22B 5234   5.153   1.953   3.514 -0.4188 -0.6656  0.8582
   55CHL1   C23 5235   5.121   1.736   3.549 -0.7249 -0.5690  0.2430
   55CHL1  H23A 5236   5.011   1.739   3.538 -1.0879 -2.5299  2.7421
   55CHL1  H23B 5237   5.145   1.636   3.507 -0.0675  0.0079 -0.7580
   55CHL1   C24 5238   5.143   1.745   3.704  0.1797 -0.0465  0.0859
   55CHL1  H24A 5239   5.251   1.751   3.726  0.2118 -0.9743  0.2311
   55CHL1  H24B 5240   5.103   1.844   3.734 -2.1138 -0.4434 -1.4916
   55CHL1   C25 5241   5.084   1.630   3.781  0.0077 -0.4583 -0.0980
   55CHL1   H25 5242   5.106   1.538   3.724 -1.1480 -0.4638 -0.5613
   55CHL1   C26 5243   5.158   1.618   3.916 -0.1212 -0.0263 -0.2793
   55CHL1  H26A 5244   5.142   1.519   3.963 -0.5915 -0.7779 -1.9906
   55CHL1  H26B 5245   5.267   1.634   3.903 -0.1283 -0.4101 -0.7883
   55CHL1  H26C 5246   5.117   1.691   3.991 -1.3777  1.7610 -2.6343
   55CHL1   C27 5247   4.934   1.659   3.799 -0.0169  0.2271  0.1617
   55CHL1  H27A 5248   4.902   1.573   3.862  0.8612  1.9006  3.0164
   55CHL1  H27B 5249   4.917   1.746   3.866  1.3673  1.4050 -0.9848
   55CHL1  H27C 5250   4.882   1.681   3.704 -0.9868 -0.4878  0.5136
   56CHL1    C3 5251   6.005   4.045   2.631 -0.0231 -0.3615 -0.4896
   56CHL1    H3 5252   5.900   4.041   2.595  0.1442 -3.0657 -0.8005
   56CHL1    O3 5253   6.106   4.034   2.520 -0.1779 -0.3743  0.3154
   56CHL1   H3' 5254   6.104   3.941   2.497  0.4215 -0.3826  0.3011
   56CHL1    C4 5255   6.026   4.175   2.720 -0.0732  0.2569 -0.5413
   56CHL1   H4A 5256   6.129   4.168   2.762 -1.7921 -0.9896  3.7307
   56CHL1   H4B 5257   6.011   4.257   2.646 -2.2778 -0.2021 -0.6338
   56CHL1    C5 5258   5.925   4.175   2.834 -0.2875  0.7348  0.3903
   56CHL1    C6 5259   5.831   4.270   2.848 -0.4512 -0.5007  0.6726
   56CHL1    H6 5260   5.831   4.345   2.768  1.4949  0.5507  1.6234
   56CHL1    C7 5261   5.723   4.277   2.948 -0.1570  0.0917 -0.1133
   56CHL1   H7A 5262   5.699   4.382   2.976 -1.8769 -0.3973  0.3147
   56CHL1   H7B 5263   5.632   4.231   2.903 -1.7402  2.5349  0.4693
   56CHL1    C8 5264   5.754   4.185   3.079  0.4737  0.6325  0.3101
   56CHL1    H8 5265   5.840   4.234   3.129  2.6246 -1.1589 -1.5265
   56CHL1   C14 5266   5.641   4.172   3.173  0.3671 -0.0021  0.1252
   56CHL1   H14 5267   5.561   4.113   3.123 -0.1563 -0.7647  1.8350
   56CHL1   C15 5268   5.570   4.302   3.221  0.1396 -0.3444  0.7585
   56CHL1  H15A 5269   5.658   4.365   3.248  0.0101 -0.9105  2.5656
   56CHL1  H15B 5270   5.503   4.339   3.141 -1.5082  0.2400  2.3699
   56CHL1   C16 5271   5.487   4.253   3.348  0.2749  0.8275 -0.3721
   56CHL1  H16A 5272   5.508   4.326   3.429  2.3170  0.0903 -0.2302
   56CHL1  H16B 5273   5.378   4.270   3.328  0.7924  2.0944 -2.2703
   56CHL1   C17 5274   5.511   4.102   3.366  0.2381  0.4066 -0.4721
   56CHL1   H17 5275   5.446   4.038   3.301  0.2277 -0.8605  0.7714
   56CHL1   C13 5276   5.651   4.082   3.301 -0.1377 -0.0083  0.0436
   56CHL1   C18 5277   5.763   4.127   3.399 -0.2317  0.0405 -0.2489
   56CHL1  H18A 5278   5.775   4.046   3.474  0.3229  2.0187  1.8271
   56CHL1  H18B 5279   5.851   4.144   3.333 -1.0345  0.9198 -1.1168
   56CHL1  H18C 5280   5.736   4.222   3.449  0.0860  0.6090 -1.1461
   56CHL1   C12 5281   5.685   3.949   3.248  0.1678 -0.4162 -0.1612
   56CHL1  H12A 5282   5.715   3.883   3.332 -1.0916  0.7628  1.2441
   56CHL1  H12B 5283   5.601   3.896   3.198  1.1982 -1.0192 -1.3030
   56CHL1   C11 5284   5.805   3.951   3.154  0.6792 -0.0727  0.1080
   56CHL1  H11A 5285   5.897   3.969   3.214  0.7413 -0.5228  0.1524
   56CHL1  H11B 5286   5.817   3.851   3.108 -2.2783  0.4399 -1.8946
   56CHL1    C9 5287   5.798   4.048   3.032 -0.3672  0.1835 -0.0593
   56CHL1    H9 5288   5.714   4.012   2.969 -0.7411  1.1478 -0.1193
   56CHL1   C10 5289   5.921   4.052   2.935 -0.5643  0.0960  0.1772
   56CHL1   C19 5290   6.049   4.073   3.010  0.1615  0.6159 -0.8717
   56CHL1  H19A 5291   6.059   4.161   3.076 -0.2592 -1.8000  2.5619
   56CHL1  H19B 5292   6.056   3.988   3.081  0.7595  0.8987 -0.5898
   56CHL1  H19C 5293   6.134   4.069   2.938 -1.3567  0.9857 -2.7171
   56CHL1    C1 5294   5.927   3.922   2.849  0.4039  0.2690 -1.1471
   56CHL1   H1A 5295   5.963   3.841   2.917 -0.8774  0.0141 -0.7539
   56CHL1   H1B 5296   5.821   3.907   2.822  0.6731 -2.4504 -0.8102
   56CHL1    C2 5297   6.022   3.924   2.725  0.9392  0.2891  0.3209
   56CHL1   H2A 5298   6.009   3.827   2.671 -0.0409  0.0768  0.9344
   56CHL1   H2B 5299   6.130   3.922   2.754  0.6949 -1.2157  1.1726
   56CHL1   C20 5300   5.480   4.064   3.511  0.0171  0.7372 -0.0875
   56CHL1   H20 5301   5.543   4.117   3.585 -0.1012  0.0892  0.4824
   56CHL1   C21 5302   5.515   3.915   3.524  0.4640 -0.6186  0.7885
   56CHL1  H21A 5303   5.626   3.907   3.518  0.5395  1.6051 -1.2438
   56CHL1  H21B 5304   5.464   3.867   3.438  0.3605  0.7849  0.0720
   56CHL1  H21C 5305   5.478   3.878   3.622 -0.7941 -1.5760 -0.0327
   56CHL1   C22 5306   5.333   4.092   3.544 -0.1507 -0.3000 -0.0683
   56CHL1  H22A 5307   5.323   4.197   3.510  2.0480 -0.3336 -0.8937
   56CHL1  H22B 5308   5.255   4.031   3.493 -3.5055  2.6896  1.3242
   56CHL1   C23 5309   5.298   4.100   3.693  0.5741 -0.2945 -0.0759
   56CHL1  H23A 5310   5.288   3.992   3.719  2.4580 -1.1285 -2.6669
   56CHL1  H23B 5311   5.388   4.154   3.730 -0.8564  1.8339  0.3796
   56CHL1   C24 5312   5.171   4.180   3.721 -0.0513 -0.0063  0.9022
   56CHL1  H24A 5313   5.177   4.269   3.656 -1.8741 -1.0004 -0.6789
   56CHL1  H24B 5314   5.082   4.123   3.686  1.1550 -2.1261  1.2091
   56CHL1   C25 5315   5.150   4.213   3.875  0.0561  0.3236 -0.1338
   56CHL1   H25 5316   5.184   4.122   3.929 -1.6146  0.2194  0.7796
   56CHL1   C26 5317   5.234   4.337   3.921 -0.0870 -0.9710 -0.2854
   56CHL1  H26A 5318   5.343   4.319   3.922  0.1900  0.5911 -1.4307
   56CHL1  H26B 5319   5.212   4.424   3.855 -3.6445 -1.7232 -0.1847
   56CHL1  H26C 5320   5.212   4.342   4.030  2.4685 -0.6082  0.2508
   56CHL1   C27 5321   4.996   4.230   3.891 -0.1002  0.0923  0.3484
   56CHL1  H27A 5322   4.964   4.245   3.997 -2.9223 -2.6648 -0.0353
   56CHL1  H27B 5323   4.977   4.326   3.838 -0.3316 -0.6548 -0.9275
   56CHL1  H27C 5324   4.935   4.147   3.851 -1.4202  0.2491  2.0051
   57CHL1    C3 5325   4.830   1.791   2.473  1.0786 -0.1086  0.5126
   57CHL1    H3 5326   4.832   1.690   2.428 -0.2406 -0.3385  0.9497
   57CHL1    O3 5327   4.834   1.889   2.373  0.0937  0.0607 -0.2881
   57CHL1   H3' 5328   4.909   1.872   2.316 -0.2776 -1.3870 -0.3599
   57CHL1    C4 5329   4.700   1.808   2.552  0.4434 -0.9101  0.4151
   57CHL1   H4A 5330   4.686   1.916   2.573 -0.4325 -0.5548 -1.8567
   57CHL1   H4B 5331   4.615   1.786   2.484 -0.8634  1.7048  1.1491
   57CHL1    C5 5332   4.700   1.707   2.666  0.3491  0.6673 -0.2097
   57CHL1    C6 5333   4.603   1.617   2.688  0.4392 -0.1757 -0.1767
   57CHL1    H6 5334   4.518   1.617   2.619 -0.4387 -4.2239  0.7576
   57CHL1    C7 5335   4.587   1.533   2.809 -0.0865 -0.2453 -0.5758
   57CHL1   H7A 5336   4.481   1.533   2.842  0.0161 -2.1124 -0.2188
   57CHL1   H7B 5337   4.623   1.429   2.800  1.4055  0.3816 -2.3386
   57CHL1    C8 5338   4.666   1.585   2.930 -0.4279 -0.0114 -0.8916
   57CHL1    H8 5339   4.621   1.682   2.959 -1.5746  0.7001 -4.7312
   57CHL1   C14 5340   4.669   1.482   3.042  0.5367 -0.0693 -0.3686
   57CHL1   H14 5341   4.718   1.390   3.004  0.3651  0.2495 -1.3858
   57CHL1   C15 5342   4.533   1.427   3.103  0.8395  0.4005  0.0197
   57CHL1  H15A 5343   4.478   1.515   3.145  0.5250  1.4538 -2.4978
   57CHL1  H15B 5344   4.478   1.374   3.023  2.9625  0.5529 -1.5785
   57CHL1   C16 5345   4.593   1.328   3.213 -0.7357  0.2647  0.0858
   57CHL1  H16A 5346   4.527   1.325   3.303 -1.9364 -0.1341 -0.8013
   57CHL1  H16B 5347   4.599   1.227   3.167 -3.0644  0.4520 -0.6883
   57CHL1   C17 5348   4.728   1.393   3.251  0.5998  0.0393  0.5484
   57CHL1   H17 5349   4.809   1.320   3.230 -1.9632 -3.0487  1.0982
   57CHL1   C13 5350   4.758   1.514   3.162  0.3055  0.6783 -0.0825
   57CHL1   C18 5351   4.698   1.647   3.224  0.1272  0.1947 -0.6681
   57CHL1  H18A 5352   4.755   1.694   3.307 -0.0723 -0.4369 -0.1672
   57CHL1  H18B 5353   4.685   1.728   3.149 -1.4340  0.7517  0.1810
   57CHL1  H18C 5354   4.600   1.639   3.275 -0.1744  2.3123 -0.8543
   57CHL1   C12 5355   4.901   1.536   3.115  0.6172 -0.2471  0.5871
   57CHL1  H12A 5356   4.961   1.569   3.203  0.0735  1.1478  0.4385
   57CHL1  H12B 5357   4.942   1.441   3.074  2.7643  0.5993  0.6988
   57CHL1   C11 5358   4.909   1.634   2.995 -0.4769  0.3670 -0.4238
   57CHL1  H11A 5359   4.882   1.729   3.047 -0.4451  0.8241 -1.2212
   57CHL1  H11B 5360   5.012   1.641   2.952  0.8789 -2.5279  2.1954
   57CHL1    C9 5361   4.811   1.617   2.881  0.2695  0.7240 -0.2571
   57CHL1    H9 5362   4.835   1.519   2.836 -1.3703  0.9461 -1.6904
   57CHL1   C10 5363   4.819   1.727   2.771  0.1745  0.3743 -0.9138
   57CHL1   C19 5364   4.810   1.871   2.832  0.4649 -0.3140  0.7772
   57CHL1  H19A 5365   4.793   1.946   2.752 -0.3008  0.3909  1.5859
   57CHL1  H19B 5366   4.712   1.863   2.884 -0.2662 -2.0357 -0.8355
   57CHL1  H19C 5367   4.892   1.886   2.906  2.2097 -3.6834 -0.3899
   57CHL1    C1 5368   4.951   1.721   2.692  0.1840  0.5191 -0.6937
   57CHL1   H1A 5369   5.041   1.752   2.749  0.3340 -0.6595 -0.2750
   57CHL1   H1B 5370   4.976   1.620   2.652 -1.8316 -0.3599  0.2157
   57CHL1    C2 5371   4.951   1.814   2.565 -0.6537 -0.5226  0.2742
   57CHL1   H2A 5372   5.053   1.815   2.520  0.8381  1.4740  3.5359
   57CHL1   H2B 5373   4.940   1.917   2.605  0.6391 -0.1631 -0.2693
   57CHL1   C20 5374   4.746   1.415   3.407 -0.0270  0.1817  0.0392
   57CHL1   H20 5375   4.669   1.484   3.447  1.0539  0.0949  2.3772
   57CHL1   C21 5376   4.877   1.481   3.454 -0.4380  0.3496  0.1866
   57CHL1  H21A 5377   4.969   1.422   3.435  0.1301  1.1886  0.3438
   57CHL1  H21B 5378   4.881   1.498   3.564 -0.1355 -3.1030  0.7837
   57CHL1  H21C 5379   4.896   1.583   3.414  0.0624  0.2871  0.2637
   57CHL1   C22 5380   4.720   1.288   3.501  0.1378 -0.5012 -0.3604
   57CHL1  H22A 5381   4.695   1.328   3.602  0.9457 -1.3925  0.1974
   57CHL1  H22B 5382   4.635   1.225   3.469 -0.2372 -0.8116  1.2260
   57CHL1   C23 5383   4.840   1.195   3.522  0.0158  0.4046  0.5782
   57CHL1  H23A 5384   4.883   1.156   3.428 -1.9377 -3.6878  1.2485
   57CHL1  H23B 5385   4.916   1.253   3.578  0.4658  1.9348 -1.5742
   57CHL1   C24 5386   4.803   1.079   3.620  1.0377 -0.3331  0.0607
   57CHL1  H24A 5387   4.747   1.114   3.709  0.7298 -0.0208 -0.2550
   57CHL1  H24B 5388   4.743   1.001   3.567 -0.1162 -0.4553  1.5158
   57CHL1   C25 5389   4.928   0.999   3.674 -0.1959 -0.5568 -0.2426
   57CHL1   H25 5390   4.999   0.987   3.589 -0.5849  0.3072 -0.6972
   57CHL1   C26 5391   4.997   1.067   3.789 -0.2851 -0.6153 -0.4467
   57CHL1  H26A 5392   5.021   1.171   3.761  1.7320 -1.1311 -0.6655
   57CHL1  H26B 5393   4.927   1.076   3.876 -0.3467  0.2050 -0.5770
   57CHL1  H26C 5394   5.080   0.999   3.820  1.1901 -0.2958 -3.5609
   57CHL1   C27 5395   4.878   0.865   3.724  0.5122  0.2967  0.3883
   57CHL1  H27A 5396   4.960   0.816   3.781 -0.2959 -0.8567  0.5718
   57CHL1  H27B 5397   4.782   0.864   3.779 -0.1635  0.0613 -0.7836
   57CHL1  H27C 5398   4.867   0.808   3.630 -2.7349  1.0313  0.2913
   58CHL1    C3 5399   6.121   2.112   2.593 -0.2609 -0.0845 -0.3965
   58CHL1    H3 5400   6.172   2.014   2.587  1.0173  0.6297 -1.3798
   58CHL1    O3 5401   6.133   2.176   2.468 -0.0008 -0.0102  0.1517
   58CHL1   H3' 5402   6.224   2.204   2.467 -0.2359  0.7625 -1.3250
   58CHL1    C4 5403   5.970   2.077   2.625 -0.1833  0.1234  0.4632
   58CHL1   H4A 5404   5.917   2.173   2.613 -0.4207  0.0881  1.1893
   58CHL1   H4B 5405   5.946   2.009   2.541  0.5606  1.1920 -0.6336
   58CHL1    C5 5406   5.938   2.028   2.765 -0.4673  0.3935 -0.0805
   58CHL1    C6 5407   5.859   1.922   2.786  0.2374  0.0485  0.0371
   58CHL1    H6 5408   5.803   1.884   2.699  0.5474 -0.6831  0.1538
   58CHL1    C7 5409   5.836   1.855   2.918 -0.2841 -0.1835  0.5599
   58CHL1   H7A 5410   5.729   1.825   2.923 -1.1648  2.2960 -2.4820
   58CHL1   H7B 5411   5.889   1.757   2.911  3.2193  1.7784 -1.6586
   58CHL1    C8 5412   5.876   1.939   3.043 -0.5244 -0.9299  0.1064
   58CHL1    H8 5413   5.804   2.022   3.062  0.1291 -0.4064  0.3101
   58CHL1   C14 5414   5.897   1.854   3.171 -0.0217  0.2917 -0.2222
   58CHL1   H14 5415   5.980   1.784   3.148  1.2226  2.1973 -1.7963
   58CHL1   C15 5416   5.783   1.763   3.210 -0.4350 -0.7267 -0.2863
   58CHL1  H15A 5417   5.687   1.819   3.208 -1.3842 -2.2502  1.4623
   58CHL1  H15B 5418   5.768   1.677   3.142 -1.1159 -0.4979 -0.4266
   58CHL1   C16 5419   5.813   1.724   3.355 -0.4814  0.1866  0.1385
   58CHL1  H16A 5420   5.732   1.769   3.415  0.5028 -0.0102  1.6414
   58CHL1  H16B 5421   5.807   1.615   3.372 -3.2417  0.5214  1.5269
   58CHL1   C17 5422   5.939   1.802   3.395 -0.3977 -0.4016 -0.0304
   58CHL1   H17 5423   6.025   1.741   3.361  0.2848 -0.2602  1.3998
   58CHL1   C13 5424   5.940   1.928   3.303  0.3857 -0.0573  0.2340
   58CHL1   C18 5425   5.839   2.032   3.353 -0.4767  0.4358  0.4205
   58CHL1  H18A 5426   5.810   2.089   3.262 -0.0021 -2.6428 -1.7536
   58CHL1  H18B 5427   5.746   1.985   3.390 -0.2691  0.0455  0.4461
   58CHL1  H18C 5428   5.879   2.091   3.438 -0.7116  2.5795 -0.9189
   58CHL1   C12 5429   6.079   1.996   3.272 -0.9811 -0.4098 -0.1513
   58CHL1  H12A 5430   6.110   2.062   3.356 -2.3331 -1.7162  1.3806
   58CHL1  H12B 5431   6.160   1.923   3.250 -0.6301 -0.2346  0.5494
   58CHL1   C11 5432   6.059   2.089   3.144 -0.9865  0.5531 -0.2387
   58CHL1  H11A 5433   5.981   2.165   3.161 -2.2820 -1.1705  1.8019
   58CHL1  H11B 5434   6.156   2.143   3.138 -1.6869  1.9561  0.8566
   58CHL1    C9 5435   6.011   2.009   3.017 -0.3434  0.9247  0.3364
   58CHL1    H9 5436   6.085   1.930   2.991 -0.4242  1.4917 -1.7343
   58CHL1   C10 5437   6.016   2.097   2.883 -0.1464  0.4579 -0.3595
   58CHL1   C19 5438   5.945   2.229   2.905  0.5212 -0.2035 -0.1638
   58CHL1  H19A 5439   5.945   2.284   2.808 -1.0249 -1.4558 -0.8891
   58CHL1  H19B 5440   5.841   2.221   2.944 -0.6346 -1.9408 -3.4699
   58CHL1  H19C 5441   6.003   2.291   2.977  0.0666 -0.3141  0.3059
   58CHL1    C1 5442   6.164   2.119   2.842 -0.9219  0.4270 -0.4384
   58CHL1   H1A 5443   6.221   2.185   2.910 -1.3865  0.6346 -0.2480
   58CHL1   H1B 5444   6.217   2.022   2.833 -0.1448  0.7898  0.1629
   58CHL1    C2 5445   6.171   2.198   2.707  0.8280 -0.3487  0.2925
   58CHL1   H2A 5446   6.279   2.223   2.707  0.2961  2.0688 -0.0358
   58CHL1   H2B 5447   6.107   2.289   2.705 -2.0558 -2.2264  2.6468
   58CHL1   C20 5448   5.945   1.832   3.549 -0.2771  0.6045 -0.1006
   58CHL1   H20 5449   5.856   1.893   3.573 -1.5051 -0.8620 -0.8317
   58CHL1   C21 5450   6.075   1.909   3.583 -0.4323 -0.0505 -0.8732
   58CHL1  H21A 5451   6.155   1.847   3.537 -1.1390  0.0698 -2.2907
   58CHL1  H21B 5452   6.106   1.908   3.690  0.3394 -1.1780 -1.1054
   58CHL1  H21C 5453   6.077   2.013   3.543  0.0045  0.8613  1.4404
   58CHL1   C22 5454   5.921   1.707   3.643  0.0855  0.3940 -0.1297
   58CHL1  H22A 5455   5.948   1.739   3.746  1.0263  0.8258 -0.5002
   58CHL1  H22B 5456   5.815   1.676   3.633  0.5907 -0.7579 -2.0480
   58CHL1   C23 5457   6.001   1.580   3.605  0.3148 -0.2415 -0.6802
   58CHL1  H23A 5458   5.954   1.534   3.516  0.0445 -0.7329 -0.2852
   58CHL1  H23B 5459   6.106   1.611   3.587  0.9258 -2.1857 -0.4812
   58CHL1   C24 5460   6.004   1.476   3.716  0.7593  0.0006  0.0627
   58CHL1  H24A 5461   6.050   1.502   3.814 -1.6802  1.4486  0.8462
   58CHL1  H24B 5462   5.900   1.442   3.734  0.1219  2.3730  0.9122
   58CHL1   C25 5463   6.071   1.341   3.668  0.3089 -0.4624  0.3571
   58CHL1   H25 5464   6.028   1.330   3.567 -0.9024 -0.8758  0.9008
   58CHL1   C26 5465   6.224   1.352   3.670 -0.2746 -0.0680 -0.5424
   58CHL1  H26A 5466   6.276   1.268   3.619 -0.7991 -1.9612  1.9115
   58CHL1  H26B 5467   6.256   1.446   3.621 -2.7439  0.7658 -0.5957
   58CHL1  H26C 5468   6.267   1.352   3.773 -0.6041 -1.3468 -0.3885
   58CHL1   C27 5469   6.038   1.209   3.744 -0.1076 -0.1686  0.7627
   58CHL1  H27A 5470   5.931   1.183   3.726 -0.3514  0.8569  0.6644
   58CHL1  H27B 5471   6.097   1.124   3.704  0.7340 -0.0184  1.6721
   58CHL1  H27C 5472   6.048   1.211   3.855 -1.9102  1.1561  0.9353
   59CHL1    C3 5473   4.352   0.906   2.581 -0.0165  0.8165  0.3082
   59CHL1    H3 5474   4.250   0.861   2.588  0.5573 -0.3930  1.0983
   59CHL1    O3 5475   4.387   0.928   2.446 -0.3009  0.2633  0.3710
   59CHL1   H3' 5476   4.356   0.851   2.398 -1.9782  0.5913  0.8966
   59CHL1    C4 5477   4.381   1.039   2.656  0.5611 -0.2983  0.4669
   59CHL1   H4A 5478   4.488   1.062   2.638  0.6319 -1.9581 -1.4248
   59CHL1   H4B 5479   4.330   1.127   2.611 -0.6232 -2.2377 -2.1606
   59CHL1    C5 5480   4.351   1.033   2.801  0.1175 -0.6523  0.1619
   59CHL1    C6 5481   4.286   1.136   2.860  0.2921 -0.9339 -0.4800
   59CHL1    H6 5482   4.250   1.222   2.803  0.7992 -0.3172  0.1251
   59CHL1    C7 5483   4.256   1.134   3.007 -0.7061  0.1170 -0.0553
   59CHL1   H7A 5484   4.289   1.231   3.050 -1.7006 -0.0375  1.1074
   59CHL1   H7B 5485   4.146   1.138   3.026 -0.3897  2.0404  1.6218
   59CHL1    C8 5486   4.329   1.022   3.091 -1.1903 -0.2515 -0.7331
   59CHL1    H8 5487   4.432   1.052   3.118 -1.5229  1.3559 -1.1649
   59CHL1   C14 5488   4.261   1.000   3.227  0.1691  0.4804 -0.9880
   59CHL1   H14 5489   4.165   0.955   3.193  0.2542 -0.4716  0.0393
   59CHL1   C15 5490   4.248   1.117   3.323 -0.7749  0.0148 -0.6091
   59CHL1  H15A 5491   4.343   1.174   3.318 -1.8832  2.0181  0.3871
   59CHL1  H15B 5492   4.164   1.185   3.294  0.3179  0.4659 -2.8695
   59CHL1   C16 5493   4.228   1.056   3.465  0.1145  0.0711  0.1285
   59CHL1  H16A 5494   4.304   1.096   3.535 -2.8774  0.9532  3.0051
   59CHL1  H16B 5495   4.131   1.091   3.506 -0.6975 -0.0773 -1.6341
   59CHL1   C17 5496   4.242   0.903   3.448  0.5522 -0.1923 -0.9362
   59CHL1   H17 5497   4.149   0.864   3.402 -0.5673  1.3514 -0.0338
   59CHL1   C13 5498   4.327   0.887   3.318  0.7023  0.6808  0.7612
   59CHL1   C18 5499   4.475   0.899   3.353  0.6102 -0.2762 -0.3409
   59CHL1  H18A 5500   4.495   0.809   3.415  0.1037 -0.9795 -1.2003
   59CHL1  H18B 5501   4.534   0.909   3.260  0.8590 -2.8190 -0.4776
   59CHL1  H18C 5502   4.489   0.992   3.414  2.1919 -0.5226 -0.3080
   59CHL1   C12 5503   4.317   0.759   3.240  0.1678  1.0544  0.4818
   59CHL1  H12A 5504   4.374   0.671   3.275  0.6058  1.2935  0.3796
   59CHL1  H12B 5505   4.213   0.727   3.218  0.4560  0.4194  0.0207
   59CHL1   C11 5506   4.365   0.763   3.092 -0.2707 -0.0204  0.7798
   59CHL1  H11A 5507   4.475   0.760   3.085 -0.3609  1.0054 -1.9427
   59CHL1  H11B 5508   4.314   0.673   3.049 -1.2069  1.0910 -0.4958
   59CHL1    C9 5509   4.321   0.891   3.010 -0.2846 -0.0252 -0.2376
   59CHL1    H9 5510   4.215   0.864   2.993 -0.2934 -0.4902  0.5121
   59CHL1   C10 5511   4.399   0.908   2.871 -0.9389  0.2289 -0.2826
   59CHL1   C19 5512   4.554   0.946   2.894 -0.0273 -0.2369 -0.4145
   59CHL1  H19A 5513   4.570   1.040   2.951 -0.2610 -0.9172  0.7889
   59CHL1  H19B 5514   4.617   0.865   2.939 -0.6956  1.0826  3.0444
   59CHL1  H19C 5515   4.604   0.966   2.797 -0.9562 -3.2194 -1.5837
   59CHL1    C1 5516   4.388   0.773   2.788 -0.2144  0.3017 -0.0150
   59CHL1   H1A 5517   4.453   0.699   2.841  0.3304  0.7260 -0.0913
   59CHL1   H1B 5518   4.281   0.746   2.777  0.5523 -4.2714  2.2519
   59CHL1    C2 5519   4.441   0.795   2.644  0.1101  0.4639  0.3933
   59CHL1   H2A 5520   4.437   0.700   2.585 -0.3747 -0.4839  1.9312
   59CHL1   H2B 5521   4.545   0.833   2.650 -0.8005  3.2216 -0.6422
   59CHL1   C20 5522   4.273   0.819   3.564 -0.3294  0.0758  0.2650
   59CHL1   H20 5523   4.322   0.723   3.538  1.2339  1.1199 -0.6853
   59CHL1   C21 5524   4.135   0.795   3.631  0.2376  0.1659  0.2318
   59CHL1  H21A 5525   4.049   0.774   3.564  1.6900 -1.7178 -1.0647
   59CHL1  H21B 5526   4.120   0.882   3.699 -0.3416 -1.5948  2.4280
   59CHL1  H21C 5527   4.149   0.709   3.699  0.9539  1.0533  1.2299
   59CHL1   C22 5528   4.367   0.872   3.670  0.3078 -0.3600 -0.3529
   59CHL1  H22A 5529   4.465   0.902   3.628  0.1002 -2.9465 -2.8410
   59CHL1  H22B 5530   4.322   0.963   3.714  0.2956  0.6697 -2.4302
   59CHL1   C23 5531   4.402   0.768   3.775 -0.0737  0.4305  0.4624
   59CHL1  H23A 5532   4.463   0.840   3.834  2.9393 -1.4840 -0.2464
   59CHL1  H23B 5533   4.310   0.732   3.825  0.0632  0.5434  0.7927
   59CHL1   C24 5534   4.499   0.653   3.735 -0.1301  0.5904 -0.3305
   59CHL1  H24A 5535   4.465   0.598   3.645  0.0668 -0.8442  0.4603
   59CHL1  H24B 5536   4.591   0.708   3.706 -0.3058  0.4681 -1.1247
   59CHL1   C25 5537   4.523   0.551   3.844 -0.4799  0.0161 -0.5364
   59CHL1   H25 5538   4.435   0.487   3.864 -0.7635  0.0737 -1.5716
   59CHL1   C26 5539   4.635   0.452   3.809  0.9742  0.4058  0.8588
   59CHL1  H26A 5540   4.735   0.498   3.816  0.9694  0.5035  0.3138
   59CHL1  H26B 5541   4.624   0.356   3.865 -3.0331  1.1675  1.5406
   59CHL1  H26C 5542   4.618   0.413   3.706 -3.6563 -0.3267  1.7908
   59CHL1   C27 5543   4.575   0.623   3.968 -0.5463  0.7944 -0.5754
   59CHL1  H27A 5544   4.609   0.552   4.047  0.8570  2.9704  0.8464
   59CHL1  H27B 5545   4.665   0.680   3.939 -0.7709  1.7180  0.5158
   59CHL1  H27C 5546   4.503   0.688   4.022 -0.2186  0.3641  0.4112
   60CHL1    C3 5547   5.139   6.821   2.524  0.9004 -0.4370 -0.9663
   60CHL1    H3 5548   5.249   6.827   2.529  0.8427  0.4794 -0.8273
   60CHL1    O3 5549   5.105   6.873   2.393  0.3507 -0.3021  0.2883
   60CHL1   H3' 5550   5.009   6.866   2.395  0.3348 -0.0325  0.4692
   60CHL1    C4 5551   5.100   6.669   2.534 -0.3871 -0.5566 -0.3963
   60CHL1   H4A 5552   5.000   6.657   2.487 -1.2076  1.9262  0.6509
   60CHL1   H4B 5553   5.177   6.616   2.473 -1.8175 -3.1154 -0.0205
   60CHL1    C5 5554   5.092   6.617   2.674 -0.0218  0.7301 -0.3031
   60CHL1    C6 5555   5.132   6.497   2.708 -0.9382  0.3132  1.1891
   60CHL1    H6 5556   5.195   6.434   2.643 -0.8907 -1.4692  2.8954
   60CHL1    C7 5557   5.097   6.439   2.837 -0.7187 -0.0110  0.2896
   60CHL1   H7A 5558   5.087   6.329   2.826 -0.1061  0.0190 -0.6194
   60CHL1   H7B 5559   5.187   6.458   2.901  1.7179 -1.6737 -2.5151
   60CHL1    C8 5560   4.969   6.510   2.919 -0.0082 -0.3085 -0.3188
   60CHL1    H8 5561   4.879   6.478   2.861 -0.2948  0.6643 -0.4140
   60CHL1   C14 5562   4.985   6.457   3.063 -0.0986  1.1147 -0.3527
   60CHL1   H14 5563   5.074   6.496   3.117  1.0736 -1.3964 -0.3839
   60CHL1   C15 5564   4.986   6.307   3.088  0.1612 -0.1831  0.2661
   60CHL1  H15A 5565   4.906   6.253   3.034  1.7967 -2.7299  0.3113
   60CHL1  H15B 5566   5.086   6.259   3.076  0.7430  1.6297 -2.4647
   60CHL1   C16 5567   4.940   6.297   3.235  0.2128  0.3266  0.3288
   60CHL1  H16A 5568   4.844   6.242   3.240  1.4683 -1.7759  2.6920
   60CHL1  H16B 5569   5.015   6.260   3.308 -0.5155  0.2859  1.0734
   60CHL1   C17 5570   4.895   6.440   3.284 -0.1820 -0.0271 -0.4220
   60CHL1   H17 5571   4.983   6.481   3.337 -0.7791 -0.1479  0.6771
   60CHL1   C13 5572   4.874   6.513   3.152 -0.0238  0.1954  0.0809
   60CHL1   C18 5573   4.733   6.483   3.095  0.7789  0.9985 -0.1080
   60CHL1  H18A 5574   4.692   6.384   3.126  1.4795  0.4335 -0.9662
   60CHL1  H18B 5575   4.668   6.568   3.125  0.0007  1.3265 -2.6066
   60CHL1  H18C 5576   4.732   6.483   2.984 -0.5590 -0.1107 -0.1126
   60CHL1   C12 5577   4.894   6.667   3.157  0.5674 -0.2174 -0.4119
   60CHL1  H12A 5578   4.811   6.722   3.207  2.8378  1.3443  1.7354
   60CHL1  H12B 5579   4.987   6.681   3.215  0.1662  1.3932 -0.1474
   60CHL1   C11 5580   4.900   6.729   3.014 -0.4326 -0.1367 -0.3334
   60CHL1  H11A 5581   4.796   6.718   2.977 -0.0193 -2.3055 -0.9131
   60CHL1  H11B 5582   4.918   6.839   3.012  2.9442 -0.6057  0.3794
   60CHL1    C9 5583   5.003   6.655   2.918  0.3074  0.5431  0.8326
   60CHL1    H9 5584   5.102   6.676   2.964  0.9485 -0.5094 -0.0612
   60CHL1   C10 5585   5.006   6.703   2.765  0.3999  0.4085  0.5696
   60CHL1   C19 5586   4.863   6.714   2.712  0.3001 -0.1387  0.1636
   60CHL1  H19A 5587   4.803   6.789   2.767  0.9692  0.1695  0.4763
   60CHL1  H19B 5588   4.865   6.755   2.609  1.2636  1.2077  0.7142
   60CHL1  H19C 5589   4.805   6.619   2.711 -0.2537  0.1493  1.9619
   60CHL1    C1 5590   5.070   6.846   2.768 -0.2301 -0.3717 -0.2987
   60CHL1   H1A 5591   5.023   6.912   2.844 -1.8005 -1.3963 -0.3570
   60CHL1   H1B 5592   5.173   6.828   2.806 -0.3178  0.7329  0.4663
   60CHL1    C2 5593   5.077   6.916   2.635  0.3830 -0.6919  0.2730
   60CHL1   H2A 5594   5.147   7.002   2.637 -2.5058  1.7502  0.6963
   60CHL1   H2B 5595   4.976   6.947   2.600  0.6419 -1.1053 -0.8759
   60CHL1   C20 5596   4.782   6.436   3.380 -0.4993 -0.3601  0.1691
   60CHL1   H20 5597   4.687   6.401   3.334 -0.5638  0.3468 -0.2410
   60CHL1   C21 5598   4.773   6.571   3.452 -0.1351  0.1958 -0.3166
   60CHL1  H21A 5599   4.694   6.572   3.531 -0.0763 -2.4177 -0.1816
   60CHL1  H21B 5600   4.745   6.650   3.379 -1.6406  1.4164  1.5028
   60CHL1  H21C 5601   4.863   6.599   3.510 -0.2443  0.5941 -0.3374
   60CHL1   C22 5602   4.808   6.319   3.481 -0.1137  0.3497 -0.4957
   60CHL1  H22A 5603   4.825   6.224   3.428 -1.0293 -0.5412  0.7752
   60CHL1  H22B 5604   4.899   6.348   3.538  0.0476  0.4958 -0.8257
   60CHL1   C23 5605   4.691   6.285   3.582  0.0588 -0.0643 -0.0677
   60CHL1  H23A 5606   4.665   6.383   3.627 -0.2646  0.2095 -0.8295
   60CHL1  H23B 5607   4.605   6.237   3.531  0.8415 -2.7963  1.0883
   60CHL1   C24 5608   4.735   6.190   3.700  0.3065 -0.1477  0.5447
   60CHL1  H24A 5609   4.638   6.175   3.751 -1.3969 -0.0807 -2.5072
   60CHL1  H24B 5610   4.769   6.091   3.660  1.1439 -0.5485  2.2030
   60CHL1   C25 5611   4.853   6.231   3.794  0.8569  0.2592  0.3696
   60CHL1   H25 5612   4.937   6.237   3.722 -2.0528 -0.1875 -3.2516
   60CHL1   C26 5613   4.814   6.356   3.861  0.2423  0.0128 -0.7929
   60CHL1  H26A 5614   4.718   6.350   3.916  0.1141 -0.5439 -1.0762
   60CHL1  H26B 5615   4.901   6.378   3.927 -0.5193 -3.4358  1.5106
   60CHL1  H26C 5616   4.800   6.449   3.803  0.2326  0.7312  0.3422
   60CHL1   C27 5617   4.875   6.115   3.895 -0.4838  0.1904 -0.1631
   60CHL1  H27A 5618   4.956   6.151   3.962  0.8989  0.5007 -1.9693
   60CHL1  H27B 5619   4.784   6.089   3.954  0.4394 -2.4602  0.1390
   60CHL1  H27C 5620   4.914   6.027   3.840 -0.3851  0.6047 -0.7559
   61CHL1    C3 5621   6.699   2.561   2.608 -0.2000  0.1176  0.0755
   61CHL1    H3 5622   6.804   2.529   2.627 -0.7608 -1.3592  0.7742
   61CHL1    O3 5623   6.679   2.608   2.474  0.2059 -0.0857 -0.0268
   61CHL1   H3' 5624   6.591   2.646   2.473  0.3495  0.2428 -0.2362
   61CHL1    C4 5625   6.610   2.427   2.617  0.0794  0.6847  0.4967
   61CHL1   H4A 5626   6.510   2.448   2.573  0.5968  1.1026 -0.5196
   61CHL1   H4B 5627   6.643   2.349   2.545  1.8942  3.3453 -1.6571
   61CHL1    C5 5628   6.588   2.372   2.756  0.2788  0.0740 -0.3214
   61CHL1    C6 5629   6.602   2.239   2.778 -0.6246  0.9580 -1.0133
   61CHL1    H6 5630   6.630   2.181   2.689 -0.0530  0.3732 -0.4620
   61CHL1    C7 5631   6.566   2.173   2.908 -0.3683  0.7809 -0.6480
   61CHL1   H7A 5632   6.491   2.092   2.898  0.0277  0.2002  1.0086
   61CHL1   H7B 5633   6.656   2.129   2.954 -1.1264  1.9544  2.0404
   61CHL1    C8 5634   6.518   2.280   3.017 -0.5722  0.0867 -0.4567
   61CHL1    H8 5635   6.408   2.285   3.001 -0.6323  1.2471  0.2146
   61CHL1   C14 5636   6.540   2.224   3.162 -1.1846 -0.0706 -0.2177
   61CHL1   H14 5637   6.649   2.227   3.183 -0.9533 -2.8036 -0.8625
   61CHL1   C15 5638   6.492   2.082   3.192  0.1158  0.4722 -0.2540
   61CHL1  H15A 5639   6.406   2.036   3.139  0.0979 -1.2966  1.2491
   61CHL1  H15B 5640   6.573   2.013   3.159 -0.6408 -0.2957 -0.5182
   61CHL1   C16 5641   6.486   2.077   3.344  0.0610 -0.8338 -0.0413
   61CHL1  H16A 5642   6.384   2.051   3.379 -0.2054  1.2870  0.8428
   61CHL1  H16B 5643   6.555   2.003   3.390 -0.6596 -0.5382  1.5319
   61CHL1   C17 5644   6.513   2.220   3.397 -0.4906 -0.0269  0.7400
   61CHL1   H17 5645   6.623   2.230   3.405 -0.5545  0.1803  1.3658
   61CHL1   C13 5646   6.493   2.315   3.274 -0.0935  0.1596 -0.1899
   61CHL1   C18 5647   6.340   2.335   3.257  0.2294 -0.4370  0.8989
   61CHL1  H18A 5648   6.284   2.240   3.250 -0.5864  0.2710 -3.2134
   61CHL1  H18B 5649   6.283   2.393   3.334 -0.1439 -0.8410  0.9281
   61CHL1  H18C 5650   6.320   2.381   3.158 -0.4723  0.2073  1.3373
   61CHL1   C12 5651   6.561   2.449   3.261  0.5408 -0.0202 -0.4161
   61CHL1  H12A 5652   6.539   2.526   3.337  2.9378 -0.0589  0.3635
   61CHL1  H12B 5653   6.669   2.420   3.257  0.0659 -1.7915 -0.8073
   61CHL1   C11 5654   6.551   2.515   3.120 -0.0812 -0.1202  0.4668
   61CHL1  H11A 5655   6.450   2.560   3.105  0.3259  0.8929  0.7173
   61CHL1  H11B 5656   6.629   2.594   3.116  0.2464 -0.5237 -2.4037
   61CHL1    C9 5657   6.586   2.420   3.003  0.2858 -0.9358  0.0043
   61CHL1    H9 5658   6.696   2.409   3.007  0.3148 -0.3532  1.1646
   61CHL1   C10 5659   6.565   2.482   2.865  0.0048  0.3779  0.2550
   61CHL1   C19 5660   6.421   2.534   2.851  0.2117 -0.4484 -0.8359
   61CHL1  H19A 5661   6.390   2.619   2.915  0.0529 -1.2222  0.1223
   61CHL1  H19B 5662   6.409   2.578   2.750 -1.5097  2.0366  0.3952
   61CHL1  H19C 5663   6.346   2.454   2.869  0.0088 -0.2425 -0.7557
   61CHL1    C1 5664   6.659   2.602   2.847 -0.0809 -0.5036 -0.6095
   61CHL1   H1A 5665   6.644   2.676   2.928 -2.8095  0.1966 -1.6895
   61CHL1   H1B 5666   6.759   2.559   2.872  1.2364 -0.7323 -5.6174
   61CHL1    C2 5667   6.664   2.667   2.707  0.6256 -0.7990  0.2186
   61CHL1   H2A 5668   6.742   2.746   2.710  0.4525 -0.3979 -3.4179
   61CHL1   H2B 5669   6.576   2.730   2.681  1.1921 -0.4172 -0.7911
   61CHL1   C20 5670   6.462   2.247   3.543  0.7739 -0.7156  0.3046
   61CHL1   H20 5671   6.353   2.229   3.549  0.5908  0.6583  1.1982
   61CHL1   C21 5672   6.493   2.387   3.592 -0.5525 -0.4450 -0.3740
   61CHL1  H21A 5673   6.600   2.403   3.568 -0.7370 -1.9699 -2.3624
   61CHL1  H21B 5674   6.476   2.403   3.700 -1.1718 -2.2332 -0.1874
   61CHL1  H21C 5675   6.438   2.465   3.536 -0.0982  0.8975  1.0368
   61CHL1   C22 5676   6.518   2.131   3.643  0.3353  0.5362 -0.3556
   61CHL1  H22A 5677   6.494   2.031   3.600 -2.0407  0.1635  1.7443
   61CHL1  H22B 5678   6.629   2.126   3.634  0.4797 -1.8038  2.1448
   61CHL1   C23 5679   6.460   2.150   3.786 -0.4814  0.4952  0.2609
   61CHL1  H23A 5680   6.491   2.249   3.824 -1.8882  0.8843  0.4094
   61CHL1  H23B 5681   6.350   2.149   3.794 -0.4793 -0.9786  0.4152
   61CHL1   C24 5682   6.504   2.038   3.876  0.5194  0.5306  0.1241
   61CHL1  H24A 5683   6.492   1.941   3.823  1.0681  0.7052 -0.3289
   61CHL1  H24B 5684   6.615   2.033   3.866  0.4437  1.0518 -1.0931
   61CHL1   C25 5685   6.431   2.030   4.013  0.1982 -0.8350 -0.1741
   61CHL1   H25 5686   6.323   2.050   3.995  0.1054 -3.1090 -2.3245
   61CHL1   C26 5687   6.443   1.890   4.059  0.4596  0.5868 -0.5601
   61CHL1  H26A 5688   6.459   1.823   3.972  0.1932  0.4910 -0.5367
   61CHL1  H26B 5689   6.529   1.868   4.127 -0.1991  0.7626  0.3397
   61CHL1  H26C 5690   6.354   1.860   4.118 -0.5437  3.0716 -0.7967
   61CHL1   C27 5691   6.494   2.130   4.112  0.2987  0.3067 -0.8829
   61CHL1  H27A 5692   6.601   2.111   4.133  0.5257  1.9971 -0.4287
   61CHL1  H27B 5693   6.474   2.235   4.080  0.1400 -0.4361 -3.2943
   61CHL1  H27C 5694   6.438   2.123   4.208 -0.0769 -0.1940 -1.1325
   62CHL1    C3 5695   1.757   1.224   2.507  0.0006 -0.0302  0.8134
   62CHL1    H3 5696   1.851   1.283   2.501  1.5865 -2.6583 -1.3985
   62CHL1    O3 5697   1.713   1.194   2.370  0.5494 -0.2228 -0.2832
   62CHL1   H3' 5698   1.646   1.127   2.383  2.2587 -1.8147  0.5714
   62CHL1    C4 5699   1.776   1.093   2.574 -0.8731  0.0423  0.3139
   62CHL1   H4A 5700   1.678   1.044   2.552 -1.0740  0.9449 -0.9007
   62CHL1   H4B 5701   1.869   1.052   2.531 -1.9803 -0.2594 -1.8996
   62CHL1    C5 5702   1.796   1.131   2.722 -0.1994  0.6281  0.5783
   62CHL1    C6 5703   1.903   1.082   2.791 -0.2231 -0.4170 -0.1623
   62CHL1    H6 5704   1.976   1.021   2.737 -0.3181 -2.2551  1.7406
   62CHL1    C7 5705   1.935   1.094   2.936 -0.2268 -0.4535  0.0557
   62CHL1   H7A 5706   1.960   0.994   2.978  0.0567 -0.0682  0.8189
   62CHL1   H7B 5707   2.026   1.156   2.953 -0.6094 -0.2934  1.6620
   62CHL1    C8 5708   1.815   1.150   3.013 -0.1430 -0.1600 -0.4208
   62CHL1    H8 5709   1.740   1.068   3.021  0.4947 -0.9304 -2.1521
   62CHL1   C14 5710   1.856   1.191   3.155 -0.1397  0.0964  0.5367
   62CHL1   H14 5711   1.923   1.279   3.143 -0.0288 -0.1357 -0.5447
   62CHL1   C15 5712   1.933   1.087   3.239 -0.7979  0.4480 -0.5424
   62CHL1  H15A 5713   1.868   0.998   3.224 -0.2256 -0.0409 -0.1260
   62CHL1  H15B 5714   2.039   1.068   3.210  0.3098  0.6989  3.0519
   62CHL1   C16 5715   1.925   1.153   3.377  0.0206  0.1072 -0.1456
   62CHL1  H16A 5716   1.885   1.079   3.450 -2.2552  1.6398  0.2226
   62CHL1  H16B 5717   2.018   1.206   3.406  1.2922 -2.2573  0.1752
   62CHL1   C17 5718   1.817   1.263   3.371 -0.2765 -0.1943 -0.0346
   62CHL1   H17 5719   1.869   1.361   3.359 -0.8904  0.2124  0.5963
   62CHL1   C13 5720   1.739   1.242   3.238 -0.1276  0.0642  0.1902
   62CHL1   C18 5721   1.629   1.138   3.263 -0.3666  0.2256 -0.2639
   62CHL1  H18A 5722   1.663   1.048   3.319  1.0882 -0.0999 -1.6258
   62CHL1  H18B 5723   1.548   1.185   3.323 -1.3891  0.6316 -1.9318
   62CHL1  H18C 5724   1.571   1.109   3.173 -0.8299  1.1274 -0.2606
   62CHL1   C12 5725   1.691   1.369   3.158  0.6022 -0.4373  0.2449
   62CHL1  H12A 5726   1.629   1.432   3.225  1.0879  1.4446 -1.0409
   62CHL1  H12B 5727   1.783   1.430   3.145  0.6658 -0.4858  0.4524
   62CHL1   C11 5728   1.640   1.341   3.020  0.7203  0.1975 -0.1443
   62CHL1  H11A 5729   1.544   1.286   3.030  0.5546  0.1017 -2.0172
   62CHL1  H11B 5730   1.628   1.438   2.968  2.0283  0.0220 -0.8072
   62CHL1    C9 5731   1.747   1.262   2.936  0.7253 -0.4368  0.3670
   62CHL1    H9 5732   1.829   1.334   2.912  0.6649 -0.1466  1.0202
   62CHL1   C10 5733   1.698   1.221   2.796  0.3304 -0.5869  0.1953
   62CHL1   C19 5734   1.555   1.156   2.804  0.5303  0.3284 -0.0624
   62CHL1  H19A 5735   1.478   1.225   2.844 -0.7911 -1.3717  0.4178
   62CHL1  H19B 5736   1.510   1.131   2.706 -1.7791  0.0018  1.0472
   62CHL1  H19C 5737   1.572   1.070   2.873  0.5040 -0.5849 -1.1685
   62CHL1    C1 5738   1.680   1.361   2.711 -0.8758 -0.0812  0.4843
   62CHL1   H1A 5739   1.593   1.420   2.744 -2.7890 -1.2853 -2.2030
   62CHL1   H1B 5740   1.778   1.414   2.715 -0.8797  0.0386 -0.7217
   62CHL1    C2 5741   1.650   1.313   2.565  0.1659  0.5847 -0.3417
   62CHL1   H2A 5742   1.640   1.405   2.504 -0.9718  0.6031 -0.1356
   62CHL1   H2B 5743   1.553   1.259   2.567  0.7406 -0.5278 -2.1231
   62CHL1   C20 5744   1.735   1.273   3.498  0.2191  0.0563 -0.2095
   62CHL1   H20 5745   1.694   1.172   3.517  1.3738 -0.1562  1.2155
   62CHL1   C21 5746   1.630   1.386   3.500  0.7347  0.1865 -0.1906
   62CHL1  H21A 5747   1.584   1.396   3.600  3.0940 -1.3687  1.0936
   62CHL1  H21B 5748   1.546   1.358   3.433  0.3284 -0.1883  0.4702
   62CHL1  H21C 5749   1.671   1.488   3.485  2.3830 -0.2303  1.2371
   62CHL1   C22 5750   1.820   1.304   3.624 -0.1649 -0.5967 -0.2894
   62CHL1  H22A 5751   1.897   1.225   3.632  1.2632  0.4673 -2.8667
   62CHL1  H22B 5752   1.871   1.403   3.622 -0.9959 -0.1568  0.0961
   62CHL1   C23 5753   1.751   1.293   3.763  0.1559 -0.3151 -0.1053
   62CHL1  H23A 5754   1.679   1.375   3.786 -0.1953 -1.0079  1.3001
   62CHL1  H23B 5755   1.698   1.195   3.764  0.2833 -0.3842 -0.1460
   62CHL1   C24 5756   1.848   1.307   3.883  0.7439 -0.6123 -0.2143
   62CHL1  H24A 5757   1.930   1.236   3.862  1.6765  0.7467 -1.2912
   62CHL1  H24B 5758   1.887   1.411   3.893 -2.0005  0.3752  0.8331
   62CHL1   C25 5759   1.776   1.274   4.017 -0.1580  1.2826 -0.1932
   62CHL1   H25 5760   1.744   1.167   4.016  0.0602  1.1491  3.2289
   62CHL1   C26 5761   1.882   1.295   4.132  0.6979 -0.1341 -0.6162
   62CHL1  H26A 5762   1.918   1.399   4.146 -0.1536 -0.1714  2.2515
   62CHL1  H26B 5763   1.845   1.272   4.234  0.2914  0.4010 -0.6373
   62CHL1  H26C 5764   1.978   1.244   4.111  0.1902 -1.5099  0.3322
   62CHL1   C27 5765   1.672   1.373   4.048  0.0596  0.3902  0.2372
   62CHL1  H27A 5766   1.585   1.356   3.981  1.8019 -1.7239 -1.5427
   62CHL1  H27B 5767   1.639   1.381   4.154 -0.0509 -0.7650  0.2898
   62CHL1  H27C 5768   1.708   1.474   4.018 -1.6813  1.2926  1.0488
   63CHL1    C3 5769   6.412   4.702   2.489  0.3939  0.1045 -1.0197
   63CHL1    H3 5770   6.325   4.752   2.537  1.5729  0.7781  0.4549
   63CHL1    O3 5771   6.435   4.744   2.361 -0.2673 -0.1074 -0.2954
   63CHL1   H3' 5772   6.358   4.727   2.307  0.1486 -1.3842 -0.5033
   63CHL1    C4 5773   6.531   4.733   2.577  0.2998 -0.4462  0.1609
   63CHL1   H4A 5774   6.617   4.685   2.525  0.3026 -0.7155  0.4140
   63CHL1   H4B 5775   6.534   4.844   2.584  2.5637 -0.4271 -0.6515
   63CHL1    C5 5776   6.512   4.673   2.715  0.5546 -0.7186 -0.1880
   63CHL1    C6 5777   6.527   4.752   2.820 -0.9302 -0.3767 -0.5125
   63CHL1    H6 5778   6.538   4.861   2.814 -2.3245 -0.0707  1.7525
   63CHL1    C7 5779   6.541   4.699   2.957  0.0385 -0.0671  0.3299
   63CHL1   H7A 5780   6.644   4.710   2.997  0.8342 -0.0492 -1.6330
   63CHL1   H7B 5781   6.470   4.738   3.032 -0.4352  0.2190 -0.2606
   63CHL1    C8 5782   6.525   4.541   2.971  0.0711  0.2798 -0.1755
   63CHL1    H8 5783   6.621   4.491   2.948 -0.3599 -0.3794 -0.5581
   63CHL1   C14 5784   6.488   4.501   3.110  0.1560 -0.2375  0.4696
   63CHL1   H14 5785   6.395   4.556   3.130 -0.1078 -0.6096  0.2738
   63CHL1   C15 5786   6.574   4.550   3.227 -0.0198 -0.5041  0.3143
   63CHL1  H15A 5787   6.678   4.521   3.202 -0.4257 -0.8613 -1.0046
   63CHL1  H15B 5788   6.589   4.659   3.240  0.2605 -0.4661 -0.3020
   63CHL1   C16 5789   6.507   4.477   3.348 -0.5554 -0.8004 -0.1648
   63CHL1  H16A 5790   6.592   4.451   3.414  0.8568 -0.2528 -1.7248
   63CHL1  H16B 5791   6.433   4.538   3.404  2.0469  1.9594  0.4057
   63CHL1   C17 5792   6.419   4.366   3.286 -0.1466 -0.1620  0.3272
   63CHL1   H17 5793   6.320   4.416   3.294  1.8275  3.8687  0.6670
   63CHL1   C13 5794   6.453   4.358   3.133  0.3336  0.0880 -0.0540
   63CHL1   C18 5795   6.580   4.267   3.108  0.5106 -0.1595 -0.3341
   63CHL1  H18A 5796   6.556   4.164   3.142  2.1942 -0.9894 -1.5632
   63CHL1  H18B 5797   6.613   4.259   3.002 -0.4491 -0.8668 -0.5853
   63CHL1  H18C 5798   6.657   4.300   3.181  1.2684 -0.3739 -1.0208
   63CHL1   C12 5799   6.336   4.317   3.043  0.0852  0.1240  0.0221
   63CHL1  H12A 5800   6.321   4.207   3.044  3.7524 -0.4841 -3.2125
   63CHL1  H12B 5801   6.246   4.369   3.083 -1.7062 -1.5648 -1.6745
   63CHL1   C11 5802   6.364   4.363   2.893 -0.0251 -0.9327  0.4514
   63CHL1  H11A 5803   6.446   4.294   2.863  0.4499  0.0008 -0.4116
   63CHL1  H11B 5804   6.269   4.345   2.837 -0.3793  1.5776  0.2049
   63CHL1    C9 5805   6.418   4.501   2.869 -0.4957 -0.4259  0.4217
   63CHL1    H9 5806   6.332   4.570   2.882 -0.6064 -0.4486 -0.1746
   63CHL1   C10 5807   6.477   4.528   2.725  0.4615 -0.2250 -0.7905
   63CHL1   C19 5808   6.608   4.453   2.699 -0.1985  0.3283  0.2805
   63CHL1  H19A 5809   6.688   4.500   2.759  0.5150  0.3833 -0.7065
   63CHL1  H19B 5810   6.586   4.349   2.732  2.3573 -0.7276 -1.1508
   63CHL1  H19C 5811   6.629   4.456   2.590 -0.8129  1.0942  0.1772
   63CHL1    C1 5812   6.365   4.492   2.626 -0.1810  0.3994  0.2073
   63CHL1   H1A 5813   6.368   4.382   2.612  0.6350  0.3418  0.8530
   63CHL1   H1B 5814   6.264   4.520   2.664  0.5810  1.9215  1.1546
   63CHL1    C2 5815   6.391   4.551   2.487 -0.1354  0.0573  0.3467
   63CHL1   H2A 5816   6.312   4.521   2.415 -0.1468  0.2012  0.2998
   63CHL1   H2B 5817   6.482   4.502   2.447  0.5148  0.8029  0.8740
   63CHL1   C20 5818   6.411   4.236   3.373 -0.7144  0.8269  0.2741
   63CHL1   H20 5819   6.505   4.177   3.376  0.0189  2.0168  1.6005
   63CHL1   C21 5820   6.305   4.142   3.314  0.4905  0.4731 -0.6571
   63CHL1  H21A 5821   6.290   4.058   3.385  1.1937  1.2286  0.3849
   63CHL1  H21B 5822   6.361   4.110   3.223  1.8743  2.2955 -0.4604
   63CHL1  H21C 5823   6.213   4.199   3.289 -1.2797 -2.1172 -0.2749
   63CHL1   C22 5824   6.379   4.277   3.523 -0.1496  0.0875 -0.4008
   63CHL1  H22A 5825   6.456   4.348   3.561  0.2422 -0.1849 -0.6904
   63CHL1  H22B 5826   6.286   4.338   3.510 -0.1282  0.2738  0.2527
   63CHL1   C23 5827   6.358   4.169   3.629 -0.3086 -0.2824  0.0943
   63CHL1  H23A 5828   6.257   4.124   3.616  0.3352 -2.0374  1.0118
   63CHL1  H23B 5829   6.445   4.101   3.618 -1.7105 -2.0420 -0.4522
   63CHL1   C24 5830   6.362   4.220   3.772 -1.0427 -0.1273 -0.2136
   63CHL1  H24A 5831   6.447   4.291   3.787 -0.2469 -1.1742  0.3524
   63CHL1  H24B 5832   6.265   4.272   3.782 -3.1191 -3.1977 -3.1912
   63CHL1   C25 5833   6.382   4.107   3.883  0.0617 -0.1734 -0.5392
   63CHL1   H25 5834   6.479   4.057   3.861  0.1322  0.4959 -1.7439
   63CHL1   C26 5835   6.383   4.162   4.031  0.5774  0.3375  0.0133
   63CHL1  H26A 5836   6.301   4.233   4.054  0.2523  0.0735 -0.3251
   63CHL1  H26B 5837   6.390   4.072   4.096 -1.7146 -0.8138 -1.2674
   63CHL1  H26C 5838   6.477   4.220   4.046  0.9512  0.2299 -1.8628
   63CHL1   C27 5839   6.273   3.999   3.875  0.0387 -0.2573 -0.6882
   63CHL1  H27A 5840   6.172   4.044   3.869 -0.2521 -0.8071  0.1298
   63CHL1  H27B 5841   6.277   3.931   3.787 -0.8322 -0.5122 -0.5358
   63CHL1  H27C 5842   6.269   3.933   3.964  0.2283  0.7208  0.0518
   64CHL1    C3 5843   1.824   6.185   2.557 -0.1746 -0.1267  0.7868
   64CHL1    H3 5844   1.867   6.091   2.597 -0.0103 -0.5170 -0.3020
   64CHL1    O3 5845   1.867   6.213   2.430  0.1956 -0.3170 -0.7231
   64CHL1   H3' 5846   1.881   6.123   2.400 -0.5537 -0.4309 -0.7280
   64CHL1    C4 5847   1.669   6.193   2.567 -0.1640  0.3728  0.1250
   64CHL1   H4A 5848   1.634   6.294   2.536  1.4652  0.6205 -0.9735
   64CHL1   H4B 5849   1.629   6.117   2.497  1.5273 -1.8047  1.4450
   64CHL1    C5 5850   1.623   6.177   2.712 -0.7350 -0.5663  0.3378
   64CHL1    C6 5851   1.546   6.077   2.749 -0.4370 -0.2570 -0.5334
   64CHL1    H6 5852   1.510   6.012   2.668  2.3496 -0.1438 -1.9091
   64CHL1    C7 5853   1.482   6.057   2.879  0.0012 -0.3773  0.6209
   64CHL1   H7A 5854   1.372   6.070   2.869  0.2281  1.5807  0.5636
   64CHL1   H7B 5855   1.508   5.956   2.920 -0.0416 -0.9094 -0.6438
   64CHL1    C8 5856   1.512   6.176   2.977 -0.6904 -0.3437 -0.4342
   64CHL1    H8 5857   1.437   6.253   2.950 -0.0301  0.2865 -0.5037
   64CHL1   C14 5858   1.479   6.125   3.115  0.6189  0.1084 -0.0383
   64CHL1   H14 5859   1.552   6.042   3.124  0.4823 -0.0438 -0.3352
   64CHL1   C15 5860   1.340   6.065   3.143  0.1691 -0.6819 -0.2070
   64CHL1  H15A 5861   1.264   6.141   3.116  2.5098  0.9878 -2.4135
   64CHL1  H15B 5862   1.318   5.969   3.091 -1.6133  0.1374 -1.0119
   64CHL1   C16 5863   1.321   6.055   3.295  0.7760  0.3254 -0.4053
   64CHL1  H16A 5864   1.224   6.101   3.320  0.2775 -0.3219 -1.1319
   64CHL1  H16B 5865   1.342   5.951   3.328  2.2159  1.3416  2.0607
   64CHL1   C17 5866   1.445   6.137   3.348 -0.0977 -0.2669  0.0239
   64CHL1   H17 5867   1.526   6.066   3.371 -1.7583 -1.4984  2.2109
   64CHL1   C13 5868   1.497   6.226   3.229 -0.1924 -0.4575  0.7836
   64CHL1   C18 5869   1.404   6.352   3.219 -0.5525  0.4956  0.1065
   64CHL1  H18A 5870   1.294   6.334   3.224  0.0841 -3.6990  0.7907
   64CHL1  H18B 5871   1.430   6.431   3.292  0.2086  1.0870 -0.7934
   64CHL1  H18C 5872   1.435   6.393   3.120 -1.0670  0.1876 -0.1888
   64CHL1   C12 5873   1.648   6.263   3.223 -0.0057 -0.2901  0.0479
   64CHL1  H12A 5874   1.678   6.335   3.302 -1.4212  1.6504 -1.1509
   64CHL1  H12B 5875   1.706   6.170   3.243 -0.5159 -0.2685  1.6746
   64CHL1   C11 5876   1.695   6.315   3.087  0.0764 -0.2534  0.4695
   64CHL1  H11A 5877   1.649   6.415   3.070  0.1688  0.2591  2.9382
   64CHL1  H11B 5878   1.804   6.339   3.086  0.4595 -2.0120 -0.6184
   64CHL1    C9 5879   1.650   6.222   2.964  0.4937 -1.1881  0.4342
   64CHL1    H9 5880   1.707   6.127   2.976  1.2242 -0.8613 -0.4295
   64CHL1   C10 5881   1.683   6.274   2.819 -0.8332  0.2584  0.4077
   64CHL1   C19 5882   1.625   6.411   2.796 -0.6127  0.5575 -0.3910
   64CHL1  H19A 5883   1.515   6.404   2.808 -0.8136  2.1141 -1.0869
   64CHL1  H19B 5884   1.666   6.481   2.872  0.0553  0.6309 -0.8165
   64CHL1  H19C 5885   1.649   6.442   2.692 -0.9956 -2.1202 -1.2975
   64CHL1    C1 5886   1.837   6.274   2.798 -0.1061 -0.6294  0.0858
   64CHL1   H1A 5887   1.876   6.354   2.864  0.5363 -0.8421 -0.0344
   64CHL1   H1B 5888   1.884   6.181   2.837 -0.1296 -0.5251  0.3605
   64CHL1    C2 5889   1.884   6.292   2.650 -0.1588  0.0160  0.0839
   64CHL1   H2A 5890   1.995   6.285   2.651 -0.0378  1.7472  2.2847
   64CHL1   H2B 5891   1.850   6.391   2.613  0.1846  0.2738  0.4462
   64CHL1   C20 5892   1.410   6.204   3.483  0.0203 -0.1987 -0.2935
   64CHL1   H20 5893   1.330   6.278   3.461 -0.6911 -0.8746  0.0054
   64CHL1   C21 5894   1.532   6.277   3.544  0.7358 -0.0528 -0.7361
   64CHL1  H21A 5895   1.587   6.332   3.464  2.1594 -1.1738 -0.5460
   64CHL1  H21B 5896   1.595   6.198   3.591  1.0373  0.1081 -0.8703
   64CHL1  H21C 5897   1.487   6.342   3.622 -0.6083  0.0480 -1.5882
   64CHL1   C22 5898   1.344   6.117   3.593 -0.7864 -0.3266 -0.1602
   64CHL1  H22A 5899   1.274   6.049   3.539  0.3889  0.0331 -2.2165
   64CHL1  H22B 5900   1.417   6.056   3.650  0.5149  0.2554 -1.1844
   64CHL1   C23 5901   1.263   6.185   3.704 -0.8155 -0.1160  0.6054
   64CHL1  H23A 5902   1.328   6.252   3.765  2.6266 -0.3265 -2.6952
   64CHL1  H23B 5903   1.181   6.244   3.659  0.5522 -1.8514 -4.4675
   64CHL1   C24 5904   1.196   6.078   3.797  0.5211 -0.1891 -0.6192
   64CHL1  H24A 5905   1.148   5.995   3.740  1.6556 -2.0397  1.0622
   64CHL1  H24B 5906   1.267   6.027   3.865  1.9935  1.0110 -1.2380
   64CHL1   C25 5907   1.078   6.145   3.882  0.3761  0.0644 -0.0001
   64CHL1   H25 5908   1.049   6.068   3.956 -1.5499  0.2997 -0.4746
   64CHL1   C26 5909   1.136   6.260   3.975 -0.1174 -0.1052  0.2228
   64CHL1  H26A 5910   1.057   6.312   4.034 -0.3294  1.9083 -1.8023
   64CHL1  H26B 5911   1.200   6.211   4.051 -0.9782  2.2745  2.5840
   64CHL1  H26C 5912   1.200   6.325   3.913 -1.4483  0.1425 -0.9121
   64CHL1   C27 5913   0.958   6.190   3.797  0.9410 -0.1096 -0.1006
   64CHL1  H27A 5914   0.999   6.257   3.719 -0.8788 -1.0228 -1.8934
   64CHL1  H27B 5915   0.918   6.104   3.739  2.8132  0.5537 -2.4698
   64CHL1  H27C 5916   0.877   6.231   3.861  1.2129 -0.4171  0.4490
   65CHL1    C3 5917   1.129   1.443   2.560  0.0310  0.2137  0.6576
   65CHL1    H3 5918   1.089   1.543   2.588  1.8450  1.8123 -2.2186
   65CHL1    O3 5919   1.171   1.443   2.424  0.0147 -0.0846  0.1668
   65CHL1   H3' 5920   1.222   1.364   2.407 -1.5464 -0.5403 -2.8177
   65CHL1    C4 5921   1.252   1.409   2.641 -0.4453  0.2350 -0.5710
   65CHL1   H4A 5922   1.315   1.322   2.614 -2.2260 -0.8980 -1.1275
   65CHL1   H4B 5923   1.325   1.493   2.632  0.5912 -0.7791 -1.7492
   65CHL1    C5 5924   1.216   1.396   2.789 -0.2503  0.3032  0.0088
   65CHL1    C6 5925   1.268   1.477   2.885  0.3944  0.5372  0.0586
   65CHL1    H6 5926   1.334   1.559   2.854 -0.5567  1.1194 -0.4327
   65CHL1    C7 5927   1.236   1.451   3.030  0.2360  0.1626  0.0465
   65CHL1   H7A 5928   1.330   1.462   3.088  0.8970  0.6566 -1.1117
   65CHL1   H7B 5929   1.177   1.537   3.067 -0.7037 -0.7948  0.7939
   65CHL1    C8 5930   1.176   1.315   3.058  0.6326  0.2925  0.2768
   65CHL1    H8 5931   1.254   1.241   3.031  0.1820 -0.3192  0.6466
   65CHL1   C14 5932   1.129   1.305   3.207 -0.0848  0.7279 -0.3014
   65CHL1   H14 5933   1.046   1.378   3.215  1.4578  2.7153 -1.8456
   65CHL1   C15 5934   1.238   1.336   3.313 -0.5245 -0.1500 -0.5219
   65CHL1  H15A 5935   1.328   1.297   3.260  0.6736  4.1747 -1.8120
   65CHL1  H15B 5936   1.240   1.445   3.330 -3.3375  0.0232 -1.0804
   65CHL1   C16 5937   1.191   1.261   3.435  0.5335 -0.0264 -1.0642
   65CHL1  H16A 5938   1.271   1.194   3.474  0.3795  0.2103 -0.3255
   65CHL1  H16B 5939   1.180   1.333   3.519  1.7082 -0.4532 -0.5217
   65CHL1   C17 5940   1.063   1.189   3.396 -0.1770  0.3935 -0.1405
   65CHL1   H17 5941   0.982   1.259   3.424 -0.5890  0.1384 -0.6656
   65CHL1   C13 5942   1.076   1.170   3.245 -0.2888  0.1415  0.3527
   65CHL1   C18 5943   1.174   1.059   3.211 -0.0199 -0.4597 -0.7669
   65CHL1  H18A 5944   1.135   0.959   3.240  0.8180 -1.0571 -1.6786
   65CHL1  H18B 5945   1.187   1.051   3.101  0.7061  1.6639 -0.8656
   65CHL1  H18C 5946   1.268   1.072   3.270 -0.1376  0.1161 -0.7024
   65CHL1   C12 5947   0.938   1.156   3.172 -0.1517  0.5024  0.2886
   65CHL1  H12A 5948   0.885   1.060   3.186  0.7561 -0.3188 -1.6289
   65CHL1  H12B 5949   0.883   1.246   3.206 -0.7102  0.3687 -0.2493
   65CHL1   C11 5950   0.971   1.170   3.017 -0.3163 -0.1362 -0.4030
   65CHL1  H11A 5951   1.019   1.072   2.995  0.3342  0.1117 -0.1046
   65CHL1  H11B 5952   0.877   1.175   2.959 -2.0644  0.7770  2.3851
   65CHL1    C9 5953   1.055   1.294   2.967  0.9258  0.1100 -0.1200
   65CHL1    H9 5954   0.986   1.382   2.974  0.1638 -0.6867  3.9546
   65CHL1   C10 5955   1.113   1.280   2.821 -0.1096 -0.2519  0.9240
   65CHL1   C19 5956   1.179   1.142   2.795  0.3328  0.7665  0.5182
   65CHL1  H19A 5957   1.095   1.071   2.788 -0.5628  1.8259  0.4184
   65CHL1  H19B 5958   1.228   1.130   2.696 -0.9860  1.5594 -0.2280
   65CHL1  H19C 5959   1.238   1.091   2.875  0.8880  2.2995  1.1041
   65CHL1    C1 5960   0.991   1.301   2.720 -0.3305  0.5233  0.2695
   65CHL1   H1A 5961   0.918   1.219   2.739 -1.4171  1.6072  0.7857
   65CHL1   H1B 5962   0.950   1.397   2.757 -0.2587  0.0039  1.7431
   65CHL1    C2 5963   1.029   1.324   2.574  0.1395 -0.5665  0.6875
   65CHL1   H2A 5964   0.936   1.342   2.515 -1.3253  1.5840  3.4959
   65CHL1   H2B 5965   1.079   1.234   2.532  0.6517  0.1591 -0.2872
   65CHL1   C20 5966   1.040   1.068   3.487  0.5147 -0.3220 -0.6330
   65CHL1   H20 5967   1.130   1.003   3.477 -0.7866 -2.4815  1.1928
   65CHL1   C21 5968   0.922   0.979   3.446  0.3320  0.4736  0.5522
   65CHL1  H21A 5969   0.833   1.045   3.438 -0.1819 -0.1992  0.7089
   65CHL1  H21B 5970   0.899   0.906   3.527 -2.1263 -1.2286 -1.6157
   65CHL1  H21C 5971   0.942   0.921   3.354 -1.5801  1.0534 -0.2457
   65CHL1   C22 5972   1.032   1.108   3.638 -0.1375 -0.3442  0.3116
   65CHL1  H22A 5973   1.106   1.186   3.667 -0.0256  1.2215 -3.8360
   65CHL1  H22B 5974   0.928   1.142   3.659 -0.6086 -0.8875 -1.1063
   65CHL1   C23 5975   1.049   1.000   3.749  0.6795  1.0893 -0.0734
   65CHL1  H23A 5976   0.985   1.018   3.838  1.5142  0.8908  0.5803
   65CHL1  H23B 5977   1.007   0.908   3.704  1.1830  1.9636 -2.4061
   65CHL1   C24 5978   1.200   0.954   3.780  0.4290 -0.6344 -0.4874
   65CHL1  H24A 5979   1.198   0.850   3.820  2.0468 -0.8362 -0.9279
   65CHL1  H24B 5980   1.254   0.945   3.684 -1.0469  0.6766 -1.4592
   65CHL1   C25 5981   1.287   1.050   3.865  0.2915  0.8369 -0.5208
   65CHL1   H25 5982   1.286   1.147   3.812 -0.4616  0.9301 -0.3495
   65CHL1   C26 5983   1.223   1.081   3.999  0.3914  0.0249  0.0318
   65CHL1  H26A 5984   1.117   1.114   3.993  0.9637  1.6190 -1.8238
   65CHL1  H26B 5985   1.222   1.000   4.076 -4.2426 -0.3755 -0.2775
   65CHL1  H26C 5986   1.285   1.163   4.042  2.0671 -0.4192 -1.4994
   65CHL1   C27 5987   1.432   0.992   3.879  0.0531 -0.4733  0.7215
   65CHL1  H27A 5988   1.482   0.991   3.780  1.9553 -2.7268  1.6700
   65CHL1  H27B 5989   1.491   1.054   3.951  1.5063 -3.0174  1.8053
   65CHL1  H27C 5990   1.418   0.892   3.924 -0.8605 -0.6859 -0.0240
   66CHL1    C3 5991   7.236   2.862   2.485 -0.2333 -0.6157 -0.1148
   66CHL1    H3 5992   7.171   2.951   2.476 -1.9468 -1.7811  0.4112
   66CHL1    O3 5993   7.309   2.849   2.364 -0.3445  0.2599 -0.0345
   66CHL1   H3' 5994   7.333   2.940   2.344  0.2586  0.1900  0.3725
   66CHL1    C4 5995   7.340   2.888   2.601 -0.3469  0.2945 -0.4054
   66CHL1   H4A 5996   7.412   2.804   2.614 -1.2923 -0.1808  2.1480
   66CHL1   H4B 5997   7.389   2.984   2.574 -0.0315  0.4539  0.7134
   66CHL1    C5 5998   7.280   2.912   2.740 -0.2272 -0.1800 -0.1616
   66CHL1    C6 5999   7.298   3.018   2.815  0.0465 -0.1499 -0.5262
   66CHL1    H6 6000   7.363   3.097   2.775  1.9200 -0.8464  1.0681
   66CHL1    C7 6001   7.239   3.042   2.950  0.2115 -0.2385  0.0073
   66CHL1   H7A 6002   7.318   3.082   3.017  1.1529  2.0515 -2.4266
   66CHL1   H7B 6003   7.159   3.118   2.938 -0.0260 -0.9609 -3.2569
   66CHL1    C8 6004   7.167   2.909   3.009 -0.7929 -0.7455  0.1666
   66CHL1    H8 6005   7.253   2.850   3.048  2.2110  2.9943 -0.4487
   66CHL1   C14 6006   7.070   2.952   3.128 -0.5326  1.2236 -0.3620
   66CHL1   H14 6007   6.995   3.017   3.079 -2.7390 -0.4844  0.6643
   66CHL1   C15 6008   7.128   3.036   3.248  0.1670 -0.3847  0.1655
   66CHL1  H15A 6009   7.216   2.980   3.286  0.8159  1.2832  1.1550
   66CHL1  H15B 6010   7.154   3.139   3.213  0.6133 -0.0233  1.5617
   66CHL1   C16 6011   7.014   3.028   3.346 -0.8978 -0.4000 -0.2448
   66CHL1  H16A 6012   7.053   3.009   3.448 -3.4383 -0.9972  0.6303
   66CHL1  H16B 6013   6.948   3.117   3.349 -2.1379 -1.3682  1.3617
   66CHL1   C17 6014   6.919   2.908   3.300 -0.1690  0.3306 -0.5331
   66CHL1   H17 6015   6.831   2.956   3.253 -0.6151  0.6649  0.6142
   66CHL1   C13 6016   6.999   2.837   3.185 -0.5028 -0.0294 -0.1325
   66CHL1   C18 6017   7.099   2.733   3.248 -0.2612  0.2033  0.1750
   66CHL1  H18A 6018   7.143   2.793   3.331 -0.2354  1.3418 -0.6587
   66CHL1  H18B 6019   7.049   2.639   3.280  0.5367  0.0843  1.1131
   66CHL1  H18C 6020   7.188   2.718   3.183  0.1004 -0.7057  0.8653
   66CHL1   C12 6021   6.910   2.783   3.070  0.1798 -0.0489 -0.1923
   66CHL1  H12A 6022   6.856   2.692   3.105 -0.8944  0.0376 -1.5563
   66CHL1  H12B 6023   6.837   2.859   3.034  0.2568 -0.3316 -0.9544
   66CHL1   C11 6024   6.994   2.733   2.957 -0.0288  0.4366  0.5923
   66CHL1  H11A 6025   7.040   2.638   2.992  0.4181  0.1275 -0.7913
   66CHL1  H11B 6026   6.928   2.701   2.873 -0.6531  0.1202  1.1927
   66CHL1    C9 6027   7.092   2.837   2.901  0.2319 -0.1531 -0.1878
   66CHL1    H9 6028   7.019   2.911   2.862  0.8258 -0.1529 -1.3351
   66CHL1   C10 6029   7.184   2.796   2.784 -0.3127 -0.4793 -0.3505
   66CHL1   C19 6030   7.262   2.677   2.840 -0.0643 -0.0011  0.0290
   66CHL1  H19A 6031   7.295   2.689   2.945  0.7325 -1.2360 -0.0650
   66CHL1  H19B 6032   7.201   2.584   2.829  0.8103 -0.5011 -0.6608
   66CHL1  H19C 6033   7.352   2.649   2.782 -0.7151  0.5487 -1.2692
   66CHL1    C1 6034   7.089   2.764   2.662 -0.0250 -0.6522 -0.1677
   66CHL1   H1A 6035   7.026   2.677   2.690 -1.4118  0.3829 -0.0339
   66CHL1   H1B 6036   7.021   2.848   2.638 -0.1961 -0.8789 -0.4802
   66CHL1    C2 6037   7.155   2.739   2.522 -0.6272 -0.1667  0.0740
   66CHL1   H2A 6038   7.078   2.736   2.442 -2.9933  0.9144  2.2225
   66CHL1   H2B 6039   7.222   2.651   2.529  0.2608  0.5980  1.5040
   66CHL1   C20 6040   6.863   2.818   3.418  0.2497 -0.1458  0.0412
   66CHL1   H20 6041   6.948   2.781   3.479 -0.0299 -0.7962  0.0411
   66CHL1   C21 6042   6.785   2.697   3.366  0.3149 -0.6866  0.5306
   66CHL1  H21A 6043   6.843   2.657   3.280  0.6540  1.0367 -0.0642
   66CHL1  H21B 6044   6.685   2.722   3.324  0.1102 -1.4550  0.5631
   66CHL1  H21C 6045   6.776   2.620   3.446 -1.2963 -0.4248  0.6167
   66CHL1   C22 6046   6.783   2.893   3.531 -1.0068 -0.0644 -0.1835
   66CHL1  H22A 6047   6.828   2.995   3.526 -0.0318 -0.3782  1.5553
   66CHL1  H22B 6048   6.677   2.894   3.499 -0.9173  0.7129 -0.4606
   66CHL1   C23 6049   6.793   2.846   3.678 -0.1519 -0.2614  0.2364
   66CHL1  H23A 6050   6.744   2.747   3.686  0.6055 -0.4881  2.2780
   66CHL1  H23B 6051   6.901   2.835   3.700 -0.1919 -0.9717  0.0804
   66CHL1   C24 6052   6.738   2.950   3.777 -0.6730 -0.1721 -0.0510
   66CHL1  H24A 6053   6.781   3.047   3.744  0.9478 -0.1857  1.9131
   66CHL1  H24B 6054   6.627   2.949   3.776 -0.7127  1.6209  0.7013
   66CHL1   C25 6055   6.763   2.907   3.923  0.2495  0.1886 -0.1271
   66CHL1   H25 6056   6.729   2.802   3.929  0.0243  0.3597  1.6891
   66CHL1   C26 6057   6.907   2.912   3.972  0.4268  0.1573 -0.1525
   66CHL1  H26A 6058   6.906   2.891   4.081 -0.2332  0.1755 -0.1486
   66CHL1  H26B 6059   6.958   2.829   3.919  0.2904 -0.2478  0.3465
   66CHL1  H26C 6060   6.951   3.007   3.937 -0.1853 -0.4192 -2.6176
   66CHL1   C27 6061   6.677   2.998   4.017 -0.6084  0.0418  0.4792
   66CHL1  H27A 6062   6.726   3.097   4.029 -0.2690 -0.1462  0.6398
   66CHL1  H27B 6063   6.669   2.943   4.113  0.2438 -3.7281 -1.5085
   66CHL1  H27C 6064   6.571   3.003   3.984 -0.6987  0.0418  0.7680
   67CHL1    C3 6065   4.555   7.203   2.509  0.1871  0.2438  0.9761
   67CHL1    H3 6066   4.546   7.304   2.555  0.3311 -0.0028  1.5423
   67CHL1    O3 6067   4.567   7.230   2.369  0.2518 -0.2690  0.0207
   67CHL1   H3' 6068   4.526   7.315   2.355 -1.5936 -1.2605 -0.9101
   67CHL1    C4 6069   4.676   7.135   2.570 -0.1732  0.2580 -0.2197
   67CHL1   H4A 6070   4.688   7.038   2.517 -0.4765  1.0954 -1.8257
   67CHL1   H4B 6071   4.761   7.204   2.553 -1.6988  1.9939 -0.9546
   67CHL1    C5 6072   4.648   7.110   2.717 -0.3327  0.3705 -0.5236
   67CHL1    C6 6073   4.745   7.153   2.800 -0.4385  0.4332 -1.0282
   67CHL1    H6 6074   4.835   7.204   2.762  0.0799 -1.8505 -2.9654
   67CHL1    C7 6075   4.736   7.138   2.953 -0.3114 -0.2020 -0.0756
   67CHL1   H7A 6076   4.831   7.095   2.990  0.7959  1.7766 -0.5389
   67CHL1   H7B 6077   4.711   7.237   2.997 -0.7534 -1.1152  1.7532
   67CHL1    C8 6078   4.625   7.042   2.993 -0.0520  0.6073  0.6952
   67CHL1    H8 6079   4.649   6.935   2.975  0.0452  0.7289  0.0821
   67CHL1   C14 6080   4.608   7.052   3.141  0.3429  0.0628  0.3036
   67CHL1   H14 6081   4.577   7.157   3.158  0.3839 -0.1906  2.0490
   67CHL1   C15 6082   4.734   7.032   3.221 -0.4709 -0.2698 -0.0105
   67CHL1  H15A 6083   4.782   6.939   3.183  2.0417 -0.1040  2.5813
   67CHL1  H15B 6084   4.815   7.109   3.219 -0.1678 -0.6019 -0.7177
   67CHL1   C16 6085   4.682   7.009   3.359  1.2073  0.2547 -0.0416
   67CHL1  H16A 6086   4.729   6.932   3.425  1.0637  1.5383  1.5982
   67CHL1  H16B 6087   4.685   7.095   3.430 -1.7726 -0.0891  0.5827
   67CHL1   C17 6088   4.525   7.002   3.351 -0.8434 -0.2110 -0.2094
   67CHL1   H17 6089   4.487   7.105   3.367 -3.9989 -1.5960  1.6917
   67CHL1   C13 6090   4.502   6.968   3.206 -0.5933 -0.1741 -0.1012
   67CHL1   C18 6091   4.526   6.817   3.185  0.7654 -0.3816 -0.5809
   67CHL1  H18A 6092   4.539   6.793   3.078 -3.0127 -0.4376 -1.0761
   67CHL1  H18B 6093   4.614   6.774   3.239  1.7603  3.0485  0.6197
   67CHL1  H18C 6094   4.433   6.771   3.226  0.7733 -1.0594 -1.3255
   67CHL1   C12 6095   4.366   7.011   3.142  0.0123 -0.4383  0.3642
   67CHL1  H12A 6096   4.283   6.941   3.166  0.8685 -2.3711 -2.1000
   67CHL1  H12B 6097   4.349   7.116   3.174 -0.5915 -0.5209  0.3287
   67CHL1   C11 6098   4.372   7.002   2.989  0.5139 -0.8657 -0.2979
   67CHL1  H11A 6099   4.371   6.894   2.965 -1.4833 -0.7867 -0.6471
   67CHL1  H11B 6100   4.279   7.051   2.953  1.3053  1.0219  0.1345
   67CHL1    C9 6101   4.493   7.073   2.922  0.4144 -0.3955  0.3466
   67CHL1    H9 6102   4.480   7.182   2.935 -0.9337 -0.6419  1.1393
   67CHL1   C10 6103   4.510   7.055   2.770 -0.8352  0.0238  0.4163
   67CHL1   C19 6104   4.514   6.904   2.741  0.3041 -0.6227 -0.5801
   67CHL1  H19A 6105   4.545   6.886   2.635  0.3705 -2.0100 -0.3404
   67CHL1  H19B 6106   4.585   6.855   2.811  0.5485  2.3202  1.2987
   67CHL1  H19C 6107   4.414   6.857   2.748  0.7439 -1.4953  0.0070
   67CHL1    C1 6108   4.391   7.126   2.695 -0.4402 -0.0330 -0.3267
   67CHL1   H1A 6109   4.294   7.075   2.712  0.6299 -1.9057  0.2896
   67CHL1   H1B 6110   4.395   7.233   2.724 -0.9229 -0.1019 -0.0179
   67CHL1    C2 6111   4.428   7.129   2.542 -0.5614 -0.2836  0.5319
   67CHL1   H2A 6112   4.349   7.189   2.491  1.9590  1.7550 -1.0994
   67CHL1   H2B 6113   4.432   7.029   2.495  2.5491 -0.3434  0.8099
   67CHL1   C20 6114   4.461   6.915   3.458  0.1296  0.2930 -0.2463
   67CHL1   H20 6115   4.499   6.810   3.462 -1.2964 -0.1644  2.3675
   67CHL1   C21 6116   4.305   6.914   3.431 -0.7571  0.5553 -0.6955
   67CHL1  H21A 6117   4.281   6.841   3.350 -0.2477  0.3699 -0.6885
   67CHL1  H21B 6118   4.261   7.015   3.420 -2.7835 -0.1701  0.6347
   67CHL1  H21C 6119   4.263   6.879   3.528  0.7534  1.3155  0.2584
   67CHL1   C22 6120   4.491   6.970   3.603  0.0182  0.0338  0.3097
   67CHL1  H22A 6121   4.599   6.993   3.615  0.1440  0.7043 -1.8144
   67CHL1  H22B 6122   4.443   7.068   3.624  1.7819  1.1239 -0.5694
   67CHL1   C23 6123   4.455   6.864   3.714 -0.2188  0.3991  0.3698
   67CHL1  H23A 6124   4.347   6.874   3.740 -0.3698  0.6980 -0.3715
   67CHL1  H23B 6125   4.476   6.758   3.689 -2.7848 -0.5212  1.9575
   67CHL1   C24 6126   4.543   6.899   3.842  0.3036  0.3956 -0.9698
   67CHL1  H24A 6127   4.647   6.863   3.828 -0.1431 -1.8472  1.0232
   67CHL1  H24B 6128   4.528   7.004   3.872  1.0393  0.4043 -0.6219
   67CHL1   C25 6129   4.502   6.813   3.970 -0.0572  0.5731  0.2960
   67CHL1   H25 6130   4.391   6.812   3.980  0.0960  0.0761  2.3168
   67CHL1   C26 6131   4.543   6.662   3.944 -0.6765 -0.5605  0.0550
   67CHL1  H26A 6132   4.494   6.611   3.859  1.0786 -0.8992 -0.7707
   67CHL1  H26B 6133   4.648   6.660   3.908 -0.3339  2.7267  0.6621
   67CHL1  H26C 6134   4.532   6.602   4.036 -0.5154  0.5095  0.7862
   67CHL1   C27 6135   4.578   6.860   4.099  0.2510 -0.0521 -1.3237
   67CHL1  H27A 6136   4.688   6.852   4.084  0.0772 -1.0162 -2.1583
   67CHL1  H27B 6137   4.551   6.964   4.128  2.5175  0.5235 -1.1626
   67CHL1  H27C 6138   4.557   6.791   4.184  1.4688  0.0110 -0.9534
   68CHL1    C3 6139   2.463   0.176   2.530 -0.1300  0.1705 -0.2532
   68CHL1    H3 6140   2.566   0.214   2.547  0.9111 -1.8946 -1.7471
   68CHL1    O3 6141   2.436   0.194   2.396 -0.7181 -0.8567  0.2546
   68CHL1   H3' 6142   2.345   0.164   2.388 -0.0775 -2.9287  0.5415
   68CHL1    C4 6143   2.474   0.024   2.556 -0.4217 -0.1814 -0.4885
   68CHL1   H4A 6144   2.384  -0.027   2.515  0.1264  0.6882 -2.9043
   68CHL1   H4B 6145   2.563  -0.020   2.506 -0.1886 -0.5904  0.2821
   68CHL1    C5 6146   2.475  -0.002   2.705  0.0070  0.1647 -0.1268
   68CHL1    C6 6147   2.578  -0.056   2.759 -0.1583  0.2041  0.0960
   68CHL1    H6 6148   2.659  -0.082   2.690  1.3306 -2.3924  2.7034
   68CHL1    C7 6149   2.591  -0.094   2.906  0.0777  0.0159  1.1743
   68CHL1   H7A 6150   2.621  -0.201   2.913 -0.0597 -0.0745  0.4703
   68CHL1   H7B 6151   2.674  -0.026   2.935 -0.2061  1.1318 -0.5195
   68CHL1    C8 6152   2.453  -0.086   2.981 -0.2794  0.3485 -0.5605
   68CHL1    H8 6153   2.386  -0.173   2.960  0.0475  0.2996 -1.4191
   68CHL1   C14 6154   2.485  -0.063   3.139  0.6556 -0.3764 -0.2611
   68CHL1   H14 6155   2.542   0.031   3.155  0.8004 -0.6612  0.9227
   68CHL1   C15 6156   2.566  -0.176   3.197  0.2294  0.4959  0.1841
   68CHL1  H15A 6157   2.538  -0.268   3.142 -0.1874  0.7393 -0.0093
   68CHL1  H15B 6158   2.675  -0.155   3.185  0.0638 -0.0373 -2.5374
   68CHL1   C16 6159   2.516  -0.188   3.341 -0.6767  0.2936  0.4468
   68CHL1  H16A 6160   2.460  -0.283   3.355  1.1537 -0.5521  2.2669
   68CHL1  H16B 6161   2.604  -0.183   3.408  0.0374  0.2322 -0.4728
   68CHL1   C17 6162   2.427  -0.062   3.362 -0.0048 -0.1236  0.0980
   68CHL1   H17 6163   2.489   0.030   3.368  1.2370 -0.9663  0.2965
   68CHL1   C13 6164   2.361  -0.050   3.225 -0.1343 -0.4993  0.4628
   68CHL1   C18 6165   2.272  -0.175   3.200  0.5122  0.3374 -0.6202
   68CHL1  H18A 6166   2.186  -0.192   3.269  1.1332 -0.8576 -0.1407
   68CHL1  H18B 6167   2.218  -0.157   3.104  1.6504  1.1174 -1.1242
   68CHL1  H18C 6168   2.326  -0.271   3.196  1.6807  0.9784 -0.5349
   68CHL1   C12 6169   2.298   0.084   3.182  0.3118  0.5861 -0.7887
   68CHL1  H12A 6170   2.201   0.105   3.234 -0.5363 -0.6668 -1.8344
   68CHL1  H12B 6171   2.361   0.169   3.216  1.8774 -1.3810  1.4131
   68CHL1   C11 6172   2.263   0.080   3.028 -0.7502 -0.1977 -0.3058
   68CHL1  H11A 6173   2.177   0.011   3.013 -0.2200 -1.3018  1.6704
   68CHL1  H11B 6174   2.229   0.182   2.999 -1.5940 -0.2823  0.3707
   68CHL1    C9 6175   2.386   0.047   2.945  0.1877 -0.5742  0.0103
   68CHL1    H9 6176   2.465   0.125   2.961 -2.2599  1.9044  0.3786
   68CHL1   C10 6177   2.362   0.058   2.790  0.7852  0.0634  0.0427
   68CHL1   C19 6178   2.225  -0.012   2.753 -0.3776  0.7392 -0.6602
   68CHL1  H19A 6179   2.237  -0.117   2.786  2.0786  0.8607 -1.0743
   68CHL1  H19B 6180   2.137   0.027   2.809  1.5488  0.8109  2.4349
   68CHL1  H19C 6181   2.198  -0.012   2.645  0.8667 -4.7923 -1.1026
   68CHL1    C1 6182   2.351   0.216   2.762 -0.1074  1.1072 -0.1988
   68CHL1   H1A 6183   2.255   0.256   2.799 -0.2669  1.0099 -0.5065
   68CHL1   H1B 6184   2.437   0.279   2.794  1.8775 -2.4500  1.8690
   68CHL1    C2 6185   2.345   0.239   2.605  1.1306 -0.1270 -0.3654
   68CHL1   H2A 6186   2.343   0.347   2.577 -0.9641 -0.1615 -0.4772
   68CHL1   H2B 6187   2.246   0.196   2.579  1.1737 -1.1953  1.1731
   68CHL1   C20 6188   2.332  -0.069   3.487  0.1212  0.0032  0.2511
   68CHL1   H20 6189   2.236  -0.112   3.452 -0.1977  1.7260 -1.0846
   68CHL1   C21 6190   2.304   0.082   3.520 -0.1980 -0.2182  0.9494
   68CHL1  H21A 6191   2.300   0.142   3.426 -0.2879 -0.6490  0.6776
   68CHL1  H21B 6192   2.374   0.130   3.591 -0.9081  1.1361  0.7523
   68CHL1  H21C 6193   2.206   0.081   3.572 -0.7200 -0.8971 -0.0382
   68CHL1   C22 6194   2.394  -0.146   3.604 -0.2051 -0.0294 -0.3491
   68CHL1  H22A 6195   2.399  -0.256   3.588 -0.4465 -0.1778  0.5344
   68CHL1  H22B 6196   2.493  -0.107   3.635  0.7289 -2.6615  0.1395
   68CHL1   C23 6197   2.305  -0.135   3.727  0.6815 -0.5568 -1.4527
   68CHL1  H23A 6198   2.284  -0.031   3.761 -0.0193  0.0457 -3.6606
   68CHL1  H23B 6199   2.207  -0.181   3.702 -0.0626  0.4091 -0.3449
   68CHL1   C24 6200   2.354  -0.226   3.843 -0.3634 -0.3679  0.7883
   68CHL1  H24A 6201   2.358  -0.332   3.811  0.6174  0.4756 -2.0099
   68CHL1  H24B 6202   2.461  -0.195   3.850 -0.2069  0.0127 -2.7063
   68CHL1   C25 6203   2.275  -0.228   3.972  0.0375  0.5092 -0.2333
   68CHL1   H25 6204   2.256  -0.119   3.982  0.4928  0.6303 -0.6605
   68CHL1   C26 6205   2.137  -0.297   3.967 -0.4817 -0.2298 -0.0294
   68CHL1  H26A 6206   2.151  -0.401   3.929  2.4352  0.1660 -0.1804
   68CHL1  H26B 6207   2.105  -0.310   4.073 -0.8078 -2.2062 -0.3503
   68CHL1  H26C 6208   2.054  -0.252   3.909 -0.2804 -1.0888 -1.0056
   68CHL1   C27 6209   2.357  -0.284   4.083  0.0236 -0.0069  0.2473
   68CHL1  H27A 6210   2.380  -0.389   4.059  1.3993  0.8142 -2.1898
   68CHL1  H27B 6211   2.456  -0.234   4.094  0.9265 -1.7915  0.3077
   68CHL1  H27C 6212   2.299  -0.275   4.178 -0.9567 -0.8612 -0.2625
   69CHL1    C3 6213   5.703   6.925   2.513 -1.0872  0.4028 -0.0628
   69CHL1    H3 6214   5.772   6.843   2.542 -3.5100 -0.6112  3.0208
   69CHL1    O3 6215   5.722   6.934   2.374 -0.1982  0.0425 -0.2406
   69CHL1   H3' 6216   5.708   7.027   2.355  2.5866  0.9189  1.5989
   69CHL1    C4 6217   5.553   6.884   2.559 -0.0924 -0.4220 -1.0489
   69CHL1   H4A 6218   5.488   6.945   2.492  3.2947  0.5315 -3.6015
   69CHL1   H4B 6219   5.514   6.787   2.522  1.1781 -1.7819  1.0677
   69CHL1    C5 6220   5.519   6.902   2.710  0.0998 -0.3984 -0.1614
   69CHL1    C6 6221   5.450   6.807   2.779 -0.0687 -1.2697  0.4255
   69CHL1    H6 6222   5.416   6.724   2.715 -1.8194  0.7043 -1.2835
   69CHL1    C7 6223   5.428   6.821   2.929 -0.1202 -0.7912  0.1239
   69CHL1   H7A 6224   5.322   6.793   2.949  0.3899 -0.9808  2.7847
   69CHL1   H7B 6225   5.500   6.760   2.987  1.3476  0.8438  0.0757
   69CHL1    C8 6226   5.446   6.969   2.988 -0.2938  0.0644  0.0014
   69CHL1    H8 6227   5.359   7.033   2.960  0.1268 -0.8823 -3.6431
   69CHL1   C14 6228   5.447   6.957   3.140  0.8130 -0.7016  0.8234
   69CHL1   H14 6229   5.543   6.907   3.163  0.8713 -1.1128 -0.2688
   69CHL1   C15 6230   5.332   6.887   3.219  0.0539  0.5843 -0.2267
   69CHL1  H15A 6231   5.230   6.908   3.181  0.1900  0.8222 -0.4628
   69CHL1  H15B 6232   5.342   6.776   3.214 -1.3407  0.4739 -0.8768
   69CHL1   C16 6233   5.341   6.945   3.361 -0.2627  0.8038 -0.0652
   69CHL1  H16A 6234   5.241   6.989   3.384  0.1016  0.1880  2.9921
   69CHL1  H16B 6235   5.367   6.867   3.436 -1.8109  0.5038  0.1790
   69CHL1   C17 6236   5.457   7.047   3.354 -0.2521 -0.9700  0.3735
   69CHL1   H17 6237   5.554   7.002   3.385  0.7749  0.7829 -0.2740
   69CHL1   C13 6238   5.468   7.091   3.206 -0.7795 -0.4550 -0.3805
   69CHL1   C18 6239   5.353   7.189   3.169  0.8149  0.6676  0.0559
   69CHL1  H18A 6240   5.249   7.157   3.191  1.1156  0.2500  0.8589
   69CHL1  H18B 6241   5.382   7.282   3.224 -2.1375  0.9580  1.2154
   69CHL1  H18C 6242   5.351   7.205   3.059 -0.0066  0.9130  0.1059
   69CHL1   C12 6243   5.608   7.145   3.158 -0.3326 -0.0581  0.5348
   69CHL1  H12A 6244   5.628   7.235   3.219 -1.8205 -0.4113  1.5639
   69CHL1  H12B 6245   5.684   7.067   3.181 -0.1729 -0.4145 -1.1579
   69CHL1   C11 6246   5.607   7.157   3.007 -0.0244 -0.3744  0.4411
   69CHL1  H11A 6247   5.538   7.241   2.987 -2.8400 -2.5716  0.5922
   69CHL1  H11B 6248   5.707   7.198   2.980 -0.3520 -0.3793 -0.8008
   69CHL1    C9 6249   5.574   7.029   2.933  0.6517  0.7722  0.2416
   69CHL1    H9 6250   5.653   6.958   2.967  0.4400  1.0335  1.3129
   69CHL1   C10 6251   5.583   7.022   2.776 -0.0459  0.0877  0.9121
   69CHL1   C19 6252   5.500   7.140   2.722  0.6414 -0.0662  0.2693
   69CHL1  H19A 6253   5.418   7.171   2.790 -0.8649  1.9188 -2.3650
   69CHL1  H19B 6254   5.551   7.238   2.713 -1.3135  0.8200 -1.4855
   69CHL1  H19C 6255   5.449   7.125   2.624  0.4176 -1.0343  0.5299
   69CHL1    C1 6256   5.727   7.045   2.728 -0.0486 -0.3905 -0.1221
   69CHL1   H1A 6257   5.765   7.136   2.778  0.4714 -0.4814 -0.3512
   69CHL1   H1B 6258   5.792   6.966   2.772 -1.1693 -2.4584 -2.0469
   69CHL1    C2 6259   5.741   7.057   2.577 -0.5360  0.0333 -0.2348
   69CHL1   H2A 6260   5.846   7.081   2.550  0.5665 -1.7775  2.1750
   69CHL1   H2B 6261   5.684   7.141   2.534 -2.5499 -0.1600  1.9285
   69CHL1   C20 6262   5.433   7.155   3.462  0.6057 -0.2236 -0.6307
   69CHL1   H20 6263   5.340   7.212   3.442 -0.0959 -0.8006  0.8982
   69CHL1   C21 6264   5.553   7.251   3.469 -0.0983  0.4314 -0.1586
   69CHL1  H21A 6265   5.649   7.198   3.455 -0.6943 -0.7659  0.2710
   69CHL1  H21B 6266   5.566   7.308   3.563 -2.6639 -0.4331  0.7531
   69CHL1  H21C 6267   5.541   7.316   3.379 -2.3178 -0.0624 -0.2553
   69CHL1   C22 6268   5.422   7.097   3.609 -0.0584 -0.6782 -0.1095
   69CHL1  H22A 6269   5.366   7.001   3.614 -3.8224  1.4820  1.3504
   69CHL1  H22B 6270   5.527   7.083   3.641  1.0372  3.2719 -1.6264
   69CHL1   C23 6271   5.336   7.194   3.699 -0.0989 -0.3869  0.7736
   69CHL1  H23A 6272   5.356   7.301   3.677 -2.4925 -0.6115 -2.7430
   69CHL1  H23B 6273   5.228   7.188   3.677 -0.3173  0.4291  1.5387
   69CHL1   C24 6274   5.348   7.166   3.847 -0.7063  0.6171  0.1595
   69CHL1  H24A 6275   5.317   7.060   3.858 -0.1955  0.4157 -0.3478
   69CHL1  H24B 6276   5.455   7.169   3.878  0.0175 -2.1632 -1.9179
   69CHL1   C25 6277   5.263   7.252   3.939  0.2282  0.8427 -0.5878
   69CHL1   H25 6278   5.162   7.264   3.894 -0.0976 -0.4312 -0.2039
   69CHL1   C26 6279   5.254   7.187   4.073  0.7107  0.1694  0.8954
   69CHL1  H26A 6280   5.208   7.086   4.072 -2.2481  1.4508  2.7678
   69CHL1  H26B 6281   5.352   7.198   4.125  1.1486  3.1625 -0.4386
   69CHL1  H26C 6282   5.179   7.235   4.138 -0.6957  0.9911 -1.2886
   69CHL1   C27 6283   5.321   7.389   3.961  0.1287 -0.0333 -0.5728
   69CHL1  H27A 6284   5.302   7.452   3.872 -2.4993 -2.9527 -2.2196
   69CHL1  H27B 6285   5.267   7.445   4.040  0.4073 -0.1678 -0.2866
   69CHL1  H27C 6286   5.430   7.383   3.978  0.3256 -0.6470 -1.9925
   70CHL1    C3 6287   1.439   0.664   2.562 -0.1096 -0.8504 -0.2551
   70CHL1    H3 6288   1.335   0.639   2.592  0.3594  0.6078  2.7495
   70CHL1    O3 6289   1.449   0.681   2.421  0.6421 -0.2423 -0.3501
   70CHL1   H3' 6290   1.403   0.763   2.400 -1.2239 -0.9092  0.9840
   70CHL1    C4 6291   1.480   0.796   2.629 -0.3793  0.3776 -0.4042
   70CHL1   H4A 6292   1.584   0.813   2.594  0.7581  2.5965  3.7240
   70CHL1   H4B 6293   1.428   0.890   2.603  2.6638  2.1178 -0.4488
   70CHL1    C5 6294   1.478   0.768   2.781  0.4131 -0.0064  0.4619
   70CHL1    C6 6295   1.384   0.829   2.864  0.2811 -0.2011 -1.1112
   70CHL1    H6 6296   1.309   0.898   2.823 -1.5514 -0.6517  1.4128
   70CHL1    C7 6297   1.388   0.811   3.008 -0.1366 -0.1200 -0.4867
   70CHL1   H7A 6298   1.364   0.902   3.066  0.9439 -0.3352  0.3100
   70CHL1   H7B 6299   1.316   0.731   3.035 -1.0073  1.3856  1.8022
   70CHL1    C8 6300   1.520   0.756   3.071  0.5214 -0.4801  0.0804
   70CHL1    H8 6301   1.592   0.841   3.070 -1.3298  1.1066 -2.5287
   70CHL1   C14 6302   1.499   0.704   3.217  1.1292 -0.6889 -0.5302
   70CHL1   H14 6303   1.426   0.620   3.211 -2.4366  2.1649  0.7157
   70CHL1   C15 6304   1.429   0.803   3.313 -0.3565 -0.2597 -0.1383
   70CHL1  H15A 6305   1.467   0.906   3.300  1.0496 -0.2663  3.2553
   70CHL1  H15B 6306   1.320   0.815   3.295  0.0315  2.2513 -1.0147
   70CHL1   C16 6307   1.457   0.743   3.449  0.0169  0.5590  0.0157
   70CHL1  H16A 6308   1.495   0.821   3.518 -0.7068 -0.9099  2.1319
   70CHL1  H16B 6309   1.363   0.708   3.496 -1.4925  1.9168 -1.9125
   70CHL1   C17 6310   1.564   0.628   3.422  0.0380 -0.6308 -0.6456
   70CHL1   H17 6311   1.504   0.535   3.414 -4.5641  2.1976 -0.3708
   70CHL1   C13 6312   1.622   0.653   3.282 -0.1420  0.5362 -0.5529
   70CHL1   C18 6313   1.724   0.772   3.289  0.0183  0.3302 -0.2467
   70CHL1  H18A 6314   1.681   0.856   3.348  2.8107  1.9176 -0.3905
   70CHL1  H18B 6315   1.820   0.739   3.335 -0.3016  1.1121  1.0338
   70CHL1  H18C 6316   1.748   0.819   3.191  0.7499 -1.6045 -1.0161
   70CHL1   C12 6317   1.679   0.535   3.200  0.1791 -0.3215  0.9278
   70CHL1  H12A 6318   1.779   0.499   3.232  0.5615  0.4766  0.6325
   70CHL1  H12B 6319   1.610   0.448   3.199  0.4030 -0.5025 -1.3898
   70CHL1   C11 6320   1.702   0.582   3.051 -0.0762  0.1906  0.3301
   70CHL1  H11A 6321   1.788   0.652   3.045  0.0065  0.0336 -0.4797
   70CHL1  H11B 6322   1.733   0.488   2.999 -0.6814  0.4981 -0.5971
   70CHL1    C9 6323   1.576   0.639   2.991 -0.2476  0.1776  0.1661
   70CHL1    H9 6324   1.495   0.563   2.995  0.8030 -1.0690 -1.5083
   70CHL1   C10 6325   1.587   0.673   2.835 -0.5961  0.3116  0.0460
   70CHL1   C19 6326   1.738   0.729   2.812  0.1983  1.0971 -0.7018
   70CHL1  H19A 6327   1.758   0.821   2.870  2.3921  0.6879 -0.7626
   70CHL1  H19B 6328   1.813   0.650   2.834 -0.8075  0.4969  0.6826
   70CHL1  H19C 6329   1.750   0.749   2.704  1.5209  0.8520 -0.6064
   70CHL1    C1 6330   1.560   0.538   2.757 -0.1283 -0.3926 -0.0819
   70CHL1   H1A 6331   1.644   0.469   2.778 -1.5172 -1.7612  1.0698
   70CHL1   H1B 6332   1.473   0.486   2.803 -0.4899  0.0407 -0.2770
   70CHL1    C2 6333   1.540   0.557   2.602  0.0733 -0.0874 -0.5063
   70CHL1   H2A 6334   1.511   0.458   2.562 -0.3879 -0.1562 -0.0069
   70CHL1   H2B 6335   1.631   0.592   2.548  0.2302  0.8307  0.3272
   70CHL1   C20 6336   1.653   0.605   3.541 -0.2628 -1.0033 -0.0643
   70CHL1   H20 6337   1.719   0.692   3.562 -0.5294 -0.5956 -0.8840
   70CHL1   C21 6338   1.746   0.495   3.507 -0.3016  0.0119  0.4594
   70CHL1  H21A 6339   1.686   0.401   3.508  0.2871 -0.3669  0.2900
   70CHL1  H21B 6340   1.826   0.480   3.583 -1.3752  0.7661  1.7499
   70CHL1  H21C 6341   1.798   0.521   3.413 -3.4286  0.7324 -1.1216
   70CHL1   C22 6342   1.571   0.580   3.665 -0.8943 -0.0366  0.3155
   70CHL1  H22A 6343   1.499   0.660   3.689  1.4497  2.5997 -1.0651
   70CHL1  H22B 6344   1.520   0.481   3.657  1.1195 -1.0430 -0.4641
   70CHL1   C23 6345   1.660   0.577   3.786 -0.0688 -0.3721  0.2405
   70CHL1  H23A 6346   1.731   0.492   3.788 -1.2828 -1.3861  0.9513
   70CHL1  H23B 6347   1.717   0.671   3.798  0.2070 -0.3433 -1.2260
   70CHL1   C24 6348   1.585   0.556   3.924 -0.1373  0.8964 -0.2305
   70CHL1  H24A 6349   1.483   0.596   3.906  0.3828  1.4697 -2.0222
   70CHL1  H24B 6350   1.564   0.452   3.959 -0.2994  1.6271  1.9507
   70CHL1   C25 6351   1.667   0.629   4.034 -0.0543 -0.0173 -0.5159
   70CHL1   H25 6352   1.699   0.729   3.996 -0.6017  0.8157  1.1658
   70CHL1   C26 6353   1.589   0.653   4.162 -0.7485  0.7469  0.2819
   70CHL1  H26A 6354   1.494   0.708   4.145 -0.7074  1.1230  1.2377
   70CHL1  H26B 6355   1.563   0.555   4.208  0.5537 -1.1255 -2.7717
   70CHL1  H26C 6356   1.645   0.713   4.237 -1.7548 -0.6838  2.2005
   70CHL1   C27 6357   1.791   0.548   4.072  0.4550 -0.0457  0.5874
   70CHL1  H27A 6358   1.836   0.516   3.976  0.3561  2.8700 -0.4722
   70CHL1  H27B 6359   1.867   0.604   4.130  0.8947  0.6001 -0.6207
   70CHL1  H27C 6360   1.776   0.454   4.130 -0.4264  0.5126  1.2945
   71CHL1    C3 6361   7.246   2.043   2.553  0.4341 -0.2242 -0.3331
   71CHL1    H3 6362   7.295   1.964   2.615  0.3248 -1.2039 -1.4662
   71CHL1    O3 6363   7.278   2.015   2.414  0.6099 -0.0835  0.2324
   71CHL1   H3' 6364   7.196   2.035   2.368  0.1323  0.6352  1.3939
   71CHL1    C4 6365   7.094   2.029   2.582 -0.0060 -0.4084 -0.0439
   71CHL1   H4A 6366   7.050   2.118   2.532  0.5602 -0.4687 -0.6488
   71CHL1   H4B 6367   7.041   1.941   2.538 -1.8316  0.8109 -0.3647
   71CHL1    C5 6368   7.075   2.044   2.731  0.4015  0.1070 -0.7614
   71CHL1    C6 6369   7.002   1.948   2.796 -0.0194 -0.6951  0.2423
   71CHL1    H6 6370   6.972   1.861   2.735  4.2505 -1.0643 -1.4888
   71CHL1    C7 6371   6.984   1.952   2.944 -0.2781 -0.1492  0.0195
   71CHL1   H7A 6372   6.875   1.938   2.960 -0.9598  0.4796 -3.7249
   71CHL1   H7B 6373   7.036   1.862   2.984 -0.3270  0.2066  0.9030
   71CHL1    C8 6374   7.023   2.091   3.014 -0.7268 -0.6935  0.4394
   71CHL1    H8 6375   6.942   2.161   2.983  0.4098 -0.0521 -1.1690
   71CHL1   C14 6376   7.032   2.085   3.164 -0.2021  0.3571 -0.1364
   71CHL1   H14 6377   7.125   2.027   3.179  0.6446  1.8989  0.7179
   71CHL1   C15 6378   6.913   2.022   3.246  0.5950  0.3602  0.0436
   71CHL1  H15A 6379   6.814   2.032   3.197  0.2917  1.4533  0.8951
   71CHL1  H15B 6380   6.918   1.911   3.233  0.1678  0.2718  0.6546
   71CHL1   C16 6381   6.935   2.076   3.384 -0.6472  0.2860 -0.1863
   71CHL1  H16A 6382   6.839   2.122   3.416 -0.2971 -0.7153  2.4957
   71CHL1  H16B 6383   6.965   1.997   3.457  3.1912 -0.1019 -2.0468
   71CHL1   C17 6384   7.050   2.172   3.381 -1.0487  0.2531  0.0736
   71CHL1   H17 6385   7.142   2.111   3.389  0.3147  2.0628 -1.2136
   71CHL1   C13 6386   7.053   2.219   3.228 -0.9987 -0.0289 -0.4871
   71CHL1   C18 6387   6.942   2.319   3.194  0.3438  0.2501  0.7503
   71CHL1  H18A 6388   6.933   2.338   3.085 -4.1607  0.1468  1.0056
   71CHL1  H18B 6389   6.849   2.271   3.232  1.4654 -0.1514  3.0910
   71CHL1  H18C 6390   6.934   2.417   3.245 -2.1753 -0.1500  1.2033
   71CHL1   C12 6391   7.188   2.275   3.180  0.4238 -0.2054  0.2251
   71CHL1  H12A 6392   7.206   2.374   3.228 -1.4009  0.3263 -0.1614
   71CHL1  H12B 6393   7.270   2.211   3.222 -0.7844  0.3170  3.5520
   71CHL1   C11 6394   7.197   2.284   3.027  0.4782 -0.2868  0.1449
   71CHL1  H11A 6395   7.151   2.379   2.992  1.0887 -0.3631 -0.8784
   71CHL1  H11B 6396   7.304   2.298   3.000  0.4530  0.9070  0.6155
   71CHL1    C9 6397   7.151   2.156   2.950 -0.3937 -0.2332  0.1753
   71CHL1    H9 6398   7.233   2.084   2.970  1.2001  1.2076 -1.1176
   71CHL1   C10 6399   7.139   2.173   2.799 -0.1746  0.4268 -0.1373
   71CHL1   C19 6400   7.040   2.291   2.751 -0.2538  0.4312  0.4686
   71CHL1  H19A 6401   7.031   2.293   2.640  0.2719 -2.0802  0.3505
   71CHL1  H19B 6402   6.937   2.278   2.789  0.1910 -0.6173  1.3484
   71CHL1  H19C 6403   7.070   2.392   2.787 -1.7511 -0.1217  3.3646
   71CHL1    C1 6404   7.283   2.209   2.736 -0.4726 -0.3220  0.0399
   71CHL1   H1A 6405   7.296   2.318   2.751  1.7000 -0.3388 -1.4988
   71CHL1   H1B 6406   7.365   2.158   2.792 -0.5842  0.5239  0.9957
   71CHL1    C2 6407   7.289   2.183   2.582 -0.4406 -0.4203  0.2281
   71CHL1   H2A 6408   7.396   2.206   2.562 -0.3736 -1.5974 -0.8273
   71CHL1   H2B 6409   7.223   2.249   2.521  1.5751 -1.1160 -2.8127
   71CHL1   C20 6410   7.048   2.292   3.489  0.1998 -0.0198  0.1705
   71CHL1   H20 6411   7.010   2.381   3.434 -2.1850 -1.1159 -0.0006
   71CHL1   C21 6412   7.186   2.322   3.548  0.2846  0.0576  0.7961
   71CHL1  H21A 6413   7.195   2.415   3.609 -2.1753 -0.0131  1.2925
   71CHL1  H21B 6414   7.246   2.340   3.456 -1.2369 -2.9631 -0.8638
   71CHL1  H21C 6415   7.226   2.233   3.602 -1.0127 -1.1260 -0.1730
   71CHL1   C22 6416   6.950   2.276   3.604  0.1730 -0.4912  0.3714
   71CHL1  H22A 6417   6.850   2.244   3.569 -0.2980 -0.2765  1.5143
   71CHL1  H22B 6418   6.995   2.183   3.644  1.4336  1.0992  2.7704
   71CHL1   C23 6419   6.950   2.389   3.711 -0.5569  0.7493 -0.0558
   71CHL1  H23A 6420   7.046   2.374   3.767  1.0164  1.0885 -2.5959
   71CHL1  H23B 6421   6.935   2.487   3.662 -0.5313  0.5091 -0.5513
   71CHL1   C24 6422   6.849   2.360   3.822 -0.2078 -0.3106 -0.1946
   71CHL1  H24A 6423   6.747   2.349   3.780 -0.1923  0.0673 -0.3420
   71CHL1  H24B 6424   6.871   2.264   3.872 -0.8197  0.8208  2.3466
   71CHL1   C25 6425   6.853   2.465   3.936 -0.1280 -0.2268  0.1629
   71CHL1   H25 6426   6.844   2.565   3.890  3.9146 -0.1660 -0.7325
   71CHL1   C26 6427   6.731   2.442   4.027  0.2738 -0.4182  0.1970
   71CHL1  H26A 6428   6.741   2.340   4.070 -4.2202 -0.9423  0.2156
   71CHL1  H26B 6429   6.715   2.518   4.107 -1.8807  0.0313 -0.6170
   71CHL1  H26C 6430   6.637   2.435   3.968  0.7702  0.0357 -0.6539
   71CHL1   C27 6431   6.986   2.461   4.015  0.5138  0.3044  0.1694
   71CHL1  H27A 6432   6.980   2.531   4.101  0.2665 -0.3624  0.7000
   71CHL1  H27B 6433   7.016   2.362   4.056  0.5617  0.6261  0.9214
   71CHL1  H27C 6434   7.072   2.489   3.951  0.2786  0.1619 -0.2117
   72CHL1    C3 6435   6.140   6.503   2.547 -0.0607  0.4766  0.3084
   72CHL1    H3 6436   6.231   6.461   2.595  2.4758  3.5189 -1.6553
   72CHL1    O3 6437   6.136   6.465   2.415 -0.8130 -0.1683  0.5829
   72CHL1   H3' 6438   6.088   6.382   2.411 -2.0434  0.5079  0.8767
   72CHL1    C4 6439   6.020   6.432   2.610 -0.1335 -0.1847  0.2452
   72CHL1   H4A 6440   5.924   6.464   2.564 -0.0055 -1.0446 -0.6334
   72CHL1   H4B 6441   6.029   6.322   2.593 -0.2809 -0.0874 -0.4874
   72CHL1    C5 6442   6.013   6.464   2.754  0.2528  0.1894 -0.9455
   72CHL1    C6 6443   6.025   6.366   2.837 -0.0662 -0.0273  0.4755
   72CHL1    H6 6444   6.037   6.262   2.803  1.2461  0.6046 -1.0861
   72CHL1    C7 6445   6.007   6.386   2.986 -0.3386 -0.0078  0.0326
   72CHL1   H7A 6446   5.945   6.307   3.034 -1.1881  0.9322  0.5063
   72CHL1   H7B 6447   6.108   6.375   3.032  0.1713 -0.2694 -1.1438
   72CHL1    C8 6448   5.946   6.519   3.028  0.0525 -0.4224  1.2257
   72CHL1    H8 6449   5.839   6.509   2.999  0.7683 -2.0285 -1.0447
   72CHL1   C14 6450   5.973   6.541   3.174  0.3088 -0.1521  0.8922
   72CHL1   H14 6451   6.081   6.542   3.199  1.2012  0.5358 -2.7768
   72CHL1   C15 6452   5.916   6.425   3.260  0.0354 -0.2614  0.4997
   72CHL1  H15A 6453   5.816   6.391   3.224 -0.3969  0.4971  0.9770
   72CHL1  H15B 6454   5.990   6.342   3.261  1.2896  0.8339  0.3084
   72CHL1   C16 6455   5.919   6.494   3.395 -0.9953  0.2668  0.7086
   72CHL1  H16A 6456   5.824   6.483   3.453 -1.0645  2.6165  1.1088
   72CHL1  H16B 6457   6.013   6.467   3.447  0.1443  0.3424 -1.3023
   72CHL1   C17 6458   5.927   6.645   3.379  0.1165  0.1775  0.1603
   72CHL1   H17 6459   6.029   6.678   3.408 -0.1227  0.4286  0.7163
   72CHL1   C13 6460   5.911   6.672   3.228  0.6038  0.1596 -0.3032
   72CHL1   C18 6461   5.759   6.669   3.202 -0.1657 -0.9335 -0.7641
   72CHL1  H18A 6462   5.716   6.648   3.102 -1.5252  1.1384 -0.6326
   72CHL1  H18B 6463   5.716   6.596   3.273 -2.6396  1.8269  0.6733
   72CHL1  H18C 6464   5.706   6.757   3.244 -2.9527 -3.6373  1.6633
   72CHL1   C12 6465   5.986   6.785   3.164 -0.1887 -0.2125  0.3938
   72CHL1  H12A 6466   5.939   6.881   3.198  0.7335  0.3912 -0.0339
   72CHL1  H12B 6467   6.088   6.781   3.206 -0.8710  0.5674  2.2000
   72CHL1   C11 6468   5.988   6.776   3.012 -0.6702  0.4320  0.5263
   72CHL1  H11A 6469   5.892   6.816   2.972  0.5350  1.0899 -1.8020
   72CHL1  H11B 6470   6.063   6.849   2.974 -0.3378  0.4543  1.2279
   72CHL1    C9 6471   6.020   6.632   2.952  0.2528  0.2704 -0.6983
   72CHL1    H9 6472   6.127   6.618   2.977  0.1798 -2.0645 -1.5192
   72CHL1   C10 6473   6.017   6.613   2.793 -0.6599  0.3731  0.1243
   72CHL1   C19 6474   5.879   6.677   2.748 -0.9236  0.2760  0.0481
   72CHL1  H19A 6475   5.889   6.788   2.759  1.8589 -0.0642  1.4553
   72CHL1  H19B 6476   5.876   6.656   2.639 -0.0263 -2.1962  0.4737
   72CHL1  H19C 6477   5.785   6.635   2.789 -0.1245  0.2712  1.9616
   72CHL1    C1 6478   6.133   6.684   2.727 -0.0795 -0.0579  0.1284
   72CHL1   H1A 6479   6.152   6.792   2.743 -0.7546  0.0710  0.0473
   72CHL1   H1B 6480   6.229   6.637   2.757  0.2894  2.3284  2.8653
   72CHL1    C2 6481   6.143   6.656   2.576  0.0184 -0.2571  0.8324
   72CHL1   H2A 6482   6.240   6.687   2.532 -0.1516 -0.6166  0.1906
   72CHL1   H2B 6483   6.065   6.713   2.522 -1.6276 -0.9153  2.4478
   72CHL1   C20 6484   5.845   6.721   3.484 -0.0056 -0.3138  0.7775
   72CHL1   H20 6485   5.739   6.695   3.468  0.8940 -3.5791 -0.2015
   72CHL1   C21 6486   5.863   6.875   3.468 -0.4755 -0.6835 -0.4944
   72CHL1  H21A 6487   5.820   6.938   3.549  1.0033 -0.7144  0.3330
   72CHL1  H21B 6488   5.836   6.921   3.371 -1.0680  1.2389  0.5700
   72CHL1  H21C 6489   5.971   6.900   3.476 -0.3344 -1.4914  0.2994
   72CHL1   C22 6490   5.887   6.681   3.625 -0.3177 -0.4435 -0.7543
   72CHL1  H22A 6491   5.871   6.573   3.643  3.8389 -0.8480  1.1255
   72CHL1  H22B 6492   5.996   6.699   3.632 -0.7154  1.6889  0.3677
   72CHL1   C23 6493   5.816   6.751   3.736  0.7723  0.5229 -0.2324
   72CHL1  H23A 6494   5.854   6.706   3.831  1.4822  2.9402  0.6528
   72CHL1  H23B 6495   5.826   6.861   3.740 -1.2025  0.7180  0.1681
   72CHL1   C24 6496   5.662   6.725   3.735 -0.1197 -0.2836  0.0841
   72CHL1  H24A 6497   5.616   6.799   3.667  0.1175  0.3896  0.6506
   72CHL1  H24B 6498   5.648   6.621   3.698  1.8410 -1.1756  1.7209
   72CHL1   C25 6499   5.598   6.735   3.879  0.1129 -0.1262  0.2013
   72CHL1   H25 6500   5.652   6.658   3.938  1.8350 -0.2035 -1.4120
   72CHL1   C26 6501   5.602   6.873   3.928  0.1457 -0.0184  0.5477
   72CHL1  H26A 6502   5.564   6.951   3.858 -1.1083  0.1928  1.4327
   72CHL1  H26B 6503   5.550   6.894   4.024 -0.7052  3.2625 -0.5597
   72CHL1  H26C 6504   5.710   6.892   3.944  0.9383 -1.8685 -2.4164
   72CHL1   C27 6505   5.457   6.678   3.867 -0.4032  0.4877  0.2151
   72CHL1  H27A 6506   5.421   6.666   3.971 -0.6062 -0.0726  0.0785
   72CHL1  H27B 6507   5.387   6.750   3.818  1.0087  1.3183 -0.6066
   72CHL1  H27C 6508   5.447   6.576   3.824  0.6357  0.3699  0.2426
   73CHL1    C3 6509   0.080   1.029   2.488 -0.4109 -0.8913  0.1156
   73CHL1    H3 6510   0.190   1.030   2.470 -0.1579  1.7457  1.5461
   73CHL1    O3 6511   0.031   1.014   2.360 -0.1226 -0.4525 -0.2862
   73CHL1   H3' 6512  -0.055   0.972   2.369 -0.8237  0.8093 -0.9904
   73CHL1    C4 6513   0.040   0.901   2.562 -0.0319 -0.1666 -0.7543
   73CHL1   H4A 6514  -0.067   0.885   2.536 -0.4504  1.3151  0.0258
   73CHL1   H4B 6515   0.101   0.822   2.513  1.9539  1.1238 -0.4314
   73CHL1    C5 6516   0.050   0.901   2.716  0.0607 -0.1322  0.4556
   73CHL1    C6 6517   0.122   0.806   2.776  0.0291 -0.2321 -0.0633
   73CHL1    H6 6518   0.181   0.750   2.702  1.2999  0.3357  0.4985
   73CHL1    C7 6519   0.150   0.785   2.924 -0.2194  0.3700  0.2008
   73CHL1   H7A 6520   0.138   0.679   2.953 -1.0356  0.5199  0.4397
   73CHL1   H7B 6521   0.251   0.830   2.937 -1.6675  2.9895  3.1920
   73CHL1    C8 6522   0.052   0.883   2.996 -0.3210  0.1840 -0.7308
   73CHL1    H8 6523  -0.048   0.837   3.006 -0.9164  0.8937 -3.2090
   73CHL1   C14 6524   0.107   0.896   3.139 -0.3292  0.0067  0.2398
   73CHL1   H14 6525   0.211   0.933   3.122  0.7442 -2.8182  0.3301
   73CHL1   C15 6526   0.140   0.767   3.221 -0.0727  0.0753 -0.7846
   73CHL1  H15A 6527   0.079   0.681   3.186  0.6865 -0.6718 -0.3068
   73CHL1  H15B 6528   0.249   0.749   3.211 -0.2678 -2.4811  1.2519
   73CHL1   C16 6529   0.120   0.812   3.371  0.3898 -0.6825 -0.4830
   73CHL1  H16A 6530   0.037   0.760   3.423  0.3283  1.3585  1.4931
   73CHL1  H16B 6531   0.212   0.789   3.430 -0.0538 -1.1850  0.0117
   73CHL1   C17 6532   0.084   0.967   3.354  0.1663  0.0538 -0.8932
   73CHL1   H17 6533   0.179   1.022   3.335  1.6178 -1.6238  1.1565
   73CHL1   C13 6534   0.013   0.981   3.223 -0.7821 -0.1265  0.0463
   73CHL1   C18 6535  -0.136   0.923   3.238  0.4192  0.1589  0.0421
   73CHL1  H18A 6536  -0.195   0.912   3.144 -1.0522  0.0172  0.9634
   73CHL1  H18B 6537  -0.146   0.825   3.290 -1.9848  0.7118  0.6540
   73CHL1  H18C 6538  -0.186   0.992   3.308 -1.7758 -1.1655 -0.1611
   73CHL1   C12 6539   0.021   1.132   3.176  0.8159 -0.3926 -0.7745
   73CHL1  H12A 6540  -0.046   1.202   3.231  0.5570 -0.3589 -1.1303
   73CHL1  H12B 6541   0.127   1.163   3.191 -0.0500  2.0344  0.5403
   73CHL1   C11 6542  -0.030   1.126   3.029 -0.0264 -0.3388  0.6140
   73CHL1  H11A 6543  -0.138   1.102   3.023 -0.1737  0.6303 -1.1283
   73CHL1  H11B 6544  -0.007   1.229   2.992  1.0652  0.4683  3.4548
   73CHL1    C9 6545   0.042   1.020   2.931 -0.0597  0.2846  0.3412
   73CHL1    H9 6546   0.150   1.047   2.935  0.3214 -1.2547  1.2187
   73CHL1   C10 6547  -0.007   1.023   2.786  0.1334  0.0145 -0.6535
   73CHL1   C19 6548  -0.164   1.010   2.780  1.0110 -0.2603  0.5789
   73CHL1  H19A 6549  -0.213   1.105   2.813  0.9952 -0.1941  0.3651
   73CHL1  H19B 6550  -0.197   0.983   2.677  0.3807 -1.3480  1.0629
   73CHL1  H19C 6551  -0.194   0.932   2.852 -0.3373 -2.0094 -1.7970
   73CHL1    C1 6552   0.046   1.152   2.718 -0.3709 -0.6948 -0.1196
   73CHL1   H1A 6553   0.006   1.242   2.770  0.1165 -1.0065  0.8014
   73CHL1   H1B 6554   0.157   1.158   2.729 -0.4746  0.4939  0.3424
   73CHL1    C2 6555   0.019   1.152   2.564  0.6718  0.0482  1.0715
   73CHL1   H2A 6556   0.064   1.245   2.523  2.9174 -1.8215 -0.8833
   73CHL1   H2B 6557  -0.090   1.151   2.546  0.6820 -4.9293  0.8033
   73CHL1   C20 6558   0.033   1.046   3.478  0.4902  0.4945 -0.2418
   73CHL1   H20 6559  -0.006   1.145   3.444  1.0785  0.0762 -2.1887
   73CHL1   C21 6560   0.149   1.087   3.565 -0.1959  0.5361 -0.7681
   73CHL1  H21A 6561   0.124   1.162   3.644 -1.7136 -1.9029  1.1503
   73CHL1  H21B 6562   0.231   1.143   3.516 -0.7918  0.1202 -2.2645
   73CHL1  H21C 6563   0.193   1.002   3.621  1.8545  1.5457 -0.7904
   73CHL1   C22 6564  -0.077   0.975   3.555  0.1372  0.1279  0.8312
   73CHL1  H22A 6565  -0.155   0.923   3.496  2.3303 -1.6575 -0.5511
   73CHL1  H22B 6566  -0.034   0.890   3.611 -1.2258 -2.1722 -1.5259
   73CHL1   C23 6567  -0.154   1.060   3.657 -0.4868  0.0386  0.4090
   73CHL1  H23A 6568  -0.069   1.116   3.701  2.1115 -1.2448 -2.7491
   73CHL1  H23B 6569  -0.215   1.135   3.603  0.1249 -0.5185 -1.0983
   73CHL1   C24 6570  -0.232   0.975   3.752 -0.1719  0.2177 -0.3025
   73CHL1  H24A 6571  -0.295   0.902   3.697 -0.2162  0.4165 -0.5172
   73CHL1  H24B 6572  -0.171   0.916   3.824  0.9668 -0.0872 -1.4902
   73CHL1   C25 6573  -0.315   1.072   3.845  0.3463 -0.4589  0.2154
   73CHL1   H25 6574  -0.386   1.128   3.780  0.2754  0.0658  0.7394
   73CHL1   C26 6575  -0.405   0.989   3.936 -0.2407  0.6236  0.5573
   73CHL1  H26A 6576  -0.474   0.924   3.878  3.0085 -2.3066 -0.2508
   73CHL1  H26B 6577  -0.344   0.921   4.000  1.5902  0.8342 -0.9131
   73CHL1  H26C 6578  -0.463   1.061   3.997  1.1926  0.9742  1.5428
   73CHL1   C27 6579  -0.221   1.169   3.923  0.0108  0.1241  0.6010
   73CHL1  H27A 6580  -0.145   1.110   3.979 -0.9485 -1.8119 -0.0743
   73CHL1  H27B 6581  -0.179   1.236   3.846  1.2457  2.0946  2.9338
   73CHL1  H27C 6582  -0.281   1.230   3.995 -0.6655 -1.1784  1.1709
   74CHL1    C3 6583   1.464   7.278   2.532  0.4732 -0.7568  0.4074
   74CHL1    H3 6584   1.556   7.219   2.550  0.5490 -0.8474 -0.2493
   74CHL1    O3 6585   1.434   7.287   2.396  0.0359 -0.2356  0.0686
   74CHL1   H3' 6586   1.507   7.338   2.360  1.6624  0.2294  3.7162
   74CHL1    C4 6587   1.349   7.207   2.604 -0.6236  0.3659  0.7801
   74CHL1   H4A 6588   1.247   7.252   2.600 -0.5474  0.4836  0.2234
   74CHL1   H4B 6589   1.337   7.099   2.578  1.9621  0.3761 -0.5922
   74CHL1    C5 6590   1.376   7.208   2.751 -0.3635  0.2829 -0.3853
   74CHL1    C6 6591   1.381   7.097   2.828  0.2139 -0.2244 -0.9330
   74CHL1    H6 6592   1.352   6.997   2.792  1.1643 -1.6156  1.9606
   74CHL1    C7 6593   1.401   7.099   2.977 -0.2007 -0.4056 -0.1277
   74CHL1   H7A 6594   1.354   7.019   3.039 -2.2736  1.0593  0.2468
   74CHL1   H7B 6595   1.510   7.088   2.994 -0.1991  0.2399  0.2994
   74CHL1    C8 6596   1.355   7.235   3.038  0.2280  0.3875 -1.1312
   74CHL1    H8 6597   1.245   7.243   3.031 -0.0857  0.0304  2.4269
   74CHL1   C14 6598   1.389   7.240   3.188  0.3039  0.3409 -0.2919
   74CHL1   H14 6599   1.499   7.232   3.195  0.3408  1.3358  0.3085
   74CHL1   C15 6600   1.336   7.123   3.275 -0.8545  0.0364 -0.6761
   74CHL1  H15A 6601   1.233   7.101   3.241 -0.8943 -0.0012 -0.5341
   74CHL1  H15B 6602   1.399   7.035   3.252 -1.0017 -0.5396  1.0157
   74CHL1   C16 6603   1.340   7.177   3.420 -0.0708 -0.5718  0.8064
   74CHL1  H16A 6604   1.238   7.161   3.461  0.1924  0.3225  1.8339
   74CHL1  H16B 6605   1.396   7.106   3.483  1.5196 -0.1264 -0.0861
   74CHL1   C17 6606   1.389   7.326   3.410  0.1983 -0.5645 -1.0325
   74CHL1   H17 6607   1.499   7.322   3.424 -0.1213 -2.7349  1.2523
   74CHL1   C13 6608   1.356   7.366   3.261  0.0916  0.3495 -0.6127
   74CHL1   C18 6609   1.199   7.391   3.254  0.5064 -0.1180  0.1289
   74CHL1  H18A 6610   1.161   7.472   3.319  1.2099  1.7265 -1.7117
   74CHL1  H18B 6611   1.170   7.417   3.150  1.3503  2.4809  0.5155
   74CHL1  H18C 6612   1.146   7.295   3.274 -0.7042  0.5114 -0.0263
   74CHL1   C12 6613   1.437   7.473   3.196  0.1599 -0.0246 -0.3778
   74CHL1  H12A 6614   1.413   7.573   3.238  0.9241 -0.2850  0.6911
   74CHL1  H12B 6615   1.546   7.458   3.211  0.6736  0.4011 -3.4392
   74CHL1   C11 6616   1.414   7.484   3.045  0.1328  0.1304  0.4255
   74CHL1  H11A 6617   1.312   7.527   3.035  0.7111  1.3441 -0.2204
   74CHL1  H11B 6618   1.487   7.549   2.993  1.3748 -1.4665  0.1385
   74CHL1    C9 6619   1.432   7.345   2.972 -0.1623 -0.4253 -0.4167
   74CHL1    H9 6620   1.541   7.322   2.970  0.1259  0.9750 -2.0239
   74CHL1   C10 6621   1.388   7.349   2.820 -0.0734 -0.0877 -0.0231
   74CHL1   C19 6622   1.254   7.425   2.810  0.2444  0.5371  0.2937
   74CHL1  H19A 6623   1.258   7.533   2.834 -0.7713  0.3853  1.2024
   74CHL1  H19B 6624   1.213   7.421   2.707 -2.7909 -0.4936  1.4684
   74CHL1  H19C 6625   1.178   7.380   2.879 -1.4165  3.1834  0.2541
   74CHL1    C1 6626   1.497   7.426   2.745 -0.2553  0.3135  0.4530
   74CHL1   H1A 6627   1.500   7.534   2.773 -0.7379 -0.0863  2.1224
   74CHL1   H1B 6628   1.596   7.388   2.778 -0.7668 -0.2432  1.3826
   74CHL1    C2 6629   1.485   7.424   2.593 -0.2250  0.0658  0.8159
   74CHL1   H2A 6630   1.581   7.454   2.545  0.1563  2.1621  2.8494
   74CHL1   H2B 6631   1.404   7.493   2.561  0.4192 -0.1677 -1.4094
   74CHL1   C20 6632   1.344   7.413   3.526 -0.2339 -0.1124 -0.4497
   74CHL1   H20 6633   1.233   7.410   3.531 -0.3447 -0.9242 -2.5523
   74CHL1   C21 6634   1.386   7.565   3.515  0.2810  0.1903  0.5418
   74CHL1  H21A 6635   1.318   7.617   3.445 -1.5207 -2.4189  0.2847
   74CHL1  H21B 6636   1.494   7.573   3.490 -0.3076  0.9434 -1.9295
   74CHL1  H21C 6637   1.366   7.628   3.604 -1.6050 -0.3074  0.4909
   74CHL1   C22 6638   1.384   7.356   3.665  0.3078 -0.2954  0.0637
   74CHL1  H22A 6639   1.400   7.247   3.655 -3.3563 -0.9848  1.0229
   74CHL1  H22B 6640   1.482   7.401   3.695 -0.3948 -1.2368  4.0483
   74CHL1   C23 6641   1.282   7.387   3.770  0.7526 -0.0791 -0.4953
   74CHL1  H23A 6642   1.264   7.496   3.780 -0.8236 -0.3612 -0.1479
   74CHL1  H23B 6643   1.187   7.353   3.724  0.4046  0.5106 -0.2120
   74CHL1   C24 6644   1.325   7.334   3.900 -0.4027  0.9527 -0.3896
   74CHL1  H24A 6645   1.301   7.227   3.913 -1.0365  1.3577  2.0201
   74CHL1  H24B 6646   1.434   7.348   3.919 -0.2166  0.9943 -1.4848
   74CHL1   C25 6647   1.265   7.401   4.025  1.1031  1.3439 -0.5394
   74CHL1   H25 6648   1.312   7.343   4.107  0.5720 -0.9404 -1.8094
   74CHL1   C26 6649   1.312   7.554   4.031  0.6260 -0.0180 -0.0881
   74CHL1  H26A 6650   1.263   7.611   3.949  0.1292  0.1858  0.3494
   74CHL1  H26B 6651   1.289   7.595   4.132 -0.4972 -0.4968 -0.1436
   74CHL1  H26C 6652   1.422   7.556   4.016  0.4294  1.4174 -1.5422
   74CHL1   C27 6653   1.110   7.389   4.018 -0.0255  0.2702  0.1734
   74CHL1  H27A 6654   1.076   7.464   3.943 -1.1050  0.4857  0.8683
   74CHL1  H27B 6655   1.079   7.287   3.987 -1.6602  1.0438 -0.8197
   74CHL1  H27C 6656   1.053   7.420   4.108 -0.1091  0.5040  0.0413
   75CHL1    C3 6657   0.985   0.097   2.487 -0.0571 -0.5986 -0.0733
   75CHL1    H3 6658   1.083   0.113   2.538 -0.8128  0.5206  1.0879
   75CHL1    O3 6659   1.002   0.088   2.349 -0.2314  0.0300  0.3761
   75CHL1   H3' 6660   0.910   0.071   2.326  0.7873 -1.1296 -3.1348
   75CHL1    C4 6661   0.926  -0.029   2.544 -0.4771  0.4863 -0.1485
   75CHL1   H4A 6662   0.828  -0.058   2.500  0.3910 -0.6546 -1.3710
   75CHL1   H4B 6663   0.994  -0.110   2.510 -0.0607  0.3053  1.0654
   75CHL1    C5 6664   0.908  -0.032   2.695  0.1451 -0.0329 -0.1339
   75CHL1    C6 6665   0.963  -0.123   2.775  0.2658 -0.2053 -0.8174
   75CHL1    H6 6666   1.025  -0.203   2.731  1.3706  0.9309 -1.3641
   75CHL1    C7 6667   0.938  -0.129   2.925 -0.0866 -0.8050  0.1931
   75CHL1   H7A 6668   0.928  -0.234   2.958  2.2741 -1.1116 -0.0386
   75CHL1   H7B 6669   1.032  -0.094   2.973 -1.6071 -1.1065  3.5246
   75CHL1    C8 6670   0.837  -0.028   2.980 -0.0673  0.3347 -0.4851
   75CHL1    H8 6671   0.740  -0.079   2.965  0.0746 -0.3837  0.9508
   75CHL1   C14 6672   0.848  -0.002   3.129 -0.4705  0.6307  0.7747
   75CHL1   H14 6673   0.949   0.043   3.135 -0.4820  0.5774  1.3385
   75CHL1   C15 6674   0.870  -0.120   3.226 -0.4007  0.0351 -0.3442
   75CHL1  H15A 6675   0.796  -0.201   3.211  1.2441 -2.1991  3.0522
   75CHL1  H15B 6676   0.972  -0.162   3.217 -0.3045  0.8352 -3.9543
   75CHL1   C16 6677   0.840  -0.061   3.363  0.5623 -0.3612 -0.0300
   75CHL1  H16A 6678   0.750  -0.118   3.394  1.3477 -0.8194  1.4796
   75CHL1  H16B 6679   0.919  -0.076   3.440  1.6663 -0.9252 -1.2575
   75CHL1   C17 6680   0.796   0.088   3.338  0.0178 -0.4494 -1.0435
   75CHL1   H17 6681   0.888   0.151   3.341 -1.2423  1.3913  0.3305
   75CHL1   C13 6682   0.748   0.093   3.192 -0.4608  0.1161  0.0572
   75CHL1   C18 6683   0.607   0.042   3.190  0.2578 -0.0361 -0.5534
   75CHL1  H18A 6684   0.562   0.025   3.090 -0.1429 -1.1868 -0.1828
   75CHL1  H18B 6685   0.598  -0.058   3.237  1.0484 -0.5100 -1.4000
   75CHL1  H18C 6686   0.545   0.111   3.251  1.9034  0.4700  0.6095
   75CHL1   C12 6687   0.766   0.224   3.116 -0.4831  0.5568 -0.3559
   75CHL1  H12A 6688   0.687   0.295   3.147 -0.7945 -0.7148  1.8930
   75CHL1  H12B 6689   0.870   0.256   3.136 -0.4810  0.8749 -0.8732
   75CHL1   C11 6690   0.750   0.208   2.964 -0.6535  0.9059  0.6561
   75CHL1  H11A 6691   0.647   0.169   2.949 -0.0125 -0.1301 -1.1585
   75CHL1  H11B 6692   0.763   0.308   2.917  0.2049 -0.1916 -1.4715
   75CHL1    C9 6693   0.843   0.102   2.900  0.2671  0.7719 -0.0597
   75CHL1    H9 6694   0.949   0.134   2.910  1.0530 -1.3359 -1.2214
   75CHL1   C10 6695   0.826   0.089   2.749 -0.1460 -0.7281 -0.4661
   75CHL1   C19 6696   0.672   0.059   2.723 -1.0235 -0.0071 -0.0799
   75CHL1  H19A 6697   0.619   0.154   2.743  2.6993  2.0216  0.6846
   75CHL1  H19B 6698   0.662   0.034   2.615  1.4108  2.5971 -0.9766
   75CHL1  H19C 6699   0.632  -0.024   2.785  1.0357 -0.7600  0.2729
   75CHL1    C1 6700   0.873   0.221   2.673 -0.0807  0.5389  0.4559
   75CHL1   H1A 6701   0.800   0.300   2.699  0.5336  0.6551  1.8782
   75CHL1   H1B 6702   0.971   0.253   2.716 -0.1115  0.1402  0.8277
   75CHL1    C2 6703   0.891   0.211   2.525 -0.0469 -0.3216  0.2981
   75CHL1   H2A 6704   0.946   0.304   2.499  0.0767 -0.6686 -0.6929
   75CHL1   H2B 6705   0.797   0.201   2.466  0.1150 -2.0835  0.3385
   75CHL1   C20 6706   0.702   0.148   3.448  0.7056 -0.1804 -0.0802
   75CHL1   H20 6707   0.603   0.099   3.453  1.1025 -0.9354  0.5947
   75CHL1   C21 6708   0.672   0.299   3.414 -0.1433 -0.1196  0.4403
   75CHL1  H21A 6709   0.760   0.358   3.382 -0.7034  1.0362  1.0229
   75CHL1  H21B 6710   0.617   0.352   3.495 -2.5383  0.4441 -1.4837
   75CHL1  H21C 6711   0.587   0.306   3.343 -0.6181 -1.3363  0.8705
   75CHL1   C22 6712   0.773   0.149   3.586 -0.4446 -0.4247 -0.1865
   75CHL1  H22A 6713   0.851   0.071   3.597  0.3442 -0.0027 -2.3910
   75CHL1  H22B 6714   0.825   0.246   3.597  1.6090 -1.7331  2.2727
   75CHL1   C23 6715   0.670   0.135   3.705 -0.5635  0.2052  0.1495
   75CHL1  H23A 6716   0.586   0.205   3.686 -3.0729 -2.4123  1.3908
   75CHL1  H23B 6717   0.629   0.033   3.695 -0.5062  0.0755  1.1773
   75CHL1   C24 6718   0.731   0.156   3.847  0.1841  0.5234 -0.7312
   75CHL1  H24A 6719   0.813   0.081   3.859 -0.8869 -0.6886 -0.8160
   75CHL1  H24B 6720   0.787   0.252   3.846  1.4946 -0.2105  0.2011
   75CHL1   C25 6721   0.629   0.167   3.962 -0.4161  0.6695 -0.5258
   75CHL1   H25 6722   0.541   0.103   3.938  1.3385 -1.3740 -1.6252
   75CHL1   C26 6723   0.692   0.106   4.092  0.2850 -0.0209  0.6010
   75CHL1  H26A 6724   0.799   0.133   4.099  0.1231  1.1349 -1.1256
   75CHL1  H26B 6725   0.637   0.137   4.184 -0.1173  0.5939  0.1655
   75CHL1  H26C 6726   0.698  -0.005   4.094 -0.2707 -0.0393  2.2023
   75CHL1   C27 6727   0.588   0.310   3.983  0.1993  0.9036 -0.6348
   75CHL1  H27A 6728   0.668   0.365   4.037 -1.0740 -0.2210  2.5758
   75CHL1  H27B 6729   0.559   0.358   3.888  1.0901 -0.8520 -1.8127
   75CHL1  H27C 6730   0.499   0.314   4.050  0.2738  1.5271 -0.5690
   76CHL1    C3 6731   0.423   6.949   2.573 -0.8691  0.1936  0.2132
   76CHL1    H3 6732   0.421   6.838   2.582 -1.2886  0.1133 -0.7583
   76CHL1    O3 6733   0.459   6.972   2.438 -0.4336  0.8606  0.3047
   76CHL1   H3' 6734   0.553   6.953   2.433 -0.1733  1.8648  1.1506
   76CHL1    C4 6735   0.284   7.010   2.611 -0.1466  0.8316  0.0806
   76CHL1   H4A 6736   0.282   7.119   2.592  1.4999  0.6090 -1.5556
   76CHL1   H4B 6737   0.193   6.980   2.554  0.7232 -2.2804  0.2085
   76CHL1    C5 6738   0.262   6.977   2.755 -0.0346  0.7845  0.0229
   76CHL1    C6 6739   0.149   6.904   2.796 -0.0058  0.0220  0.0971
   76CHL1    H6 6740   0.085   6.866   2.715  0.3706 -0.2537 -0.0792
   76CHL1    C7 6741   0.107   6.891   2.941  0.7586  0.2662  0.0054
   76CHL1   H7A 6742   0.000   6.922   2.948 -0.0541 -2.6105  0.7525
   76CHL1   H7B 6743   0.111   6.783   2.967 -0.2980 -0.3233 -2.1565
   76CHL1    C8 6744   0.178   6.989   3.032 -0.1649 -0.7187  0.2165
   76CHL1    H8 6745   0.148   7.090   2.998  1.6160  0.0371  0.8464
   76CHL1   C14 6746   0.146   6.950   3.176 -0.1166 -0.3296  0.4291
   76CHL1   H14 6747   0.202   6.856   3.194  1.5822  0.0929 -2.2849
   76CHL1   C15 6748   0.000   6.922   3.213 -0.1791  0.6810  0.2665
   76CHL1  H15A 6749  -0.054   6.999   3.154 -0.2715 -0.1725 -0.7644
   76CHL1  H15B 6750  -0.032   6.820   3.183 -0.7247  0.5538  1.2699
   76CHL1   C16 6751  -0.008   6.957   3.363  0.0261 -0.4831 -0.2090
   76CHL1  H16A 6752  -0.091   7.029   3.376  1.1525  0.7916  0.0227
   76CHL1  H16B 6753  -0.036   6.858   3.405 -0.0855 -0.3977 -0.0819
   76CHL1   C17 6754   0.136   7.002   3.398  0.0637  0.0213  0.1106
   76CHL1   H17 6755   0.186   6.906   3.422  0.4822 -0.2763 -1.8590
   76CHL1   C13 6756   0.196   7.059   3.275  0.1563 -0.3625  0.6623
   76CHL1   C18 6757   0.134   7.198   3.243 -0.5813  0.6849  0.0737
   76CHL1  H18A 6758   0.175   7.230   3.145  1.8032 -1.1692  0.4217
   76CHL1  H18B 6759   0.025   7.192   3.222 -0.1145 -1.3509 -2.0069
   76CHL1  H18C 6760   0.168   7.279   3.312 -0.2699 -0.0390  0.7750
   76CHL1   C12 6761   0.346   7.057   3.259 -0.6602  0.8595 -0.3679
   76CHL1  H12A 6762   0.406   7.136   3.308  1.3856 -0.6944 -0.3141
   76CHL1  H12B 6763   0.382   6.963   3.307  0.0302  1.2333 -0.1496
   76CHL1   C11 6764   0.403   7.071   3.112 -0.8121  0.2739 -0.4491
   76CHL1  H11A 6765   0.389   7.180   3.095 -0.0412  0.6021  0.9069
   76CHL1  H11B 6766   0.513   7.055   3.114 -0.6607  1.0579 -2.0611
   76CHL1    C9 6767   0.330   6.991   2.999  0.2356  0.6935 -0.5942
   76CHL1    H9 6768   0.360   6.884   3.005  0.3536  0.6803 -1.4116
   76CHL1   C10 6769   0.365   7.039   2.853  0.8078 -0.0114 -0.6574
   76CHL1   C19 6770   0.356   7.186   2.851 -0.4737 -0.4197  0.2679
   76CHL1  H19A 6771   0.278   7.232   2.915 -0.0687 -0.6242  0.9096
   76CHL1  H19B 6772   0.440   7.235   2.905 -0.3568 -1.0982  0.7020
   76CHL1  H19C 6773   0.358   7.235   2.751 -1.0644  1.0011  0.9361
   76CHL1    C1 6774   0.508   6.998   2.808  1.1393 -0.3729 -0.5343
   76CHL1   H1A 6775   0.587   7.055   2.861 -1.6562  1.6920  1.5340
   76CHL1   H1B 6776   0.520   6.892   2.840 -1.8843 -0.3327  0.8347
   76CHL1    C2 6777   0.534   7.013   2.662  0.5034 -0.1711  0.1516
   76CHL1   H2A 6778   0.632   6.964   2.650 -0.2095 -1.5256 -0.2395
   76CHL1   H2B 6779   0.538   7.119   2.627  1.6668 -0.7020 -1.3801
   76CHL1   C20 6780   0.134   7.101   3.526  0.3253 -0.0699 -0.2129
   76CHL1   H20 6781   0.093   7.200   3.496 -0.7106 -0.0544  1.2274
   76CHL1   C21 6782   0.280   7.114   3.570  0.3476 -0.0475  0.0029
   76CHL1  H21A 6783   0.317   7.010   3.587  0.3195 -0.1017 -0.2550
   76CHL1  H21B 6784   0.279   7.171   3.665 -2.0308 -0.0010 -0.0322
   76CHL1  H21C 6785   0.341   7.176   3.501 -1.9325  1.7497 -0.4268
   76CHL1   C22 6786   0.041   7.046   3.642  0.1669 -0.1970  0.4557
   76CHL1  H22A 6787  -0.056   7.002   3.610  0.3924  0.0914 -0.6525
   76CHL1  H22B 6788   0.101   6.959   3.674  0.1066 -0.4362 -0.0729
   76CHL1   C23 6789   0.009   7.145   3.750  0.1035  0.0845  0.2682
   76CHL1  H23A 6790   0.098   7.163   3.812  2.0695 -1.5299 -1.9870
   76CHL1  H23B 6791  -0.003   7.244   3.700  0.5254 -0.5066 -1.0128
   76CHL1   C24 6792  -0.107   7.110   3.847  0.5342  0.1137  0.2658
   76CHL1  H24A 6793  -0.202   7.095   3.793  0.7583 -1.5480  0.2931
   76CHL1  H24B 6794  -0.080   7.013   3.895 -0.5910  0.0058  0.6817
   76CHL1   C25 6795  -0.115   7.213   3.966  0.8388  0.0332  0.7965
   76CHL1   H25 6796  -0.089   7.312   3.923  0.2456  0.1486  0.6980
   76CHL1   C26 6797  -0.257   7.224   4.027  0.7089  0.1168 -0.7094
   76CHL1  H26A 6798  -0.275   7.124   4.072 -2.8367  0.6972 -0.7128
   76CHL1  H26B 6799  -0.263   7.309   4.097  0.7109  0.9248 -1.6751
   76CHL1  H26C 6800  -0.341   7.230   3.954  0.8118  0.6564 -0.7803
   76CHL1   C27 6801  -0.014   7.183   4.074  0.6217 -0.3750 -0.4538
   76CHL1  H27A 6802  -0.020   7.255   4.158 -1.3909  0.0221 -0.9132
   76CHL1  H27B 6803  -0.038   7.083   4.116 -0.0982  0.3505  0.8581
   76CHL1  H27C 6804   0.091   7.178   4.038  1.4992  0.8704  1.8473
   77SOPE     N 6805   3.645   3.851   6.468  0.1885  0.0588  0.4647
   77SOPE   HN1 6806   3.659   3.950   6.440 -1.5738  0.3432  0.5642
   77SOPE   HN2 6807   3.567   3.859   6.536 -0.0713  1.1183  0.0454
   77SOPE   HN3 6808   3.736   3.819   6.507  1.4257  0.8233 -1.6730
   77SOPE   C12 6809   3.601   3.761   6.361 -0.5514 -0.3792  0.6393
   77SOPE  H12A 6810   3.568   3.661   6.398 -1.1683 -0.4327 -0.0431
   77SOPE  H12B 6811   3.692   3.744   6.300 -2.5835 -0.7442 -2.3496
   77SOPE   C11 6812   3.487   3.818   6.291 -0.0008  0.0678  1.1927
   77SOPE  H11A 6813   3.473   3.751   6.204  3.2457 -1.5713  1.8503
   77SOPE  H11B 6814   3.520   3.912   6.242  0.3497 -1.2742 -1.2410
   77SOPE     P 6815   3.246   3.898   6.316  0.1702  0.1559 -0.2331
   77SOPE   O13 6816   3.162   3.928   6.433 -0.1512 -0.0386 -0.1599
   77SOPE   O14 6817   3.198   3.804   6.213  0.1310  0.3719 -0.2484
   77SOPE   O12 6818   3.376   3.836   6.377  0.5957  0.5626 -0.2709
   77SOPE   O11 6819   3.298   4.029   6.258  0.0086 -0.0583 -0.3900
   77SOPE    C1 6820   3.271   4.069   6.124  0.0308  0.8649  0.6095
   77SOPE    HA 6821   3.168   4.046   6.088  1.4520  1.1439 -3.9899
   77SOPE    HB 6822   3.342   4.021   6.054 -0.7195 -1.0142  1.1023
   77SOPE    C2 6823   3.312   4.218   6.094  0.7894  0.4692  0.3975
   77SOPE    HS 6824   3.228   4.285   6.124  0.6729  0.7456 -0.5411
   77SOPE   O21 6825   3.341   4.228   5.957 -0.1339  0.9956  0.1490
   77SOPE   C21 6826   3.341   4.343   5.905 -0.0357 -0.2157 -0.1507
   77SOPE   O22 6827   3.295   4.445   5.950  0.1321 -0.1113 -0.2269
   77SOPE   C22 6828   3.412   4.333   5.772 -0.2128  0.1152  0.4147
   77SOPE   H2R 6829   3.376   4.240   5.723  1.1360  0.3086 -0.9934
   77SOPE   H2S 6830   3.519   4.318   5.797 -0.5513  0.0173  1.8416
   77SOPE    C3 6831   3.430   4.269   6.177  0.2395 -0.1086  0.2999
   77SOPE    HX 6832   3.517   4.200   6.166  0.3197 -0.0621  0.6406
   77SOPE    HY 6833   3.395   4.248   6.280  1.0252  0.9530  0.7906
   77SOPE   O31 6834   3.454   4.411   6.164  0.8811  0.4120  0.0590
   77SOPE   C31 6835   3.563   4.441   6.235  0.1148  0.5097 -0.3328
   77SOPE   O32 6836   3.616   4.370   6.317  0.1877 -0.1912 -0.0281
   77SOPE   C32 6837   3.614   4.580   6.202  0.3412 -0.5404 -0.3683
   77SOPE   H2X 6838   3.703   4.577   6.134 -0.3294 -1.8043 -1.2017
   77SOPE   H2Y 6839   3.646   4.616   6.302 -0.5306 -0.4266 -0.1325
   77SOPE   C23 6840   3.403   4.457   5.678 -0.1461  0.2056  0.0331
   77SOPE   H3R 6841   3.435   4.539   5.746  0.0206  0.7740 -0.7282
   77SOPE   H3S 6842   3.296   4.470   5.654 -0.2033  0.3909  0.3855
   77SOPE   C24 6843   3.487   4.450   5.547 -0.0331 -0.5403  0.0333
   77SOPE   H4R 6844   3.470   4.545   5.493 -1.9077  0.2458  1.9590
   77SOPE   H4S 6845   3.592   4.459   5.583 -0.7034  2.5291  1.2902
   77SOPE   C25 6846   3.452   4.340   5.460  0.0024  0.2243  0.8488
   77SOPE   H5R 6847   3.492   4.240   5.490  2.4988 -0.2524 -3.6392
   77SOPE   H5S 6848   3.342   4.323   5.459  0.3562 -2.2096 -2.1938
   77SOPE   C26 6849   3.490   4.380   5.315  0.0924  0.5130  0.7888
   77SOPE   H6R 6850   3.403   4.434   5.271  0.3456  0.7542  0.5833
   77SOPE   H6S 6851   3.579   4.446   5.312  2.1290 -2.2205 -0.2688
   77SOPE   C27 6852   3.525   4.255   5.223 -0.2381 -0.1761  0.1971
   77SOPE   H7R 6853   3.606   4.190   5.262 -1.2471 -0.3059  2.1258
   77SOPE   H7S 6854   3.438   4.190   5.200  0.3064 -0.2925 -1.6492
   77SOPE   C28 6855   3.589   4.293   5.089 -0.5947  0.1519 -0.2636
   77SOPE   H8R 6856   3.677   4.359   5.103 -0.2426 -0.5436  0.9031
   77SOPE   H8S 6857   3.638   4.204   5.043 -0.9229 -0.6549  0.9105
   77SOPE   C29 6858   3.488   4.354   4.999 -0.0406 -0.2284 -0.2677
   77SOPE   H91 6859   3.458   4.455   5.029 -1.0245 -0.3119 -0.9405
   77SOPE  C210 6860   3.446   4.305   4.881  0.8012 -0.2610  0.4488
   77SOPE  H101 6861   3.372   4.373   4.837  1.4965 -0.5243 -1.1480
   77SOPE  C211 6862   3.489   4.181   4.804  0.1479 -0.2995  0.5054
   77SOPE  H11R 6863   3.398   4.148   4.749  1.2059  0.7693 -1.9359
   77SOPE  H11S 6864   3.518   4.094   4.867 -1.6341 -1.4685 -0.2304
   77SOPE  C212 6865   3.580   4.223   4.687 -0.3456  0.6963  0.8175
   77SOPE  H12R 6866   3.673   4.259   4.735 -0.6403 -0.7571  2.5289
   77SOPE  H12S 6867   3.515   4.295   4.633  0.5383 -0.0025 -1.2605
   77SOPE  C213 6868   3.614   4.100   4.596 -0.2217 -0.1122  0.1477
   77SOPE  H13R 6869   3.552   4.015   4.630 -0.1097  0.7900  2.6925
   77SOPE  H13S 6870   3.717   4.062   4.615 -0.7365 -0.4746  2.3740
   77SOPE  C214 6871   3.598   4.129   4.447  0.2116  0.2730  0.5739
   77SOPE  H14R 6872   3.665   4.062   4.389  0.9569  1.1550  0.4163
   77SOPE  H14S 6873   3.627   4.236   4.445 -1.0432  0.6109 -0.6571
   77SOPE  C215 6874   3.456   4.103   4.391  0.3691  0.2413 -0.4831
   77SOPE  H15R 6875   3.370   4.152   4.441  1.0164 -1.4703  2.4267
   77SOPE  H15S 6876   3.430   3.997   4.411 -1.1459  0.6364 -0.2930
   77SOPE  C216 6877   3.448   4.155   4.248  0.1003 -0.3767 -0.0687
   77SOPE  H16R 6878   3.351   4.124   4.205 -0.5612  2.8201 -0.9919
   77SOPE  H16S 6879   3.530   4.124   4.179  1.8003  0.7208  1.4132
   77SOPE  C217 6880   3.441   4.310   4.253 -0.0222 -0.5760 -0.1583
   77SOPE  H17R 6881   3.544   4.344   4.275 -0.7189  1.4991  0.0252
   77SOPE  H17S 6882   3.366   4.344   4.328 -0.9390  2.9225 -2.5518
   77SOPE  C218 6883   3.406   4.365   4.114  0.1273  0.2254 -0.0650
   77SOPE  H18R 6884   3.394   4.475   4.114  0.3470  0.2506  0.3170
   77SOPE  H18S 6885   3.308   4.333   4.072  0.8602  0.3245 -1.8908
   77SOPE  H18T 6886   3.488   4.329   4.049 -1.1723 -2.1804 -0.4283
   77SOPE   C33 6887   3.505   4.676   6.151  0.7173 -0.3528 -0.2874
   77SOPE   H3X 6888   3.423   4.676   6.226  0.9520 -0.1871 -0.0320
   77SOPE   H3Y 6889   3.460   4.639   6.056  0.0770  1.5261 -0.7355
   77SOPE   C34 6890   3.560   4.821   6.123 -0.1550  0.3652 -0.2730
   77SOPE   H4X 6891   3.589   4.870   6.219 -0.5686 -2.1576  1.2004
   77SOPE   H4Y 6892   3.469   4.870   6.082  0.7540  1.0242 -1.4987
   77SOPE   C35 6893   3.673   4.835   6.021 -0.5716  0.2372  0.7779
   77SOPE   H5X 6894   3.768   4.799   6.065 -1.8271 -3.5755  0.6205
   77SOPE   H5Y 6895   3.693   4.942   6.000  1.9840 -0.4527 -0.4795
   77SOPE   C36 6896   3.648   4.766   5.891  0.0459 -0.3484  0.7432
   77SOPE   H6X 6897   3.544   4.792   5.864  0.4176  0.2191 -0.1734
   77SOPE   H6Y 6898   3.652   4.655   5.898 -0.2982 -0.4601 -0.7241
   77SOPE   C37 6899   3.753   4.809   5.791 -0.0788 -0.1472  0.2823
   77SOPE   H7X 6900   3.856   4.797   5.830 -0.2627 -1.8340  0.2785
   77SOPE   H7Y 6901   3.735   4.913   5.754  2.8376  0.4394  0.3506
   77SOPE   C38 6902   3.747   4.709   5.667  0.5005  0.9112  0.9242
   77SOPE   H8X 6903   3.647   4.714   5.619 -0.2429 -2.4264  2.0022
   77SOPE   H8Y 6904   3.760   4.610   5.716 -1.0551 -1.3310 -2.9040
   77SOPE   C39 6905   3.851   4.722   5.553 -0.0503  0.0839 -0.7349
   77SOPE   H9X 6906   3.954   4.695   5.585  1.4902  0.5916 -4.9812
   77SOPE   H9Y 6907   3.857   4.833   5.547 -3.9022  0.5773  2.3772
   77SOPE  C310 6908   3.803   4.653   5.428  0.8689  1.1912 -0.1631
   77SOPE  H10X 6909   3.696   4.677   5.407  0.7152 -1.0294 -2.0466
   77SOPE  H10Y 6910   3.811   4.543   5.443 -2.4443  0.6506 -1.7993
   77SOPE  C311 6911   3.883   4.683   5.300 -0.0924  0.4268 -0.6033
   77SOPE  H11X 6912   3.988   4.646   5.297 -0.8937 -1.9709 -0.0126
   77SOPE  H11Y 6913   3.891   4.793   5.287 -0.1720  0.4124 -0.7760
   77SOPE  C312 6914   3.825   4.626   5.172  0.6893  0.9736  0.2014
   77SOPE  H12X 6915   3.735   4.682   5.138 -0.7910 -1.6821 -0.3916
   77SOPE  H12Y 6916   3.793   4.522   5.195  1.6236  0.1273 -2.2228
   77SOPE  C313 6917   3.929   4.637   5.058 -0.2525 -0.4101 -0.1908
   77SOPE  H13X 6918   4.015   4.570   5.077  2.0463  1.3540 -3.7978
   77SOPE  H13Y 6919   3.978   4.735   5.070 -1.4080 -0.0297  1.5720
   77SOPE  C314 6920   3.860   4.623   4.918  0.1930  0.3580  0.0526
   77SOPE  H14X 6921   3.771   4.687   4.897  1.1619  1.3216 -1.1764
   77SOPE  H14Y 6922   3.818   4.521   4.929  0.5920  0.2562  0.6468
   77SOPE  C315 6923   3.948   4.627   4.791 -0.1944  0.1990 -0.2257
   77SOPE  H15X 6924   4.044   4.571   4.789 -0.5595 -0.4557  0.2923
   77SOPE  H15Y 6925   3.968   4.734   4.770  1.4329  0.2554  1.3840
   77SOPE  C316 6926   3.866   4.579   4.666 -0.3881  0.5568 -0.3050
   77SOPE  H16X 6927   3.778   4.644   4.643 -1.3979 -1.0076 -0.9384
   77SOPE  H16Y 6928   3.836   4.473   4.675  0.0112  0.1699 -2.9889
   77SOPE  C317 6929   3.968   4.576   4.542 -0.5516  0.1630  0.3997
   77SOPE  H17X 6930   3.936   4.489   4.480 -1.0429  0.9890 -0.5274
   77SOPE  H17Y 6931   4.071   4.552   4.576 -0.0109  1.7076 -0.1180
   77SOPE  C318 6932   3.979   4.707   4.460 -0.4360 -0.4302  0.1470
   77SOPE  H18X 6933   3.881   4.745   4.424 -0.3541 -1.4079 -1.1718
   77SOPE  H18Y 6934   4.039   4.691   4.367 -0.0094  0.4191  0.2660
   77SOPE  H18Z 6935   4.028   4.785   4.523 -0.4320 -0.4465  0.1638
   78SOPE     N 6936   2.290   4.575   6.278 -0.4427 -0.2013  0.0532
   78SOPE   HN1 6937   2.338   4.667   6.294 -0.1484 -0.4195  0.4554
   78SOPE   HN2 6938   2.322   4.533   6.189 -2.2245 -0.5480 -0.4268
   78SOPE   HN3 6939   2.188   4.587   6.266 -0.9376 -1.7658  2.4750
   78SOPE   C12 6940   2.291   4.498   6.402  0.6863 -0.1637 -0.5134
   78SOPE  H12A 6941   2.235   4.553   6.480 -0.0116 -1.1457 -0.3210
   78SOPE  H12B 6942   2.391   4.474   6.445  0.3803  0.9103  0.8478
   78SOPE   C11 6943   2.205   4.377   6.371 -0.2810  0.4005  0.7081
   78SOPE  H11A 6944   2.190   4.322   6.467  0.3778 -2.1701 -0.6266
   78SOPE  H11B 6945   2.264   4.306   6.309 -2.0211 -1.1219  0.7364
   78SOPE     P 6946   1.986   4.302   6.261 -0.1466  0.1041  0.3711
   78SOPE   O13 6947   1.882   4.286   6.362  0.1742  0.0145  0.3266
   78SOPE   O14 6948   2.062   4.178   6.229  0.4701 -0.1719  0.5175
   78SOPE   O12 6949   2.084   4.408   6.311  0.1595 -0.3931  0.3218
   78SOPE   O11 6950   1.926   4.377   6.140 -0.0398 -0.7825  1.0126
   78SOPE    C1 6951   2.023   4.400   6.026  0.2207 -0.2158  0.2390
   78SOPE    HA 6952   2.049   4.305   5.975 -3.1454 -1.7063  1.2124
   78SOPE    HB 6953   2.115   4.455   6.055  1.3718 -1.3129 -1.2515
   78SOPE    C2 6954   1.958   4.498   5.924 -0.7341 -0.4272  0.1915
   78SOPE    HS 6955   1.947   4.584   5.993 -0.6116 -1.0749  1.0295
   78SOPE   O21 6956   1.836   4.443   5.865 -0.2361  0.3902 -0.7425
   78SOPE   C21 6957   1.762   4.545   5.824  0.1926 -0.3131 -0.1318
   78SOPE   O22 6958   1.796   4.662   5.814 -0.0977 -0.1674  0.1010
   78SOPE   C22 6959   1.627   4.485   5.765  0.2272  0.1501 -0.5463
   78SOPE   H2R 6960   1.546   4.518   5.834  2.2485 -0.2729  2.1589
   78SOPE   H2S 6961   1.637   4.375   5.772 -2.4520 -0.0477  1.0139
   78SOPE    C3 6962   2.057   4.521   5.815 -0.6209  0.2810  0.0449
   78SOPE    HX 6963   2.143   4.568   5.867  0.0337  0.6488 -1.3437
   78SOPE    HY 6964   2.022   4.599   5.743 -2.7885 -0.0719  0.6906
   78SOPE   O31 6965   2.092   4.404   5.738 -0.0716 -0.4328  0.0642
   78SOPE   C31 6966   2.208   4.351   5.747  0.3065 -0.6663  0.0526
   78SOPE   O32 6967   2.305   4.387   5.813 -0.2039  0.2338 -0.3340
   78SOPE   C32 6968   2.219   4.242   5.641  0.0733 -0.1744  0.2548
   78SOPE   H2X 6969   2.135   4.251   5.568 -0.3637  0.5703  0.8374
   78SOPE   H2Y 6970   2.216   4.142   5.688  1.1176  0.6506  2.1279
   78SOPE   C23 6971   1.614   4.533   5.622 -0.2175  0.1711  0.3147
   78SOPE   H3R 6972   1.627   4.638   5.588  0.4513  0.3687  1.1803
   78SOPE   H3S 6973   1.509   4.513   5.592  0.0570 -3.6835  1.5987
   78SOPE   C24 6974   1.693   4.443   5.518 -0.2057 -0.6501 -0.1365
   78SOPE   H4R 6975   1.801   4.469   5.532 -0.2179 -0.8539  0.3426
   78SOPE   H4S 6976   1.685   4.336   5.547 -1.4676 -0.0960  1.6605
   78SOPE   C25 6977   1.648   4.450   5.371 -0.2963  0.3878  0.4265
   78SOPE   H5R 6978   1.694   4.365   5.316 -0.7080 -0.3528  1.2214
   78SOPE   H5S 6979   1.537   4.453   5.371 -0.3117  0.5829  2.3327
   78SOPE   C26 6980   1.707   4.572   5.298  0.3410  0.3507 -0.1724
   78SOPE   H6R 6981   1.648   4.581   5.204  0.9875 -2.2685 -0.8914
   78SOPE   H6S 6982   1.684   4.654   5.369 -0.3504 -0.1025  0.1311
   78SOPE   C27 6983   1.861   4.561   5.267  0.1562  0.1126  0.0056
   78SOPE   H7R 6984   1.929   4.576   5.354  0.8420  1.2883 -0.7163
   78SOPE   H7S 6985   1.876   4.455   5.238  1.7698  0.4843 -0.5518
   78SOPE   C28 6986   1.893   4.653   5.147 -0.3915  0.5151 -0.2600
   78SOPE   H8R 6987   1.807   4.654   5.076  0.0986  0.9281 -0.8511
   78SOPE   H8S 6988   1.910   4.755   5.186 -1.5800  0.1758  1.2476
   78SOPE   C29 6989   2.015   4.604   5.078  0.3345  0.3602 -1.1781
   78SOPE   H91 6990   2.102   4.599   5.145  1.3242  2.4680 -2.2636
   78SOPE  C210 6991   2.037   4.579   4.952 -0.1785  0.8654  0.1324
   78SOPE  H101 6992   2.130   4.537   4.913 -0.5159  2.6912 -2.7845
   78SOPE  C211 6993   1.931   4.592   4.845 -0.2315  0.3780  0.0485
   78SOPE  H11R 6994   1.986   4.621   4.753 -1.1145  1.8907 -0.0170
   78SOPE  H11S 6995   1.851   4.663   4.875  0.5445  0.1344  2.7537
   78SOPE  C212 6996   1.860   4.463   4.805 -0.0827  0.5840 -1.0952
   78SOPE  H12R 6997   1.807   4.411   4.888  1.4241  0.9862  0.1509
   78SOPE  H12S 6998   1.935   4.388   4.773 -0.9447 -1.3790  1.3136
   78SOPE  C213 6999   1.761   4.488   4.693  0.3114  0.5408  0.3799
   78SOPE  H13R 7000   1.777   4.410   4.615 -1.3133 -1.1438  1.6848
   78SOPE  H13S 7001   1.780   4.586   4.644  0.7935 -0.0601 -0.6677
   78SOPE  C214 7002   1.620   4.489   4.752  0.0946 -0.1400  0.1412
   78SOPE  H14R 7003   1.540   4.525   4.685 -0.9913 -1.4803  0.6962
   78SOPE  H14S 7004   1.627   4.549   4.845 -0.5600 -0.1496  0.1934
   78SOPE  C215 7005   1.576   4.344   4.783  0.0868  0.5248 -0.4155
   78SOPE  H15R 7006   1.662   4.291   4.828 -0.0970  0.8337  0.3051
   78SOPE  H15S 7007   1.558   4.286   4.690  2.1080  0.6104 -0.8969
   78SOPE  C216 7008   1.456   4.310   4.877 -0.1062 -0.2533  0.1951
   78SOPE  H16R 7009   1.443   4.200   4.885  1.7218 -0.7061 -2.3093
   78SOPE  H16S 7010   1.362   4.342   4.827 -0.9560 -1.9923  0.6399
   78SOPE  C217 7011   1.492   4.369   5.018 -0.4806 -0.1928 -0.1409
   78SOPE  H17R 7012   1.515   4.477   5.002 -2.6568  0.0723 -1.6782
   78SOPE  H17S 7013   1.588   4.327   5.057  0.2115  0.9524 -0.5830
   78SOPE  C218 7014   1.371   4.346   5.113 -0.1005 -0.3134  0.1644
   78SOPE  H18R 7015   1.352   4.237   5.106 -0.3607 -0.3374  1.1290
   78SOPE  H18S 7016   1.278   4.399   5.084  0.8829  0.7604 -1.0867
   78SOPE  H18T 7017   1.395   4.364   5.220  2.2564 -1.5509 -0.1132
   78SOPE   C33 7018   2.361   4.258   5.571  0.1868  0.2216 -1.2272
   78SOPE   H3X 7019   2.370   4.173   5.500 -1.5665 -1.0468  0.0362
   78SOPE   H3Y 7020   2.439   4.257   5.649  0.5594  0.9568 -1.5832
   78SOPE   C34 7021   2.365   4.389   5.491  0.0192 -0.4509 -0.5082
   78SOPE   H4X 7022   2.472   4.393   5.459  0.0687  1.0701 -0.1750
   78SOPE   H4Y 7023   2.363   4.480   5.554  0.5971 -2.2690  2.2485
   78SOPE   C35 7024   2.266   4.392   5.377  0.1032  0.0218 -0.4792
   78SOPE   H5X 7025   2.274   4.491   5.326 -2.2503  0.0508 -0.8602
   78SOPE   H5Y 7026   2.164   4.387   5.421 -1.1599  1.7777 -3.0957
   78SOPE   C36 7027   2.276   4.286   5.265 -0.1295 -0.0341  0.5694
   78SOPE   H6X 7028   2.181   4.276   5.208 -0.4536  0.5508  0.9975
   78SOPE   H6Y 7029   2.294   4.186   5.310  0.1777  0.1778  0.9158
   78SOPE   C37 7030   2.384   4.329   5.172  0.5071  0.3675  1.3343
   78SOPE   H7X 7031   2.462   4.379   5.234  0.3641  1.3975  0.7084
   78SOPE   H7Y 7032   2.352   4.397   5.090  2.4287  2.6221  2.3576
   78SOPE   C38 7033   2.448   4.205   5.103  0.0116 -0.7723  0.0186
   78SOPE   H8X 7034   2.368   4.161   5.040 -0.3569 -0.9335  0.5922
   78SOPE   H8Y 7035   2.474   4.120   5.170 -1.1351 -0.9878  0.1939
   78SOPE   C39 7036   2.569   4.241   5.019  1.1692 -0.0158 -0.4772
   78SOPE   H9X 7037   2.657   4.262   5.083  0.2451  2.4097  0.0729
   78SOPE   H9Y 7038   2.543   4.332   4.960 -3.0658 -1.2423 -0.6947
   78SOPE  C310 7039   2.617   4.134   4.915  0.0378  0.6184  0.3340
   78SOPE  H10X 7040   2.640   4.033   4.956 -0.1226  0.1841 -0.6469
   78SOPE  H10Y 7041   2.714   4.168   4.872  0.0806  1.1087  0.8129
   78SOPE  C311 7042   2.512   4.126   4.802 -0.2130  0.2657  0.1793
   78SOPE  H11X 7043   2.511   4.224   4.750  1.3457  0.1410 -0.1102
   78SOPE  H11Y 7044   2.409   4.100   4.835  0.5229  0.3202  2.6684
   78SOPE  C312 7045   2.555   4.021   4.700  0.9295 -0.5944  0.5344
   78SOPE  H12X 7046   2.477   4.026   4.620 -1.0988  2.1237  2.5639
   78SOPE  H12Y 7047   2.546   3.918   4.740 -0.2200  0.1249  2.1816
   78SOPE  C313 7048   2.693   4.064   4.641 -0.0229 -0.1492  0.8092
   78SOPE  H13X 7049   2.784   4.064   4.705  1.6445 -1.0123 -1.4804
   78SOPE  H13Y 7050   2.678   4.172   4.620 -0.8333 -0.4099  0.0183
   78SOPE  C314 7051   2.735   4.017   4.493  0.4113  0.1223  0.3788
   78SOPE  H14X 7052   2.640   4.015   4.436  0.4686  0.1427  0.2841
   78SOPE  H14Y 7053   2.776   3.915   4.489 -2.6692 -1.1243 -1.8604
   78SOPE  C315 7054   2.831   4.110   4.421 -0.4493  1.0044 -0.2693
   78SOPE  H15X 7055   2.776   4.194   4.375  0.7546  1.4849 -0.8573
   78SOPE  H15Y 7056   2.878   4.069   4.329 -1.1055  2.2205 -1.1625
   78SOPE  C316 7057   2.943   4.165   4.514 -0.1134 -1.0087  0.3239
   78SOPE  H16X 7058   2.983   4.076   4.566 -0.6546 -2.4897 -1.7477
   78SOPE  H16Y 7059   2.898   4.226   4.595 -0.7535  0.2344 -0.9405
   78SOPE  C317 7060   3.055   4.238   4.444 -0.4409 -0.3446 -0.3042
   78SOPE  H17X 7061   3.016   4.329   4.392  0.0170 -0.2746 -0.5288
   78SOPE  H17Y 7062   3.123   4.185   4.374  0.7171 -0.8293  1.1794
   78SOPE  C318 7063   3.140   4.294   4.557 -0.2632 -0.8225 -0.7488
   78SOPE  H18X 7064   3.073   4.348   4.628 -0.2468 -2.6250  0.6576
   78SOPE  H18Y 7065   3.213   4.363   4.509  0.7170 -0.6592  0.9357
   78SOPE  H18Z 7066   3.201   4.217   4.608  1.6883  0.8333 -0.5107
   79SOPE     N 7067   4.477   1.395   6.643 -0.3993  0.5200 -0.1163
   79SOPE   HN1 7068   4.551   1.463   6.668  1.2883 -1.6216  0.8530
   79SOPE   HN2 7069   4.484   1.306   6.695 -1.3217  0.1191 -0.6590
   79SOPE   HN3 7070   4.487   1.367   6.544  0.4966 -1.5258  0.5435
   79SOPE   C12 7071   4.344   1.456   6.676 -0.1526  0.1273 -0.1466
   79SOPE  H12A 7072   4.356   1.527   6.761  0.2451 -0.8741  0.6386
   79SOPE  H12B 7073   4.279   1.376   6.719 -0.0542  0.8832  1.4577
   79SOPE   C11 7074   4.271   1.518   6.555  0.6163 -0.1996  0.3441
   79SOPE  H11A 7075   4.173   1.549   6.597  0.2268 -0.8052 -0.1137
   79SOPE  H11B 7076   4.255   1.446   6.472 -1.2043  1.9300 -1.1825
   79SOPE     P 7077   4.396   1.656   6.363  0.1864 -0.2026  0.1595
   79SOPE   O13 7078   4.481   1.538   6.337 -0.6082 -0.3153  0.1571
   79SOPE   O14 7079   4.465   1.788   6.358 -0.1965 -0.5332  0.2357
   79SOPE   O12 7080   4.333   1.630   6.500  0.1648  0.3028 -0.0087
   79SOPE   O11 7081   4.267   1.664   6.271 -0.3460  0.1630  0.2261
   79SOPE    C1 7082   4.150   1.723   6.317 -0.0066  0.4315 -0.2272
   79SOPE    HA 7083   4.137   1.819   6.261 -1.8874 -1.1533 -2.6052
   79SOPE    HB 7084   4.140   1.746   6.426  0.2447  2.0668 -0.5232
   79SOPE    C2 7085   4.034   1.624   6.294  0.1000  0.2571 -0.6190
   79SOPE    HS 7086   4.061   1.521   6.326 -0.4176  0.7964  1.5874
   79SOPE   O21 7087   4.010   1.625   6.149 -0.1246 -0.0077  0.4373
   79SOPE   C21 7088   3.938   1.526   6.101  0.1563  0.4400 -0.2864
   79SOPE   O22 7089   3.893   1.429   6.166  0.0907  0.3861  0.7268
   79SOPE   C22 7090   3.941   1.535   5.950 -0.1383  0.4189 -0.2860
   79SOPE   H2R 7091   4.016   1.614   5.924  0.6632  0.5678  2.2857
   79SOPE   H2S 7092   3.838   1.565   5.922  0.1051  0.7028 -0.9110
   79SOPE    C3 7093   3.900   1.666   6.366  0.4113  0.1892 -0.4630
   79SOPE    HX 7094   3.913   1.648   6.475 -2.3285  2.2581  0.2621
   79SOPE    HY 7095   3.821   1.592   6.340 -0.7634  1.1004  0.4575
   79SOPE   O31 7096   3.869   1.807   6.345 -0.2987  0.1203 -0.2399
   79SOPE   C31 7097   3.766   1.822   6.269  0.1594 -0.1265  0.0289
   79SOPE   O32 7098   3.691   1.738   6.225  0.0669 -0.0431 -0.5216
   79SOPE   C32 7099   3.766   1.973   6.227 -0.0907  0.0685 -0.2696
   79SOPE   H2X 7100   3.829   2.028   6.300  1.1092  1.0229 -1.9964
   79SOPE   H2Y 7101   3.657   1.995   6.228  0.1086  1.2256 -2.2809
   79SOPE   C23 7102   3.977   1.411   5.876 -0.1898  0.3550 -0.2716
   79SOPE   H3R 7103   3.893   1.339   5.887 -0.0687 -0.0849 -2.0413
   79SOPE   H3S 7104   4.070   1.361   5.909 -1.1370 -1.5435 -0.4386
   79SOPE   C24 7105   3.995   1.436   5.727 -0.6821 -0.2576 -0.9151
   79SOPE   H4R 7106   4.019   1.334   5.688  1.8254  0.1190 -0.3967
   79SOPE   H4S 7107   3.905   1.481   5.680  1.0799  4.2197 -0.2154
   79SOPE   C25 7108   4.112   1.520   5.680 -0.6068  0.4386 -0.3819
   79SOPE   H5R 7109   4.116   1.618   5.734 -0.4519  1.2525 -1.8356
   79SOPE   H5S 7110   4.204   1.462   5.702 -0.1584  1.3217  0.1039
   79SOPE   C26 7111   4.133   1.549   5.531 -0.0012 -0.0890  0.4213
   79SOPE   H6R 7112   4.132   1.451   5.478  1.2656 -0.5850  1.2733
   79SOPE   H6S 7113   4.042   1.605   5.501  1.0257  1.4671  0.1633
   79SOPE   C27 7114   4.258   1.628   5.501 -0.5733 -0.4504 -0.6057
   79SOPE   H7R 7115   4.252   1.704   5.582 -0.6287  0.6431 -1.6212
   79SOPE   H7S 7116   4.347   1.568   5.528  0.9039  2.7299  1.8654
   79SOPE   C28 7117   4.261   1.698   5.359 -0.3021  0.3946 -0.3316
   79SOPE   H8R 7118   4.158   1.734   5.340 -0.7609 -0.8884 -0.2844
   79SOPE   H8S 7119   4.338   1.779   5.351 -0.0210  0.0326 -1.4201
   79SOPE   C29 7120   4.293   1.606   5.246 -0.1340 -0.1249  0.1377
   79SOPE   H91 7121   4.209   1.538   5.224 -0.0214  0.1243 -1.0947
   79SOPE  C210 7122   4.403   1.599   5.177 -0.1697  0.1033  0.2901
   79SOPE  H101 7123   4.414   1.536   5.087 -0.4054 -1.5489  1.4077
   79SOPE  C211 7124   4.528   1.687   5.195  0.1303  0.3885  0.0961
   79SOPE  H11R 7125   4.499   1.794   5.186  3.6448  1.4896  1.2167
   79SOPE  H11S 7126   4.607   1.668   5.120  0.2313  1.8565 -0.1826
   79SOPE  C212 7127   4.597   1.682   5.333 -0.1528  0.2517 -0.1591
   79SOPE  H12R 7128   4.616   1.576   5.362 -0.9336  1.0183  3.4125
   79SOPE  H12S 7129   4.529   1.725   5.410  0.9037  2.3441 -0.3722
   79SOPE  C213 7130   4.734   1.747   5.339 -0.5266 -0.6296 -0.2064
   79SOPE  H13R 7131   4.726   1.858   5.336  2.6904 -0.2766  1.7926
   79SOPE  H13S 7132   4.791   1.717   5.248  0.2561  0.9953 -0.2738
   79SOPE  C214 7133   4.824   1.729   5.456  0.8202  0.3667  0.0423
   79SOPE  H14R 7134   4.924   1.769   5.427  1.6467  0.0172  2.2628
   79SOPE  H14S 7135   4.840   1.620   5.474  2.2314  0.7848  1.4851
   79SOPE  C215 7136   4.789   1.799   5.594 -0.9245  0.5698 -0.4977
   79SOPE  H15R 7137   4.686   1.760   5.609 -0.5985 -0.3192 -0.5074
   79SOPE  H15S 7138   4.782   1.909   5.584 -1.0317  0.3337 -3.5283
   79SOPE  C216 7139   4.875   1.767   5.713 -0.7165 -0.1599  0.4725
   79SOPE  H16R 7140   4.975   1.812   5.694 -0.5776  0.7273  3.1131
   79SOPE  H16S 7141   4.884   1.656   5.720  0.7380  0.0397  2.1938
   79SOPE  C217 7142   4.821   1.818   5.844 -0.0534 -0.0922 -0.4485
   79SOPE  H17R 7143   4.824   1.929   5.842 -0.2742 -0.0189  1.9641
   79SOPE  H17S 7144   4.881   1.784   5.931  0.1602  1.7383  0.1275
   79SOPE  C218 7145   4.669   1.786   5.867 -0.4303  0.4081  0.1085
   79SOPE  H18R 7146   4.655   1.676   5.862  1.3797  0.1793 -0.2954
   79SOPE  H18S 7147   4.604   1.837   5.793  1.4261  0.3511 -1.5964
   79SOPE  H18T 7148   4.632   1.827   5.964 -2.0989  0.4782 -0.5390
   79SOPE   C33 7149   3.805   2.000   6.081  0.2559  0.2824 -0.1830
   79SOPE   H3X 7150   3.755   2.092   6.045  2.0995 -0.1870 -4.2437
   79SOPE   H3Y 7151   3.763   1.914   6.026  0.9146 -2.1724  2.9688
   79SOPE   C34 7152   3.955   2.008   6.041  0.5592  0.1422 -0.0470
   79SOPE   H4X 7153   4.004   1.916   6.080 -0.3828  1.0992  3.5127
   79SOPE   H4Y 7154   3.990   2.105   6.082 -0.4666  0.7934 -0.7117
   79SOPE   C35 7155   3.947   2.013   5.883 -0.3095 -0.9513  0.1952
   79SOPE   H5X 7156   4.056   2.026   5.861 -0.8399 -0.0199 -2.0582
   79SOPE   H5Y 7157   3.893   2.105   5.852  1.9673  0.2227 -0.4066
   79SOPE   C36 7158   3.891   1.891   5.807  0.1564  0.0318  0.4833
   79SOPE   H6X 7159   3.781   1.904   5.817  0.0401 -0.8736  0.4508
   79SOPE   H6Y 7160   3.933   1.799   5.854  2.5979  0.0284 -1.6052
   79SOPE   C37 7161   3.917   1.900   5.661  0.5074  0.5502 -0.2490
   79SOPE   H7X 7162   4.024   1.882   5.639  0.3392  1.4853 -1.9389
   79SOPE   H7Y 7163   3.895   1.999   5.614 -0.5869  0.3586 -0.1628
   79SOPE   C38 7164   3.830   1.799   5.577  0.0629  0.0965  1.2207
   79SOPE   H8X 7165   3.720   1.811   5.586 -0.0268 -1.6618  2.7227
   79SOPE   H8Y 7166   3.865   1.695   5.595 -0.4283  0.1643  2.5924
   79SOPE   C39 7167   3.874   1.822   5.428  0.0865  0.1949 -0.4408
   79SOPE   H9X 7168   3.983   1.805   5.419 -0.1324 -1.0966 -0.7373
   79SOPE   H9Y 7169   3.858   1.930   5.409 -0.4165  0.0517 -0.8472
   79SOPE  C310 7170   3.784   1.748   5.326  0.3397 -0.2358  0.3926
   79SOPE  H10X 7171   3.682   1.793   5.333  0.0997 -1.1309  3.1028
   79SOPE  H10Y 7172   3.761   1.645   5.361 -0.6694 -0.0540  0.2914
   79SOPE  C311 7173   3.841   1.724   5.185 -0.3603  0.4805 -0.5638
   79SOPE  H11X 7174   3.786   1.639   5.139  3.5652 -2.3191 -0.2395
   79SOPE  H11Y 7175   3.942   1.681   5.195 -0.7483 -0.2718  0.1701
   79SOPE  C312 7176   3.841   1.855   5.093 -0.3619  0.5956 -0.4294
   79SOPE  H12X 7177   3.888   1.936   5.152 -0.4439  0.2941  0.0451
   79SOPE  H12Y 7178   3.735   1.871   5.062 -0.9504 -0.1249  1.1453
   79SOPE  C313 7179   3.936   1.842   4.964  0.9326 -0.4790 -0.2387
   79SOPE  H13X 7180   4.041   1.817   4.993  1.1552  0.6861  0.0061
   79SOPE  H13Y 7181   3.937   1.945   4.921 -2.0231  0.8962  2.7693
   79SOPE  C314 7182   3.876   1.770   4.844  0.1090  0.2240  0.3842
   79SOPE  H14X 7183   3.767   1.758   4.862  0.2878 -1.0812  0.6832
   79SOPE  H14Y 7184   3.906   1.663   4.839 -0.2259  0.0470  2.0784
   79SOPE  C315 7185   3.920   1.835   4.710 -0.0291 -0.4330  0.1123
   79SOPE  H15X 7186   4.031   1.830   4.702  0.1157  0.4921  1.4002
   79SOPE  H15Y 7187   3.887   1.941   4.707  2.6738  0.4218 -1.5640
   79SOPE  C316 7188   3.851   1.770   4.588 -0.7767  0.6617  0.2456
   79SOPE  H16X 7189   3.740   1.778   4.596 -0.9406 -0.7522 -0.3127
   79SOPE  H16Y 7190   3.879   1.662   4.588  0.2351  0.9045  2.2134
   79SOPE  C317 7191   3.900   1.830   4.453  0.3240 -0.0499 -0.1775
   79SOPE  H17X 7192   4.010   1.842   4.458  0.2145  1.2702 -0.8612
   79SOPE  H17Y 7193   3.870   1.934   4.429 -1.2047 -0.2878  0.5875
   79SOPE  C318 7194   3.859   1.746   4.337 -0.7618  0.1068  0.0478
   79SOPE  H18X 7195   3.861   1.638   4.361  3.6297  0.7467  3.2580
   79SOPE  H18Y 7196   3.925   1.759   4.249 -0.6825 -0.3355  0.0445
   79SOPE  H18Z 7197   3.754   1.767   4.307 -0.3232  0.6052 -1.1669
   80SOPE     N 7198   1.590   4.651   6.465  0.1690 -0.2737 -0.5334
   80SOPE   HN1 7199   1.657   4.707   6.521  0.7435 -0.5454 -0.9515
   80SOPE   HN2 7200   1.498   4.696   6.480 -0.1590 -1.4582  1.2133
   80SOPE   HN3 7201   1.598   4.553   6.500  0.2416 -0.0250  0.1619
   80SOPE   C12 7202   1.622   4.654   6.326 -0.1860 -0.0987 -0.2695
   80SOPE  H12A 7203   1.574   4.738   6.272 -1.6376  0.6656  2.1467
   80SOPE  H12B 7204   1.594   4.557   6.280 -0.6146  0.9576 -2.2546
   80SOPE   C11 7205   1.776   4.655   6.306 -0.2173 -0.0543  0.0192
   80SOPE  H11A 7206   1.809   4.659   6.200  1.9050  0.0769  0.6624
   80SOPE  H11B 7207   1.819   4.559   6.342 -0.8705 -0.5376 -0.4820
   80SOPE     P 7208   1.989   4.756   6.403 -0.4565  0.0271 -0.0726
   80SOPE   O13 7209   2.067   4.713   6.287 -0.5493 -0.6259  0.3873
   80SOPE   O14 7210   1.998   4.669   6.523 -0.3150  0.6922 -0.1606
   80SOPE   O12 7211   1.837   4.766   6.370 -0.7819 -0.2013 -0.0484
   80SOPE   O11 7212   2.040   4.895   6.445 -0.0088  0.6283  0.8078
   80SOPE    C1 7213   1.951   5.009   6.434  0.5319 -0.0554 -0.4617
   80SOPE    HA 7214   1.962   5.078   6.520 -0.2026  2.2331 -2.1638
   80SOPE    HB 7215   1.845   4.975   6.434  0.5647 -0.2396  1.8810
   80SOPE    C2 7216   1.977   5.096   6.306  0.3697 -0.4612  0.0749
   80SOPE    HS 7217   1.900   5.174   6.290  0.1136 -0.2544  2.2104
   80SOPE   O21 7218   1.980   5.000   6.201  0.3926  0.4170  0.1107
   80SOPE   C21 7219   1.925   5.034   6.081 -0.4684  0.1283  0.3188
   80SOPE   O22 7220   1.868   5.140   6.065  0.2991  0.2433  0.2495
   80SOPE   C22 7221   1.961   4.928   5.975  0.9930 -0.2313 -0.0891
   80SOPE   H2R 7222   1.869   4.878   5.939  0.4106  0.3726  0.5277
   80SOPE   H2S 7223   2.013   4.844   6.025 -1.1330 -0.6497  1.4785
   80SOPE    C3 7224   2.110   5.169   6.315  0.0943  0.0231  0.0131
   80SOPE    HX 7225   2.188   5.089   6.324 -0.7725 -0.6183  1.9416
   80SOPE    HY 7226   2.115   5.219   6.414  1.7788 -0.2834  0.1017
   80SOPE   O31 7227   2.131   5.274   6.215  0.1376 -0.0225 -0.2108
   80SOPE   C31 7228   2.207   5.231   6.110 -0.2669 -0.3314 -0.4927
   80SOPE   O32 7229   2.245   5.116   6.093 -0.4773  0.1476  0.2208
   80SOPE   C32 7230   2.193   5.343   6.003  0.1250  0.6281  0.4538
   80SOPE   H2X 7231   2.230   5.442   6.037 -1.1425  1.0414  0.6365
   80SOPE   H2Y 7232   2.086   5.369   5.993  0.3617  0.8281 -2.1045
   80SOPE   C23 7233   2.015   4.985   5.844  0.0459  0.8353  0.1616
   80SOPE   H3R 7234   2.107   5.039   5.873 -0.0972  1.3396 -0.2965
   80SOPE   H3S 7235   1.934   5.054   5.812 -1.6418 -0.7725  0.8701
   80SOPE   C24 7236   2.059   4.876   5.742 -0.1362  0.0569  0.4655
   80SOPE   H4R 7237   2.136   4.806   5.780 -0.2534  0.7551  2.0496
   80SOPE   H4S 7238   1.977   4.803   5.726 -0.3375  0.0792  1.3664
   80SOPE   C25 7239   2.105   4.934   5.611  0.3798  0.0192  1.3251
   80SOPE   H5R 7240   2.020   4.990   5.568  2.1055  1.2300 -0.5916
   80SOPE   H5S 7241   2.190   5.005   5.617  0.3305  0.1210  0.8623
   80SOPE   C26 7242   2.126   4.820   5.507 -0.7195 -0.7158 -0.2790
   80SOPE   H6R 7243   2.191   4.745   5.558 -1.8049  0.2671  2.6276
   80SOPE   H6S 7244   2.023   4.779   5.495 -1.3656  1.0380 -0.7270
   80SOPE   C27 7245   2.168   4.846   5.359  0.7849 -0.6868 -0.3368
   80SOPE   H7R 7246   2.178   4.759   5.290  2.6453 -0.0310 -0.9267
   80SOPE   H7S 7247   2.091   4.916   5.320  1.7327  1.0348  0.8221
   80SOPE   C28 7248   2.293   4.936   5.334  0.6615 -0.4767 -0.1033
   80SOPE   H8R 7249   2.282   4.966   5.228 -0.0734 -3.1402 -0.8363
   80SOPE   H8S 7250   2.296   5.027   5.396 -0.4773 -0.3882 -0.1790
   80SOPE   C29 7251   2.413   4.853   5.370 -0.3612  0.4745  0.0598
   80SOPE   H91 7252   2.440   4.856   5.477 -1.5669 -0.5162  0.3991
   80SOPE  C210 7253   2.474   4.761   5.292  0.3470 -0.3531 -0.1156
   80SOPE  H101 7254   2.564   4.707   5.325 -0.1261 -0.5838  0.8019
   80SOPE  C211 7255   2.427   4.736   5.145 -0.0934  0.5742  0.6829
   80SOPE  H11R 7256   2.324   4.774   5.127  0.0664  0.4416 -0.5395
   80SOPE  H11S 7257   2.426   4.627   5.124  1.0304  0.4263  1.3603
   80SOPE  C212 7258   2.525   4.809   5.047 -0.2811  0.4727 -0.5482
   80SOPE  H12R 7259   2.630   4.778   5.064 -0.2754  0.6276 -0.2997
   80SOPE  H12S 7260   2.509   4.918   5.064 -0.6961  0.5126 -1.1700
   80SOPE  C213 7261   2.494   4.789   4.904 -0.1381 -0.0806 -0.3494
   80SOPE  H13R 7262   2.526   4.684   4.886 -1.1175 -0.1631 -1.7224
   80SOPE  H13S 7263   2.562   4.857   4.848 -1.6096  1.6901 -0.0342
   80SOPE  C214 7264   2.348   4.792   4.865  0.1654 -0.2777 -0.7396
   80SOPE  H14R 7265   2.292   4.873   4.917  1.5939  1.7203 -2.2247
   80SOPE  H14S 7266   2.297   4.699   4.898  0.8461 -0.8295 -1.2338
   80SOPE  C215 7267   2.328   4.798   4.713  0.0836 -0.2409 -0.1300
   80SOPE  H15R 7268   2.383   4.874   4.653  0.5975 -0.9576 -0.5682
   80SOPE  H15S 7269   2.222   4.824   4.692  0.1218  1.0056  1.1425
   80SOPE  C216 7270   2.350   4.664   4.643 -0.3205  0.4683  0.7884
   80SOPE  H16R 7271   2.294   4.575   4.676  1.0836 -1.4037 -1.6913
   80SOPE  H16S 7272   2.454   4.637   4.672  0.2626  2.1750  0.3768
   80SOPE  C217 7273   2.357   4.671   4.489  0.7507  0.1775  0.4364
   80SOPE  H17R 7274   2.404   4.586   4.435 -0.4843  0.0705 -0.5156
   80SOPE  H17S 7275   2.410   4.767   4.473  0.6371  0.0181 -0.9331
   80SOPE  C218 7276   2.225   4.703   4.429  0.1305 -0.0699 -0.7345
   80SOPE  H18R 7277   2.182   4.798   4.466 -0.1340 -0.3932 -0.1996
   80SOPE  H18S 7278   2.164   4.612   4.449 -1.0363  1.1306  1.2656
   80SOPE  H18T 7279   2.226   4.724   4.320  2.8019 -2.1147 -1.1651
   80SOPE   C33 7280   2.261   5.296   5.878 -0.5127  0.6287  0.4575
   80SOPE   H3X 7281   2.188   5.221   5.839  0.4820 -0.5955  0.9235
   80SOPE   H3Y 7282   2.352   5.235   5.893 -1.0270 -0.3985 -0.4564
   80SOPE   C34 7283   2.296   5.413   5.782  0.0988  0.2065 -0.5437
   80SOPE   H4X 7284   2.377   5.474   5.827 -0.2710 -0.0978  0.5541
   80SOPE   H4Y 7285   2.211   5.482   5.763  0.5487  1.9493  3.2407
   80SOPE   C35 7286   2.323   5.348   5.643  1.0265  0.5029 -0.1624
   80SOPE   H5X 7287   2.231   5.297   5.607  0.4029  0.3978  1.5334
   80SOPE   H5Y 7288   2.400   5.268   5.647  1.7865  1.1274 -2.0936
   80SOPE   C36 7289   2.373   5.461   5.543  0.8429  0.3802  0.2888
   80SOPE   H6X 7290   2.463   5.495   5.600 -0.0333  0.2644  1.7572
   80SOPE   H6Y 7291   2.296   5.540   5.531 -0.6772 -1.0908  0.1854
   80SOPE   C37 7292   2.431   5.409   5.409  0.0604  0.1546 -0.3111
   80SOPE   H7X 7293   2.514   5.337   5.427 -1.6738 -2.0723 -1.0343
   80SOPE   H7Y 7294   2.485   5.497   5.369 -0.7626  1.5713  1.6291
   80SOPE   C38 7295   2.329   5.364   5.314  0.1084  0.1941  0.0672
   80SOPE   H8X 7296   2.244   5.436   5.307  0.8974  1.2147  0.8920
   80SOPE   H8Y 7297   2.287   5.268   5.350  1.1981 -0.7319 -1.0653
   80SOPE   C39 7298   2.373   5.334   5.173  0.0295 -0.2386 -0.1447
   80SOPE   H9X 7299   2.452   5.256   5.173 -0.3146 -0.5896 -0.0059
   80SOPE   H9Y 7300   2.419   5.430   5.143 -1.3697  0.6068  0.4074
   80SOPE  C310 7301   2.258   5.295   5.080 -0.0463  0.1311  0.5465
   80SOPE  H10X 7302   2.182   5.376   5.081 -0.2459 -0.0117 -1.2660
   80SOPE  H10Y 7303   2.208   5.201   5.112 -1.7197  0.2849 -1.5023
   80SOPE  C311 7304   2.313   5.288   4.946  0.0719 -0.0531  0.8401
   80SOPE  H11X 7305   2.370   5.383   4.935  1.4639 -0.9247  0.4805
   80SOPE  H11Y 7306   2.232   5.280   4.870  1.6044  1.1700 -0.9591
   80SOPE  C312 7307   2.404   5.160   4.926  0.5010 -0.1401 -0.0207
   80SOPE  H12X 7308   2.358   5.076   4.982 -1.2637 -0.3550 -1.7330
   80SOPE  H12Y 7309   2.497   5.188   4.980 -0.2229  3.0063 -0.2872
   80SOPE  C313 7310   2.435   5.125   4.779  0.3481 -0.3533 -0.4124
   80SOPE  H13X 7311   2.340   5.094   4.732 -1.2871 -0.8145  3.0321
   80SOPE  H13Y 7312   2.508   5.041   4.783  0.7475 -0.0926 -1.9007
   80SOPE  C314 7313   2.502   5.250   4.717  0.1373  0.6327  1.0070
   80SOPE  H14X 7314   2.596   5.274   4.771  2.5320 -1.9448 -1.7668
   80SOPE  H14Y 7315   2.429   5.334   4.722  0.1569  1.0156 -2.9783
   80SOPE  C315 7316   2.543   5.224   4.574  0.2114 -0.0628 -0.2509
   80SOPE  H15X 7317   2.587   5.317   4.532 -0.4913  1.0348  1.3806
   80SOPE  H15Y 7318   2.456   5.216   4.505  1.1356  3.6466 -1.9603
   80SOPE  C316 7319   2.638   5.103   4.557  0.0566  0.3740 -0.1767
   80SOPE  H16X 7320   2.574   5.020   4.593 -1.3684  0.6025 -2.1428
   80SOPE  H16Y 7321   2.725   5.124   4.623  0.5448 -0.4760 -0.5303
   80SOPE  C317 7322   2.683   5.086   4.410 -1.0653  0.0774  0.2371
   80SOPE  H17X 7323   2.774   5.023   4.405  1.6048  3.7576  0.6075
   80SOPE  H17Y 7324   2.713   5.184   4.367 -1.7216 -1.2297 -3.3801
   80SOPE  C318 7325   2.571   5.029   4.319  0.7703 -0.6518 -0.4924
   80SOPE  H18X 7326   2.596   5.019   4.211  0.3741  4.7760 -1.2293
   80SOPE  H18Y 7327   2.489   5.103   4.327  2.2977  1.3701 -2.8807
   80SOPE  H18Z 7328   2.523   4.934   4.351 -1.4809  0.1356 -1.4610
   81SOPE     N 7329   3.316   6.744   6.651  0.0958  0.1196  0.0304
   81SOPE   HN1 7330   3.311   6.709   6.749 -2.4186  0.4464  0.0576
   81SOPE   HN2 7331   3.302   6.847   6.649 -1.6077 -0.1060 -0.3959
   81SOPE   HN3 7332   3.236   6.701   6.599  1.5524  0.5479 -2.6532
   81SOPE   C12 7333   3.455   6.715   6.605  0.0973  0.7233 -0.2499
   81SOPE  H12A 7334   3.481   6.619   6.655 -0.4904  0.5436 -0.2832
   81SOPE  H12B 7335   3.522   6.794   6.646  0.2633 -0.4598  1.8437
   81SOPE   C11 7336   3.460   6.695   6.452 -0.1974 -0.1514 -0.5528
   81SOPE  H11A 7337   3.563   6.684   6.412 -1.0830 -0.6334 -2.7343
   81SOPE  H11B 7338   3.418   6.789   6.410 -0.1027  0.4601  0.6770
   81SOPE     P 7339   3.392   6.468   6.309  0.4094  0.1186  0.0938
   81SOPE   O13 7340   3.257   6.423   6.265 -0.2972  0.2654  0.2660
   81SOPE   O14 7341   3.485   6.365   6.359 -0.0336 -0.3774  0.4743
   81SOPE   O12 7342   3.363   6.595   6.410 -0.0969  0.3487 -0.2787
   81SOPE   O11 7343   3.478   6.537   6.188  0.5184  0.3122 -0.0622
   81SOPE    C1 7344   3.420   6.654   6.109  0.0424  0.8000 -0.0403
   81SOPE    HA 7345   3.489   6.740   6.104  0.6469  0.4172  1.3746
   81SOPE    HB 7346   3.339   6.702   6.169 -0.6201  0.3237 -0.5491
   81SOPE    C2 7347   3.367   6.606   5.967 -0.5084  0.2176 -0.7515
   81SOPE    HS 7348   3.281   6.539   5.987 -1.4874  2.1574  1.8161
   81SOPE   O21 7349   3.482   6.551   5.886  0.4268 -0.0506  0.2972
   81SOPE   C21 7350   3.467   6.422   5.863 -0.2459  0.4628  0.4429
   81SOPE   O22 7351   3.369   6.349   5.891 -0.1761 -1.0637  0.4254
   81SOPE   C22 7352   3.592   6.381   5.790 -0.3131  0.0691 -0.0937
   81SOPE   H2R 7353   3.682   6.380   5.856  0.2058 -0.1965 -0.7953
   81SOPE   H2S 7354   3.606   6.441   5.698  3.1638 -0.6985 -0.1445
   81SOPE    C3 7355   3.315   6.730   5.895 -0.1835  0.2743 -0.3770
   81SOPE    HX 7356   3.398   6.804   5.902 -0.0750 -0.0370  2.2826
   81SOPE    HY 7357   3.236   6.779   5.957 -1.8724 -3.4219  0.4964
   81SOPE   O31 7358   3.281   6.704   5.756  0.4331  0.6631  0.3118
   81SOPE   C31 7359   3.213   6.800   5.702  0.4013  0.4663 -0.1915
   81SOPE   O32 7360   3.178   6.906   5.754 -0.5694  0.3116  0.0500
   81SOPE   C32 7361   3.184   6.755   5.568  0.3063  0.3753  0.4340
   81SOPE   H2X 7362   3.280   6.731   5.517 -0.1954 -1.6887  0.4190
   81SOPE   H2Y 7363   3.127   6.833   5.514 -0.3696  0.6104  1.4731
   81SOPE   C23 7364   3.568   6.235   5.738 -0.0182  0.3418  0.1098
   81SOPE   H3R 7365   3.521   6.179   5.822  0.4336 -0.6560 -0.2863
   81SOPE   H3S 7366   3.662   6.181   5.711 -0.1498  0.0899  0.1541
   81SOPE   C24 7367   3.469   6.211   5.618  0.0466  0.8954  0.4457
   81SOPE   H4R 7368   3.423   6.112   5.638 -0.3675  0.7663 -1.1072
   81SOPE   H4S 7369   3.393   6.291   5.605 -0.9775 -0.4028 -1.8505
   81SOPE   C25 7370   3.550   6.190   5.485  0.0475 -0.1664  0.2654
   81SOPE   H5R 7371   3.610   6.281   5.463  1.1041 -0.8370  0.3294
   81SOPE   H5S 7372   3.624   6.107   5.494  0.0726 -0.1347  0.3472
   81SOPE   C26 7373   3.469   6.162   5.367  0.0398 -0.7160 -0.8610
   81SOPE   H6R 7374   3.548   6.122   5.300  1.0548  0.0237 -0.1149
   81SOPE   H6S 7375   3.392   6.091   5.404 -0.4665  0.1831 -0.1435
   81SOPE   C27 7376   3.397   6.287   5.307 -0.2776 -0.0238 -0.5909
   81SOPE   H7R 7377   3.361   6.349   5.392 -2.0871 -1.5969 -0.1885
   81SOPE   H7S 7378   3.474   6.333   5.241  0.9155 -1.5735 -0.3145
   81SOPE   C28 7379   3.275   6.240   5.230 -0.0265 -0.7913  0.4517
   81SOPE   H8R 7380   3.209   6.180   5.296  0.3520 -0.9083  0.7226
   81SOPE   H8S 7381   3.205   6.319   5.195  0.1303 -0.6301  0.4972
   81SOPE   C29 7382   3.322   6.158   5.114 -0.7035  0.5678 -0.5763
   81SOPE   H91 7383   3.347   6.055   5.146 -3.4069 -0.2207 -0.8575
   81SOPE  C210 7384   3.343   6.194   4.988  0.8112  0.2350  0.6273
   81SOPE  H101 7385   3.367   6.117   4.913 -2.1162 -2.3707  2.2527
   81SOPE  C211 7386   3.327   6.328   4.931 -0.2987 -0.7363  0.5417
   81SOPE  H11R 7387   3.303   6.399   5.012  0.7190 -0.8499  0.9498
   81SOPE  H11S 7388   3.237   6.325   4.866  0.4563 -2.2403 -0.4638
   81SOPE  C212 7389   3.440   6.379   4.850 -0.4941  0.2559 -0.2847
   81SOPE  H12R 7390   3.527   6.389   4.919 -1.2781 -2.9281  1.2363
   81SOPE  H12S 7391   3.405   6.479   4.815  0.0899  0.2525 -0.8919
   81SOPE  C213 7392   3.484   6.302   4.726  0.0717 -0.0476  0.6872
   81SOPE  H13R 7393   3.401   6.284   4.654 -0.4407  1.5964  0.8363
   81SOPE  H13S 7394   3.521   6.201   4.753 -2.9779 -1.8188 -1.4242
   81SOPE  C214 7395   3.600   6.377   4.664  0.3678 -0.0926  0.7085
   81SOPE  H14R 7396   3.682   6.382   4.739  0.3386 -1.8869  0.8770
   81SOPE  H14S 7397   3.577   6.483   4.638 -2.3465 -0.7017  0.4865
   81SOPE  C215 7398   3.669   6.298   4.550  0.6501  0.2549  0.1221
   81SOPE  H15R 7399   3.592   6.280   4.471  1.8812 -0.1425 -1.0136
   81SOPE  H15S 7400   3.698   6.199   4.590 -0.6269 -0.4547 -0.6640
   81SOPE  C216 7401   3.786   6.364   4.474  0.0396 -0.0042  0.1031
   81SOPE  H16R 7402   3.819   6.286   4.402 -1.2275 -0.0723 -0.4237
   81SOPE  H16S 7403   3.868   6.394   4.542 -0.3028  0.2930  0.3855
   81SOPE  C217 7404   3.746   6.492   4.387  0.0033 -1.0815 -0.1406
   81SOPE  H17R 7405   3.763   6.580   4.454 -2.0226 -1.1700  0.5391
   81SOPE  H17S 7406   3.638   6.494   4.359  0.2983  1.3354 -1.2904
   81SOPE  C218 7407   3.840   6.528   4.275 -0.0821  0.7259 -0.8265
   81SOPE  H18R 7408   3.797   6.618   4.226  0.0124  1.7733  0.9626
   81SOPE  H18S 7409   3.842   6.442   4.204 -1.1111  1.3591 -1.6417
   81SOPE  H18T 7410   3.942   6.552   4.311  0.3293 -0.2251 -1.3194
   81SOPE   C33 7411   3.100   6.620   5.557 -0.4451  0.0418 -0.1225
   81SOPE   H3X 7412   3.153   6.536   5.607 -0.3719  1.9847  3.2132
   81SOPE   H3Y 7413   3.092   6.600   5.448 -1.9427  0.4532 -0.1063
   81SOPE   C34 7414   2.965   6.638   5.617  0.5058 -0.3956 -0.1377
   81SOPE   H4X 7415   2.915   6.715   5.555  0.8797 -2.3490 -3.0088
   81SOPE   H4Y 7416   2.976   6.690   5.714  2.0180  1.9609 -1.5312
   81SOPE   C35 7417   2.886   6.509   5.627  0.9950  0.2684 -1.1399
   81SOPE   H5X 7418   2.800   6.534   5.692  1.0993  2.0054 -1.6275
   81SOPE   H5Y 7419   2.939   6.426   5.678  1.4925 -0.9054 -3.4664
   81SOPE   C36 7420   2.840   6.461   5.489 -0.5700 -0.1930 -0.0090
   81SOPE   H6X 7421   2.831   6.551   5.424 -0.6102 -0.7737 -0.8127
   81SOPE   H6Y 7422   2.740   6.414   5.500 -0.3851 -0.2576  1.6035
   81SOPE   C37 7423   2.939   6.360   5.426 -0.7180 -1.1108  0.0300
   81SOPE   H7X 7424   2.946   6.270   5.490  1.6476 -0.4831  0.7204
   81SOPE   H7Y 7425   3.040   6.405   5.420 -1.2630  0.2626  0.8946
   81SOPE   C38 7426   2.902   6.307   5.284  0.2341 -0.1044  0.4149
   81SOPE   H8X 7427   2.805   6.254   5.294 -0.3838  1.1308  1.0832
   81SOPE   H8Y 7428   2.991   6.244   5.262  1.2118  1.2246  0.5028
   81SOPE   C39 7429   2.883   6.408   5.167  0.0023 -0.0976 -0.2184
   81SOPE   H9X 7430   2.974   6.468   5.144 -0.9798  0.9630 -1.3716
   81SOPE   H9Y 7431   2.817   6.492   5.198  1.8086  1.2027  0.2297
   81SOPE  C310 7432   2.828   6.340   5.035 -0.5984 -0.5257 -0.0634
   81SOPE  H10X 7433   2.842   6.410   4.951  1.7104 -0.5723  0.2651
   81SOPE  H10Y 7434   2.720   6.315   5.045 -0.1177 -2.8177 -0.2499
   81SOPE  C311 7435   2.907   6.214   5.005 -0.2304 -1.2639  0.0460
   81SOPE  H11X 7436   2.870   6.139   5.078 -2.4191 -1.3102 -1.0636
   81SOPE  H11Y 7437   3.016   6.233   5.017 -0.0708  0.7296 -3.6722
   81SOPE  C312 7438   2.863   6.153   4.875 -0.0513 -0.0316 -0.0767
   81SOPE  H12X 7439   2.752   6.154   4.872 -0.1635 -2.2729  1.7399
   81SOPE  H12Y 7440   2.896   6.047   4.870  3.5989  0.8933  2.0932
   81SOPE  C313 7441   2.922   6.223   4.748  0.5287  0.2333  0.2283
   81SOPE  H13X 7442   3.033   6.222   4.759  0.5464  2.1896  0.3623
   81SOPE  H13Y 7443   2.890   6.329   4.751 -1.4174 -0.3948  2.6150
   81SOPE  C314 7444   2.870   6.159   4.615 -0.1252 -0.5462  0.5978
   81SOPE  H14X 7445   2.762   6.137   4.617  0.2532 -2.5745  0.0287
   81SOPE  H14Y 7446   2.922   6.061   4.619 -0.2026 -0.7055 -1.7516
   81SOPE  C315 7447   2.909   6.224   4.487 -0.0989 -0.3719 -0.3072
   81SOPE  H15X 7448   3.018   6.232   4.467 -0.1889  2.7149  0.2301
   81SOPE  H15Y 7449   2.869   6.328   4.489 -1.5266 -0.9117  0.3599
   81SOPE  C316 7450   2.836   6.152   4.383 -0.1138 -0.9499  0.7582
   81SOPE  H16X 7451   2.734   6.123   4.414 -0.6471  0.1651  0.0895
   81SOPE  H16Y 7452   2.899   6.061   4.367  2.8402  1.1349  0.0952
   81SOPE  C317 7453   2.828   6.223   4.249 -0.1291  0.0045  1.3699
   81SOPE  H17X 7454   2.933   6.225   4.211 -0.2843 -2.1520  0.7335
   81SOPE  H17Y 7455   2.788   6.323   4.275  0.5383  0.1581  1.8167
   81SOPE  C318 7456   2.747   6.150   4.146 -0.1783 -0.6678  0.3592
   81SOPE  H18X 7457   2.788   6.047   4.138  4.0499  0.9274  0.2560
   81SOPE  H18Y 7458   2.745   6.204   4.049 -3.4267  0.7607  1.1523
   81SOPE  H18Z 7459   2.639   6.146   4.174 -0.6214  1.4361 -0.9312
   82SOPE     N 7460   7.135   1.502   6.258  0.7327  0.1739 -0.5966
   82SOPE   HN1 7461   7.087   1.593   6.245 -0.9062 -0.6672 -0.4833
   82SOPE   HN2 7462   7.091   1.460   6.342 -0.0561  1.7056 -0.2372
   82SOPE   HN3 7463   7.239   1.509   6.268  0.6597  1.6649 -0.8536
   82SOPE   C12 7464   7.108   1.408   6.143  0.5936  0.0167 -0.3904
   82SOPE  H12A 7465   7.150   1.432   6.043  1.3836 -0.3181 -0.1414
   82SOPE  H12B 7466   7.000   1.389   6.124  1.2336 -2.6409 -1.5915
   82SOPE   C11 7467   7.174   1.267   6.174 -0.2700  0.0202 -0.1376
   82SOPE  H11A 7468   7.282   1.288   6.167 -0.1926 -0.7773 -1.6101
   82SOPE  H11B 7469   7.143   1.207   6.085 -1.4951 -2.0180  1.6153
   82SOPE     P 7470   7.226   1.116   6.371  0.0233 -0.0522  0.3413
   82SOPE   O13 7471   7.152   1.061   6.487 -0.1842  0.6490 -0.6711
   82SOPE   O14 7472   7.345   1.200   6.404 -0.7131 -0.3653 -0.0609
   82SOPE   O12 7473   7.121   1.209   6.298 -0.0176 -0.5298  0.6217
   82SOPE   O11 7474   7.275   1.005   6.273 -0.1351  0.2063  0.3682
   82SOPE    C1 7475   7.172   0.940   6.197 -0.3873 -0.1737 -0.0806
   82SOPE    HA 7476   7.089   1.008   6.170  0.6820 -0.2771 -4.0256
   82SOPE    HB 7477   7.135   0.854   6.256 -1.0111 -0.1964 -0.4973
   82SOPE    C2 7478   7.239   0.893   6.061  0.2648  0.2042 -0.3779
   82SOPE    HS 7479   7.320   0.823   6.090 -1.5093 -0.8832  2.1759
   82SOPE   O21 7480   7.286   1.014   5.990  0.9091 -0.4649 -0.3314
   82SOPE   C21 7481   7.396   0.999   5.932 -0.0849  0.2693  0.2141
   82SOPE   O22 7482   7.452   0.890   5.924  0.0506  0.1418  0.2964
   82SOPE   C22 7483   7.461   1.132   5.894 -0.0154  0.3326 -0.2153
   82SOPE   H2R 7484   7.562   1.108   5.853 -0.8923  0.5821 -2.6378
   82SOPE   H2S 7485   7.502   1.183   5.984 -1.5089 -0.2809  0.8249
   82SOPE    C3 7486   7.135   0.813   5.979  0.5514 -0.2086  0.2560
   82SOPE    HX 7487   7.060   0.891   5.959  0.5238 -0.2579  0.1716
   82SOPE    HY 7488   7.094   0.724   6.032  0.4730 -0.7709 -0.7346
   82SOPE   O31 7489   7.189   0.774   5.852 -0.2195 -0.3599 -0.4742
   82SOPE   C31 7490   7.247   0.662   5.847  0.8880  0.2511  0.3481
   82SOPE   O32 7491   7.260   0.581   5.939  0.1642 -0.2661 -0.2615
   82SOPE   C32 7492   7.322   0.645   5.718  0.2174 -0.2117  0.4991
   82SOPE   H2X 7493   7.373   0.547   5.717  0.4099 -0.1049 -0.0747
   82SOPE   H2Y 7494   7.392   0.731   5.705 -1.9900  1.3394 -1.6628
   82SOPE   C23 7495   7.382   1.229   5.805 -0.0717  0.0764  0.4732
   82SOPE   H3R 7496   7.444   1.316   5.776 -0.1729  0.2968  0.9156
   82SOPE   H3S 7497   7.293   1.273   5.856 -0.4889  0.1078 -0.2665
   82SOPE   C24 7498   7.327   1.164   5.673  0.0067 -0.0251 -0.4074
   82SOPE   H4R 7499   7.272   1.070   5.695 -0.8271 -0.0090 -2.3450
   82SOPE   H4S 7500   7.251   1.240   5.643  0.4999  0.5103 -0.3113
   82SOPE   C25 7501   7.433   1.134   5.577  0.1378 -0.7263 -0.3152
   82SOPE   H5R 7502   7.478   1.229   5.540  1.6021 -1.6438 -0.9155
   82SOPE   H5S 7503   7.522   1.083   5.620  1.5965 -1.5487 -4.1112
   82SOPE   C26 7504   7.380   1.055   5.464 -0.2165  0.0585 -0.4817
   82SOPE   H6R 7505   7.323   0.973   5.512 -1.7500  0.1791 -2.0710
   82SOPE   H6S 7506   7.296   1.103   5.409 -0.6508 -0.0595  0.0792
   82SOPE   C27 7507   7.479   1.006   5.354 -0.5858  0.9875 -0.4793
   82SOPE   H7R 7508   7.571   0.968   5.403 -0.4442  0.5130 -1.1031
   82SOPE   H7S 7509   7.441   0.918   5.297 -2.0098  0.3551  1.4025
   82SOPE   C28 7510   7.507   1.109   5.248 -0.5248  0.1675 -0.3848
   82SOPE   H8R 7511   7.412   1.127   5.194 -0.2005 -0.8503 -1.3217
   82SOPE   H8S 7512   7.550   1.197   5.300  2.8068 -1.0889 -0.8121
   82SOPE   C29 7513   7.607   1.047   5.149 -0.2380 -0.8459  0.0285
   82SOPE   H91 7514   7.694   0.996   5.192  0.7584  1.1665  0.4558
   82SOPE  C210 7515   7.580   1.034   5.021 -0.4295 -0.5178  0.2498
   82SOPE  H101 7516   7.648   0.971   4.962  1.3666  0.3291  1.3559
   82SOPE  C211 7517   7.449   1.074   4.952 -0.2220 -0.2509  0.3137
   82SOPE  H11R 7518   7.473   1.082   4.843  1.2910  2.9032  0.8165
   82SOPE  H11S 7519   7.395   1.164   4.989  3.0616  1.8873  0.1184
   82SOPE  C212 7520   7.348   0.959   4.967  0.2846 -0.5035 -0.0746
   82SOPE  H12R 7521   7.360   0.913   5.067  0.4225  0.0092  0.1423
   82SOPE  H12S 7522   7.363   0.879   4.891 -0.0514 -1.2582  0.6348
   82SOPE  C213 7523   7.204   1.007   4.978  0.4426 -0.7674 -0.1903
   82SOPE  H13R 7524   7.197   1.075   5.065  1.6362 -0.5188 -0.2818
   82SOPE  H13S 7525   7.138   0.921   5.004  1.4757 -0.6020  3.2153
   82SOPE  C214 7526   7.170   1.078   4.848  0.0289 -0.2698 -0.3470
   82SOPE  H14R 7527   7.242   1.054   4.767 -1.2175 -0.4991 -1.3913
   82SOPE  H14S 7528   7.189   1.187   4.861  0.4216 -0.2302 -1.1956
   82SOPE  C215 7529   7.026   1.042   4.800  0.1818  0.6798  0.1672
   82SOPE  H15R 7530   6.999   1.097   4.708 -0.5575  1.2987  0.7448
   82SOPE  H15S 7531   6.959   1.057   4.887  0.1768 -1.1533  0.4950
   82SOPE  C216 7532   7.010   0.900   4.740  0.2969 -0.6700  0.2169
   82SOPE  H16R 7533   7.026   0.830   4.825  0.0896 -1.6178 -0.5141
   82SOPE  H16S 7534   7.080   0.872   4.659  1.1648 -1.5026  1.2293
   82SOPE  C217 7535   6.859   0.868   4.691  0.2836 -0.5213  0.0787
   82SOPE  H17R 7536   6.853   0.760   4.669  1.6037 -0.7154  0.6002
   82SOPE  H17S 7537   6.844   0.929   4.600 -1.5133 -0.5094  0.3636
   82SOPE  C218 7538   6.760   0.887   4.809 -0.1234  0.2110  0.1082
   82SOPE  H18R 7539   6.772   0.987   4.854 -0.6418  0.6137 -0.6363
   82SOPE  H18S 7540   6.773   0.804   4.881 -1.0884 -2.3740 -2.5824
   82SOPE  H18T 7541   6.653   0.884   4.782  0.0649 -0.1114 -0.6275
   82SOPE   C33 7542   7.223   0.648   5.589 -0.0475 -0.5077 -0.1655
   82SOPE   H3X 7543   7.176   0.749   5.587  0.3770 -0.3020  0.0553
   82SOPE   H3Y 7544   7.144   0.571   5.598 -2.8602  2.0605 -2.3098
   82SOPE   C34 7545   7.315   0.617   5.469 -0.4432 -0.5523  0.1690
   82SOPE   H4X 7546   7.378   0.532   5.503  3.5291  1.9782 -0.5666
   82SOPE   H4Y 7547   7.385   0.700   5.449  1.6371 -2.5605 -1.1956
   82SOPE   C35 7548   7.233   0.584   5.348 -0.2378  0.9136 -0.2599
   82SOPE   H5X 7549   7.148   0.655   5.334  0.4769  1.7230 -0.4999
   82SOPE   H5Y 7550   7.193   0.481   5.361 -0.5687  1.3258  2.1317
   82SOPE   C36 7551   7.324   0.590   5.221  0.1542 -0.2340 -0.0387
   82SOPE   H6X 7552   7.405   0.514   5.230  0.2028  0.0053  1.9067
   82SOPE   H6Y 7553   7.349   0.699   5.220 -1.2102  0.0826 -0.1828
   82SOPE   C37 7554   7.245   0.558   5.088 -0.2890 -0.0043  0.1050
   82SOPE   H7X 7555   7.159   0.629   5.077 -1.0181 -0.5593  1.9901
   82SOPE   H7Y 7556   7.211   0.453   5.084  1.1126 -0.4420 -0.4364
   82SOPE   C38 7557   7.335   0.586   4.970  0.1491  0.7623 -0.3408
   82SOPE   H8X 7558   7.406   0.501   4.964 -0.3875  0.1792  1.3088
   82SOPE   H8Y 7559   7.401   0.673   4.992  2.7145 -1.9629  3.2780
   82SOPE   C39 7560   7.268   0.608   4.830  0.2815  0.3652  0.1084
   82SOPE   H9X 7561   7.210   0.703   4.828  0.9547  0.7570 -0.9702
   82SOPE   H9Y 7562   7.198   0.522   4.825 -0.3471  0.9539 -1.2678
   82SOPE  C310 7563   7.369   0.606   4.714 -0.4650  0.5096  0.3843
   82SOPE  H10X 7564   7.435   0.518   4.732  1.9464  1.9315 -1.2464
   82SOPE  H10Y 7565   7.441   0.690   4.716  1.3693 -1.0475  1.2436
   82SOPE  C311 7566   7.293   0.577   4.590 -0.0031  0.1299  0.2193
   82SOPE  H11X 7567   7.221   0.661   4.584  0.6414  0.6347 -0.5273
   82SOPE  H11Y 7568   7.242   0.478   4.590  2.6311 -1.2656  0.4703
   82SOPE  C312 7569   7.373   0.568   4.457 -0.2313 -0.3800  0.0503
   82SOPE  H12X 7570   7.395   0.464   4.426  1.4838  0.1028 -0.4416
   82SOPE  H12Y 7571   7.470   0.622   4.462 -0.5770  0.0191  3.1328
   82SOPE  C313 7572   7.282   0.625   4.341 -0.0459 -0.1755  0.2066
   82SOPE  H13X 7573   7.286   0.735   4.358  0.0657 -0.4615  2.0798
   82SOPE  H13Y 7574   7.179   0.586   4.351  0.3354 -1.4369 -0.6599
   82SOPE  C314 7575   7.327   0.589   4.199 -0.0149  0.1534 -0.5043
   82SOPE  H14X 7576   7.348   0.480   4.193  2.5820  0.5510  0.5019
   82SOPE  H14Y 7577   7.422   0.644   4.180  0.8230 -1.2858 -0.5783
   82SOPE  C315 7578   7.230   0.633   4.093 -0.0696 -0.4678  0.1606
   82SOPE  H15X 7579   7.216   0.743   4.102 -0.7271 -0.6168  1.1480
   82SOPE  H15Y 7580   7.131   0.592   4.125 -0.0592  0.3447  1.2777
   82SOPE  C316 7581   7.274   0.604   3.949 -0.4929 -0.4211 -0.1589
   82SOPE  H16X 7582   7.194   0.650   3.887 -0.1271  2.9559  1.7864
   82SOPE  H16Y 7583   7.282   0.497   3.917 -0.5618 -0.0873 -1.3045
   82SOPE  C317 7584   7.412   0.661   3.917 -0.2586 -0.4194  0.1633
   82SOPE  H17X 7585   7.488   0.587   3.950  1.0019  1.5095  1.7090
   82SOPE  H17Y 7586   7.426   0.754   3.977  1.3067 -0.4646 -0.0999
   82SOPE  C318 7587   7.440   0.715   3.775  0.2768  0.4718  0.4961
   82SOPE  H18X 7588   7.541   0.760   3.764 -1.2995  4.1110  0.1309
   82SOPE  H18Y 7589   7.367   0.798   3.756  1.3299  1.2037 -0.4808
   82SOPE  H18Z 7590   7.433   0.631   3.703 -1.7206  0.7369  0.3462
   83SOPE     N 7591   3.161   5.348   1.831 -0.3035 -0.3509 -0.2336
   83SOPE   HN1 7592   3.154   5.257   1.781 -1.1628  0.2331 -1.1928
   83SOPE   HN2 7593   3.066   5.352   1.873 -1.3708 -1.3064 -2.5004
   83SOPE   HN3 7594   3.185   5.425   1.766 -0.1490  1.1387  1.5537
   83SOPE   C12 7595   3.252   5.341   1.956 -0.0389 -0.2061  0.1845
   83SOPE  H12A 7596   3.251   5.438   2.011 -3.3160 -0.3084  0.3856
   83SOPE  H12B 7597   3.356   5.336   1.917  0.8998  2.5955  2.1752
   83SOPE   C11 7598   3.227   5.218   2.038  0.7079 -0.1484  0.0603
   83SOPE  H11A 7599   3.129   5.235   2.088  1.4714  1.0677  1.1861
   83SOPE  H11B 7600   3.299   5.222   2.123 -1.0679  4.2373  1.5113
   83SOPE     P 7601   3.229   4.955   2.031  0.2984 -0.0778  0.1449
   83SOPE   O13 7602   3.271   4.852   1.933 -0.0160 -0.3244  0.0269
   83SOPE   O14 7603   3.093   4.941   2.082 -0.7995  0.4090  0.3131
   83SOPE   O12 7604   3.238   5.098   1.970  0.4440 -0.3504 -0.0879
   83SOPE   O11 7605   3.329   4.954   2.153  0.4373  0.0924 -0.3246
   83SOPE    C1 7606   3.444   5.028   2.172 -0.0894 -0.2174  0.1849
   83SOPE    HA 7607   3.432   5.094   2.260  1.0441  0.3380 -0.0635
   83SOPE    HB 7608   3.462   5.095   2.085 -0.7040 -0.6019 -0.2457
   83SOPE    C2 7609   3.563   4.939   2.215 -0.0262 -0.4962 -0.3456
   83SOPE    HS 7610   3.563   4.856   2.141 -0.4456 -1.6052  0.8750
   83SOPE   O21 7611   3.548   4.889   2.353 -0.0485 -0.4408 -0.1400
   83SOPE   C21 7612   3.579   4.763   2.365  0.2433 -0.4420  0.4973
   83SOPE   O22 7613   3.643   4.702   2.280 -0.2655  0.9543 -0.2695
   83SOPE   C22 7614   3.554   4.722   2.510  0.3870 -0.7240 -0.3410
   83SOPE   H2R 7615   3.445   4.708   2.526  0.6891 -0.8940  1.7369
   83SOPE   H2S 7616   3.598   4.798   2.578  1.8636 -0.5126 -1.4966
   83SOPE    C3 7617   3.697   5.023   2.202  0.1259  0.0132 -0.3258
   83SOPE    HX 7618   3.673   5.123   2.244  0.0297 -0.3792  0.5783
   83SOPE    HY 7619   3.721   5.046   2.096 -0.4705  0.9987 -0.2533
   83SOPE   O31 7620   3.802   4.954   2.263 -0.0502  0.1525  0.3984
   83SOPE   C31 7621   3.902   5.030   2.307 -0.1375  0.7034  0.2787
   83SOPE   O32 7622   3.903   5.148   2.325  0.4969 -0.1276 -0.2747
   83SOPE   C32 7623   4.016   4.937   2.349  0.2305  0.5056  0.7940
   83SOPE   H2X 7624   4.107   4.999   2.360  0.8189 -0.0333 -0.7957
   83SOPE   H2Y 7625   4.043   4.859   2.274  1.4814  1.6493  0.0514
   83SOPE   C23 7626   3.626   4.587   2.561  0.3915  0.0575  0.1937
   83SOPE   H3R 7627   3.736   4.587   2.547  0.3440 -0.9226 -0.2237
   83SOPE   H3S 7628   3.577   4.506   2.503  2.0658  0.2513 -1.5360
   83SOPE   C24 7629   3.608   4.550   2.710  0.4791  0.0272  0.1338
   83SOPE   H4R 7630   3.505   4.551   2.751  1.5781  1.9776  3.0152
   83SOPE   H4S 7631   3.651   4.448   2.716 -1.2971 -0.7867 -0.9289
   83SOPE   C25 7632   3.696   4.629   2.808  0.5775 -0.0730 -0.6457
   83SOPE   H5R 7633   3.794   4.636   2.756  1.1338  0.4943  0.4549
   83SOPE   H5S 7634   3.663   4.730   2.840  0.8980 -0.1131 -0.1835
   83SOPE   C26 7635   3.736   4.551   2.940 -0.9936 -0.4857 -0.5279
   83SOPE   H6R 7636   3.761   4.445   2.917 -1.8805 -0.8392  0.1458
   83SOPE   H6S 7637   3.828   4.601   2.978 -2.6043  1.8775  0.4001
   83SOPE   C27 7638   3.635   4.545   3.061 -0.0309 -0.6937 -0.7620
   83SOPE   H7R 7639   3.633   4.651   3.094 -1.3380 -0.5633 -1.2382
   83SOPE   H7S 7640   3.536   4.510   3.024 -1.0122 -1.1223  2.1770
   83SOPE   C28 7641   3.688   4.461   3.178 -0.1196  0.0028 -0.0825
   83SOPE   H8R 7642   3.607   4.456   3.254 -1.2354 -1.0596 -1.3491
   83SOPE   H8S 7643   3.710   4.360   3.140  0.1483  1.0272 -2.7161
   83SOPE   C29 7644   3.817   4.514   3.238  0.6230  0.2078  0.0790
   83SOPE   H91 7645   3.885   4.573   3.175  0.9727 -0.0565  0.2081
   83SOPE  C210 7646   3.858   4.483   3.357 -0.2518  0.2834  0.3734
   83SOPE  H101 7647   3.951   4.519   3.402  0.5888 -0.4112 -0.7632
   83SOPE  C211 7648   3.786   4.390   3.452  0.1878  0.4154 -0.8374
   83SOPE  H11R 7649   3.859   4.337   3.516 -0.2397  0.2528 -0.4774
   83SOPE  H11S 7650   3.725   4.311   3.402 -0.5605 -0.3799  1.2982
   83SOPE  C212 7651   3.703   4.480   3.551  0.3481 -0.0908  0.1558
   83SOPE  H12R 7652   3.633   4.421   3.614 -0.4218 -0.0468 -0.6447
   83SOPE  H12S 7653   3.640   4.548   3.489 -0.1623 -0.5981  0.1147
   83SOPE  C213 7654   3.790   4.561   3.646  0.1917 -0.1656  0.2188
   83SOPE  H13R 7655   3.738   4.645   3.696  1.2630  0.4461  0.3178
   83SOPE  H13S 7656   3.875   4.606   3.589 -1.2718  1.8735 -0.3956
   83SOPE  C214 7657   3.858   4.475   3.758  0.8656 -0.5993 -0.3866
   83SOPE  H14R 7658   3.919   4.390   3.721  0.3414 -0.2398 -2.1056
   83SOPE  H14S 7659   3.774   4.434   3.818  0.1931  2.4207  0.8338
   83SOPE  C215 7660   3.941   4.565   3.859  0.0874 -0.1952 -0.4951
   83SOPE  H15R 7661   3.957   4.669   3.824 -0.3449  0.7928  2.1477
   83SOPE  H15S 7662   4.033   4.505   3.875 -0.1262 -0.4844 -0.3472
   83SOPE  C216 7663   3.878   4.581   3.999  0.6672 -0.1640 -0.2317
   83SOPE  H16R 7664   3.779   4.624   3.973 -0.8751 -2.4829  1.5804
   83SOPE  H16S 7665   3.931   4.657   4.061 -1.2142  2.0162 -1.2332
   83SOPE  C217 7666   3.853   4.443   4.068 -0.3187 -0.2674 -0.4201
   83SOPE  H17R 7667   3.952   4.393   4.065 -0.0781 -0.1319  3.1922
   83SOPE  H17S 7668   3.776   4.374   4.027 -1.6242 -0.5538  2.3679
   83SOPE  C218 7669   3.814   4.464   4.212 -0.9406 -0.4214  0.1326
   83SOPE  H18R 7670   3.884   4.530   4.268  0.4928 -0.0650 -2.0385
   83SOPE  H18S 7671   3.806   4.371   4.272  0.5171 -0.7632 -0.1802
   83SOPE  H18T 7672   3.713   4.509   4.220  0.0751  2.2139 -1.0079
   83SOPE   C33 7673   3.988   4.854   2.476  0.5692 -0.7281  0.2768
   83SOPE   H3X 7674   4.071   4.781   2.486 -0.8088 -2.1299  1.8140
   83SOPE   H3Y 7675   3.900   4.791   2.450  0.4743  0.0337 -1.3014
   83SOPE   C34 7676   3.977   4.930   2.611 -0.1479 -0.5945  0.7531
   83SOPE   H4X 7677   4.013   5.033   2.590 -0.0521 -0.2086  2.6785
   83SOPE   H4Y 7678   4.026   4.882   2.698  1.3495  2.4427  1.6873
   83SOPE   C35 7679   3.825   4.935   2.648 -0.1868 -0.2952  0.4190
   83SOPE   H5X 7680   3.795   4.833   2.679 -1.8831  0.6157  1.8934
   83SOPE   H5Y 7681   3.763   4.970   2.563 -1.7453  1.7551  2.3333
   83SOPE   C36 7682   3.794   5.027   2.767  0.8967 -0.0306 -0.2931
   83SOPE   H6X 7683   3.684   5.037   2.782  0.9731  0.6236 -0.1781
   83SOPE   H6Y 7684   3.834   5.126   2.739 -1.9894  1.3553  0.3335
   83SOPE   C37 7685   3.872   4.975   2.892 -0.7483 -0.0005 -0.1012
   83SOPE   H7X 7686   3.981   4.998   2.886 -0.3476 -1.3905  1.5601
   83SOPE   H7Y 7687   3.857   4.865   2.896  0.6142 -0.1305  2.8265
   83SOPE   C38 7688   3.817   5.035   3.014  0.6768 -0.0630  0.1541
   83SOPE   H8X 7689   3.707   5.046   3.009  0.4681 -2.0411 -0.1142
   83SOPE   H8Y 7690   3.845   5.142   3.018 -0.3341  0.3439 -2.6302
   83SOPE   C39 7691   3.855   4.951   3.133  0.1808 -0.1101  0.4821
   83SOPE   H9X 7692   3.966   4.950   3.138  0.2894 -2.4013 -1.4785
   83SOPE   H9Y 7693   3.825   4.845   3.117 -0.4936  0.0731  0.4985
   83SOPE  C310 7694   3.801   4.998   3.264 -0.1078 -0.4944  0.6046
   83SOPE  H10X 7695   3.690   5.003   3.262 -0.2370 -3.0390 -1.0978
   83SOPE  H10Y 7696   3.844   5.100   3.279  0.8871 -1.1387  2.2994
   83SOPE  C311 7697   3.849   4.921   3.388 -0.7716  0.0010  0.0713
   83SOPE  H11X 7698   3.956   4.898   3.373 -0.5527  0.7909  0.4100
   83SOPE  H11Y 7699   3.803   4.820   3.384  1.0543 -0.8622  0.4436
   83SOPE  C312 7700   3.837   4.992   3.521  0.1098 -0.2029  0.8442
   83SOPE  H12X 7701   3.728   4.989   3.544 -0.4089  1.0981 -1.3369
   83SOPE  H12Y 7702   3.868   5.097   3.505 -1.4100 -0.1243 -1.8000
   83SOPE  C313 7703   3.908   4.931   3.641 -0.6473 -0.6348  0.1392
   83SOPE  H13X 7704   4.017   4.950   3.630 -0.5415 -1.9714 -1.3684
   83SOPE  H13Y 7705   3.900   4.821   3.655 -0.2943 -0.4589  1.7618
   83SOPE  C314 7706   3.875   5.010   3.768  0.3170  0.1607 -1.2079
   83SOPE  H14X 7707   3.773   4.978   3.801  0.7359  0.1128  0.0715
   83SOPE  H14Y 7708   3.860   5.116   3.739 -1.3029 -0.5966 -3.2526
   83SOPE  C315 7709   3.962   4.971   3.882 -1.0550  0.1462 -0.0763
   83SOPE  H15X 7710   4.070   4.971   3.855 -1.4556 -0.1167 -1.7458
   83SOPE  H15Y 7711   3.931   4.866   3.902 -2.5409  0.4525 -0.7106
   83SOPE  C316 7712   3.928   5.052   4.009 -0.0617 -0.0460 -0.2130
   83SOPE  H16X 7713   3.820   5.075   4.017  0.1576  0.0618  2.7749
   83SOPE  H16Y 7714   3.986   5.147   4.007  1.2079 -0.5972  4.4332
   83SOPE  C317 7715   3.968   4.981   4.141 -0.2450 -0.6553 -0.0101
   83SOPE  H17X 7716   4.073   4.944   4.140 -0.7764 -2.2573  1.2327
   83SOPE  H17Y 7717   3.895   4.898   4.149 -0.6350 -0.4567 -1.3893
   83SOPE  C318 7718   3.948   5.066   4.266  0.6018 -0.3953  0.0776
   83SOPE  H18X 7719   3.993   5.025   4.359 -1.3684 -1.3692  0.6248
   83SOPE  H18Y 7720   3.841   5.075   4.294  0.7099  0.4441  0.2556
   83SOPE  H18Z 7721   3.992   5.168   4.259 -2.2736  1.0630  2.0203
   84SOPE     N 7722   2.084   3.847   2.207  1.3704 -0.7275 -0.0197
   84SOPE   HN1 7723   2.060   3.754   2.246 -1.9503  0.4764  1.0166
   84SOPE   HN2 7724   1.990   3.890   2.212  0.7641 -1.5917 -3.1716
   84SOPE   HN3 7725   2.115   3.828   2.110 -2.7557  1.0484 -1.7902
   84SOPE   C12 7726   2.200   3.914   2.292 -0.4760 -0.1632  0.5231
   84SOPE  H12A 7727   2.289   3.853   2.266 -1.1530 -0.7844 -0.3809
   84SOPE  H12B 7728   2.175   3.922   2.400 -0.1534  0.6218  0.5412
   84SOPE   C11 7729   2.230   4.067   2.251 -0.1451 -0.7431  0.5229
   84SOPE  H11A 7730   2.304   4.102   2.326  2.1064 -2.7268 -0.6765
   84SOPE  H11B 7731   2.139   4.124   2.278 -0.6413 -2.2559  2.1348
   84SOPE     P 7732   2.408   4.092   2.057  0.5232 -0.3331  0.2286
   84SOPE   O13 7733   2.402   4.172   1.929  0.3587 -0.2045 -0.5970
   84SOPE   O14 7734   2.469   3.953   2.056  0.3577  0.1528  0.0736
   84SOPE   O12 7735   2.257   4.080   2.112 -0.0685  0.4227  0.2736
   84SOPE   O11 7736   2.472   4.173   2.175 -0.7813 -1.0586  0.3559
   84SOPE    C1 7737   2.617   4.178   2.201  0.0084 -0.5968 -0.0487
   84SOPE    HA 7738   2.639   4.279   2.242 -1.6792  0.3295 -1.3670
   84SOPE    HB 7739   2.669   4.173   2.102 -0.9325 -1.0816 -0.5202
   84SOPE    C2 7740   2.671   4.068   2.293 -0.2402 -0.4582 -0.1387
   84SOPE    HS 7741   2.672   3.972   2.237 -1.3343 -0.4828 -0.1184
   84SOPE   O21 7742   2.575   4.049   2.399 -0.0718  0.0509 -0.3225
   84SOPE   C21 7743   2.600   3.946   2.470 -0.8258 -0.0021 -0.0168
   84SOPE   O22 7744   2.680   3.855   2.444  0.0592  0.3356  0.1331
   84SOPE   C22 7745   2.501   3.957   2.583 -0.1485 -0.3236 -0.8160
   84SOPE   H2R 7746   2.400   3.986   2.548  0.1329 -1.1102 -2.3310
   84SOPE   H2S 7747   2.532   4.044   2.644  0.6624 -1.5447  0.5437
   84SOPE    C3 7748   2.823   4.099   2.341 -0.2681 -0.2764  0.1569
   84SOPE    HX 7749   2.886   4.089   2.249 -0.7929  0.0825 -0.2433
   84SOPE    HY 7750   2.860   4.023   2.413  3.8309 -0.1249 -1.6510
   84SOPE   O31 7751   2.845   4.228   2.403 -0.3020  0.1083  0.1126
   84SOPE   C31 7752   2.825   4.232   2.535  0.0166 -0.5544 -0.1773
   84SOPE   O32 7753   2.789   4.135   2.600 -0.3777  0.0563 -0.3298
   84SOPE   C32 7754   2.820   4.371   2.579  0.2641  0.1325  0.5355
   84SOPE   H2X 7755   2.735   4.413   2.522 -0.6211 -0.0522  1.7069
   84SOPE   H2Y 7756   2.913   4.427   2.559 -0.0773  0.7917  0.7905
   84SOPE   C23 7757   2.503   3.841   2.679 -0.1080 -0.0634 -0.1062
   84SOPE   H3R 7758   2.592   3.831   2.746 -2.0696  0.2192  2.6344
   84SOPE   H3S 7759   2.496   3.747   2.621 -1.8144 -0.1176  0.1806
   84SOPE   C24 7760   2.384   3.849   2.778 -0.0639 -0.3546 -0.6475
   84SOPE   H4R 7761   2.292   3.814   2.726 -0.6003  1.2012 -0.7525
   84SOPE   H4S 7762   2.409   3.773   2.856  2.9645  0.9327 -0.2674
   84SOPE   C25 7763   2.367   3.985   2.837 -0.4131 -0.3239 -0.2023
   84SOPE   H5R 7764   2.341   4.058   2.758  2.0634 -0.5555 -1.2803
   84SOPE   H5S 7765   2.272   3.971   2.892  1.5050 -0.7530  3.1332
   84SOPE   C26 7766   2.482   4.037   2.918  0.4779  0.3905 -0.1919
   84SOPE   H6R 7767   2.506   3.967   3.000 -2.0707 -0.6575 -0.2817
   84SOPE   H6S 7768   2.570   4.052   2.852 -0.4830  0.6432 -1.4411
   84SOPE   C27 7769   2.442   4.168   2.990 -0.5695  0.6459 -0.0400
   84SOPE   H7R 7770   2.447   4.245   2.910 -1.2718  1.0613  0.3183
   84SOPE   H7S 7771   2.338   4.165   3.027  0.0424  1.1867  1.7649
   84SOPE   C28 7772   2.547   4.218   3.092 -0.1396 -0.0365 -0.1585
   84SOPE   H8R 7773   2.569   4.140   3.169 -0.8856  0.6534  0.7626
   84SOPE   H8S 7774   2.637   4.249   3.034 -0.7140 -0.0576 -1.0591
   84SOPE   C29 7775   2.486   4.338   3.167 -0.0129 -0.3737 -1.2004
   84SOPE   H91 7776   2.467   4.418   3.094 -0.4344  0.8135  0.1759
   84SOPE  C210 7777   2.481   4.359   3.297 -0.4829 -0.5339 -0.0009
   84SOPE  H101 7778   2.429   4.449   3.332  1.6699  1.9317 -2.8090
   84SOPE  C211 7779   2.533   4.269   3.409 -0.4705  0.6113 -0.3448
   84SOPE  H11R 7780   2.589   4.181   3.370 -0.8607  0.7603 -1.2468
   84SOPE  H11S 7781   2.442   4.225   3.454 -0.8034  0.6464 -0.9768
   84SOPE  C212 7782   2.623   4.344   3.510 -0.4183 -0.2379 -0.1169
   84SOPE  H12R 7783   2.706   4.391   3.453 -1.0040  1.4501  0.3813
   84SOPE  H12S 7784   2.668   4.275   3.585 -0.7297  1.3887  1.5910
   84SOPE  C213 7785   2.549   4.447   3.590  0.4579 -0.5652 -0.3371
   84SOPE  H13R 7786   2.502   4.530   3.533  2.3569  1.3913  0.8848
   84SOPE  H13S 7787   2.627   4.494   3.653  1.2704 -2.0024 -0.2508
   84SOPE  C214 7788   2.457   4.387   3.702  0.2372  0.2921 -0.0820
   84SOPE  H14R 7789   2.515   4.327   3.775 -1.2207  2.7848  3.2589
   84SOPE  H14S 7790   2.374   4.331   3.654 -0.4120  2.0575 -1.0774
   84SOPE  C215 7791   2.389   4.479   3.799  0.8497  0.2142  0.1318
   84SOPE  H15R 7792   2.339   4.405   3.865  1.1951  0.2681  0.4558
   84SOPE  H15S 7793   2.307   4.542   3.757 -0.1210  0.2639  2.0546
   84SOPE  C216 7794   2.487   4.557   3.881  0.1339 -0.4991  0.4551
   84SOPE  H16R 7795   2.526   4.641   3.821  1.8851  0.2262  2.5501
   84SOPE  H16S 7796   2.579   4.506   3.916 -1.1891 -2.2782  1.4464
   84SOPE  C217 7797   2.420   4.603   4.010  0.8568 -0.3951 -0.5598
   84SOPE  H17R 7798   2.379   4.517   4.067  0.7957  1.5114  2.3720
   84SOPE  H17S 7799   2.336   4.671   3.984  0.9864 -0.5218 -1.3205
   84SOPE  C218 7800   2.507   4.687   4.101  0.1467  0.6108  0.2968
   84SOPE  H18R 7801   2.577   4.757   4.050  1.5448  0.9642  2.6077
   84SOPE  H18S 7802   2.573   4.617   4.156 -1.7512 -1.5221 -0.0707
   84SOPE  H18T 7803   2.457   4.748   4.179 -0.0013  0.1943  0.5270
   84SOPE   C33 7804   2.766   4.394   2.730  0.0900  0.2170  0.2718
   84SOPE   H3X 7805   2.667   4.346   2.747 -0.0701  0.6327  0.5373
   84SOPE   H3Y 7806   2.736   4.501   2.732 -2.7188 -0.5359  2.6301
   84SOPE   C34 7807   2.850   4.353   2.852  0.1568 -0.6525 -0.0282
   84SOPE   H4X 7808   2.959   4.370   2.837  0.3121  1.0385  2.8343
   84SOPE   H4Y 7809   2.833   4.250   2.889  1.3722 -0.7877  0.1777
   84SOPE   C35 7810   2.832   4.446   2.972 -0.1655  0.2737 -0.5057
   84SOPE   H5X 7811   2.724   4.445   2.999 -0.0530 -0.0650 -0.0652
   84SOPE   H5Y 7812   2.853   4.551   2.941 -1.6674  0.5125 -0.7501
   84SOPE   C36 7813   2.920   4.412   3.096  0.3341  0.0361  0.0134
   84SOPE   H6X 7814   3.023   4.424   3.058 -0.7136  3.2574 -2.0554
   84SOPE   H6Y 7815   2.894   4.309   3.128 -1.1538  0.5638  0.5330
   84SOPE   C37 7816   2.887   4.516   3.198 -0.1233  0.0448 -0.4268
   84SOPE   H7X 7817   2.776   4.523   3.208 -0.1446 -2.1062  1.2939
   84SOPE   H7Y 7818   2.931   4.608   3.154  2.8097 -1.4337 -0.7081
   84SOPE   C38 7819   2.957   4.484   3.328 -0.2595 -0.2758 -0.4556
   84SOPE   H8X 7820   3.067   4.495   3.324 -0.1056 -1.2032  0.9485
   84SOPE   H8Y 7821   2.917   4.388   3.366  0.2207 -0.0098  0.7309
   84SOPE   C39 7822   2.923   4.591   3.436  0.9707 -0.7126  0.6184
   84SOPE   H9X 7823   2.819   4.586   3.473  0.7272  1.7245  0.3775
   84SOPE   H9Y 7824   2.939   4.690   3.388  0.0271 -1.1041 -0.5097
   84SOPE  C310 7825   3.023   4.591   3.561  0.2223 -0.4529  0.6532
   84SOPE  H10X 7826   3.116   4.640   3.525 -0.4016 -0.7783 -1.5079
   84SOPE  H10Y 7827   3.044   4.483   3.580  1.9605 -0.4641 -1.0725
   84SOPE  C311 7828   2.971   4.659   3.691 -0.0807 -0.6533  0.6515
   84SOPE  H11X 7829   2.901   4.741   3.662 -0.6922 -2.3821 -3.0735
   84SOPE  H11Y 7830   3.054   4.706   3.747  0.2819 -0.5815  0.0561
   84SOPE  C312 7831   2.908   4.554   3.780  0.0757  0.0961 -0.5699
   84SOPE  H12X 7832   2.867   4.471   3.717 -0.4828 -2.3143  2.8500
   84SOPE  H12Y 7833   2.835   4.606   3.845  1.6592  1.6234  0.0130
   84SOPE  C313 7834   3.013   4.486   3.873  0.1429  0.2640 -0.7727
   84SOPE  H13X 7835   3.060   4.563   3.937 -0.9042 -0.0767  0.4194
   84SOPE  H13Y 7836   3.088   4.439   3.806  2.1067 -0.9009  2.1365
   84SOPE  C314 7837   2.947   4.390   3.967  0.1282  0.6330 -0.0384
   84SOPE  H14X 7838   2.899   4.441   4.054  2.0485  2.4354  0.0002
   84SOPE  H14Y 7839   3.034   4.332   4.005  1.5547  1.1832 -2.3558
   84SOPE  C315 7840   2.843   4.286   3.911 -0.0227 -0.3574 -0.2482
   84SOPE  H15X 7841   2.873   4.248   3.811 -0.0915  2.3809 -1.3509
   84SOPE  H15Y 7842   2.744   4.334   3.894  0.8641  1.1565 -1.2153
   84SOPE  C316 7843   2.826   4.174   4.014 -0.5283  0.1396  0.3636
   84SOPE  H16X 7844   2.792   4.213   4.113 -0.3932  2.5079 -0.4935
   84SOPE  H16Y 7845   2.921   4.118   4.026  1.5003  2.9552 -2.0318
   84SOPE  C317 7846   2.711   4.070   3.979  0.7449 -0.9380 -0.5538
   84SOPE  H17X 7847   2.727   4.022   3.880 -1.0843 -2.9244  0.0807
   84SOPE  H17Y 7848   2.623   4.134   3.953  0.5451 -0.6375  0.7984
   84SOPE  C318 7849   2.667   3.963   4.076 -0.6945  1.2154  0.0832
   84SOPE  H18X 7850   2.651   3.996   4.181 -1.1908  0.9262  0.0958
   84SOPE  H18Y 7851   2.745   3.884   4.071 -1.3848  0.4000  1.7216
   84SOPE  H18Z 7852   2.570   3.920   4.044 -0.5054 -1.0669  2.4294
   85SOPE     N 7853   5.724   4.811   2.149 -0.2327 -0.2830 -0.0267
   85SOPE   HN1 7854   5.721   4.914   2.158 -0.3232 -0.3222  0.4205
   85SOPE   HN2 7855   5.822   4.776   2.144  0.1094  0.4973  1.0379
   85SOPE   HN3 7856   5.682   4.790   2.056  1.6764 -3.0288 -0.3336
   85SOPE   C12 7857   5.654   4.773   2.268 -0.4208  0.5742 -0.2327
   85SOPE  H12A 7858   5.700   4.815   2.360 -2.6338  1.1287  0.6586
   85SOPE  H12B 7859   5.658   4.663   2.282 -1.4188  0.5630  0.0768
   85SOPE   C11 7860   5.509   4.834   2.261  0.3106 -0.1491  0.0836
   85SOPE  H11A 7861   5.508   4.945   2.265 -0.9202  0.0628 -4.0628
   85SOPE  H11B 7862   5.467   4.792   2.355  3.6904 -0.4517  1.5593
   85SOPE     P 7863   5.302   4.840   2.106 -0.1255 -0.4034 -0.0840
   85SOPE   O13 7864   5.214   4.735   2.059 -0.4148 -0.2705 -0.1991
   85SOPE   O14 7865   5.321   4.947   2.013 -0.7765 -0.4331  0.2800
   85SOPE   O12 7866   5.442   4.781   2.142  0.4292 -0.2213 -0.1178
   85SOPE   O11 7867   5.252   4.910   2.237 -0.7414  0.1838 -0.1226
   85SOPE    C1 7868   5.160   4.848   2.336 -0.5520  0.1099  0.4713
   85SOPE    HA 7869   5.206   4.781   2.412  2.3988  0.8868 -0.5411
   85SOPE    HB 7870   5.094   4.773   2.287 -1.2000  1.2444 -0.4024
   85SOPE    C2 7871   5.068   4.951   2.406  0.3959 -0.3605 -0.3262
   85SOPE    HS 7872   5.076   5.046   2.348  1.1058  0.0154  0.3681
   85SOPE   O21 7873   5.117   4.967   2.541 -0.1180 -0.0431 -0.0176
   85SOPE   C21 7874   5.227   5.039   2.557 -0.0132 -0.2896  0.1199
   85SOPE   O22 7875   5.298   5.091   2.475 -0.0862  0.2056 -0.0828
   85SOPE   C22 7876   5.252   5.060   2.704 -0.1978  0.0831 -0.1445
   85SOPE   H2R 7877   5.237   5.169   2.719 -0.4961 -0.1128  1.0197
   85SOPE   H2S 7878   5.357   5.029   2.722  0.1211  1.3927  0.2932
   85SOPE    C3 7879   4.920   4.900   2.422  0.1714 -0.3258  0.1742
   85SOPE    HX 7880   4.875   4.886   2.322 -1.0391  1.5935  0.4303
   85SOPE    HY 7881   4.865   4.978   2.479 -0.1301  0.3868 -1.0891
   85SOPE   O31 7882   4.926   4.777   2.488  0.1022  0.7585  0.0086
   85SOPE   C31 7883   4.824   4.743   2.563 -0.2630  0.2456 -0.2657
   85SOPE   O32 7884   4.722   4.810   2.576 -0.2733  0.2012 -0.0159
   85SOPE   C32 7885   4.836   4.601   2.626 -0.6287 -0.5821 -0.3575
   85SOPE   H2X 7886   4.853   4.524   2.547  1.2243 -1.3692  0.7648
   85SOPE   H2Y 7887   4.741   4.590   2.683  0.1844  2.7806  1.7886
   85SOPE   C23 7888   5.161   4.978   2.800 -0.0754  0.1808 -0.0304
   85SOPE   H3R 7889   5.193   4.871   2.802  0.6937  0.4176  2.4397
   85SOPE   H3S 7890   5.057   4.968   2.764  0.5505 -0.0751 -1.8137
   85SOPE   C24 7891   5.146   5.036   2.938  0.0599 -0.1766  0.6249
   85SOPE   H4R 7892   5.133   5.145   2.926 -1.5652 -0.3920  0.2946
   85SOPE   H4S 7893   5.053   5.002   2.988  0.6800 -1.2110  1.0976
   85SOPE   C25 7894   5.272   5.011   3.034  0.2919  0.1330  0.3262
   85SOPE   H5R 7895   5.263   4.903   3.060  0.0447  0.3037  0.9539
   85SOPE   H5S 7896   5.371   5.041   2.994  1.4318 -1.9157  1.4760
   85SOPE   C26 7897   5.251   5.096   3.160  0.2078 -0.6726 -0.5438
   85SOPE   H6R 7898   5.340   5.096   3.226 -0.9307 -0.8653  1.0028
   85SOPE   H6S 7899   5.215   5.200   3.142 -1.7314 -0.9723  1.4853
   85SOPE   C27 7900   5.147   5.034   3.252  0.5094  0.0329  0.5828
   85SOPE   H7R 7901   5.042   5.054   3.224  1.5295  2.9960 -1.4844
   85SOPE   H7S 7902   5.157   4.924   3.258  1.6550  0.0529 -0.5875
   85SOPE   C28 7903   5.173   5.065   3.398 -0.7613  1.5797  0.1059
   85SOPE   H8R 7904   5.097   5.004   3.451 -0.3726 -0.7101 -1.8843
   85SOPE   H8S 7905   5.274   5.028   3.427 -0.4199  1.3661 -1.3286
   85SOPE   C29 7906   5.157   5.206   3.447 -0.0851  0.8628 -0.0540
   85SOPE   H91 7907   5.240   5.277   3.437 -0.9789  1.8111 -0.9188
   85SOPE  C210 7908   5.047   5.248   3.507 -0.5717  0.7678 -0.6029
   85SOPE  H101 7909   5.022   5.354   3.522 -1.0460  0.5319  0.3609
   85SOPE  C211 7910   4.928   5.161   3.540 -0.4474 -0.0507 -0.3923
   85SOPE  H11R 7911   4.956   5.057   3.570 -2.4405 -0.3102  0.6453
   85SOPE  H11S 7912   4.861   5.144   3.454 -1.1532 -2.1723  0.5207
   85SOPE  C212 7913   4.835   5.210   3.649 -0.5122  0.4502 -0.3140
   85SOPE  H12R 7914   4.741   5.151   3.650 -1.0564  1.2937 -0.9705
   85SOPE  H12S 7915   4.799   5.311   3.621 -0.1083  0.4119 -1.0005
   85SOPE  C213 7916   4.901   5.221   3.788  0.0930  0.0073  0.9204
   85SOPE  H13R 7917   4.970   5.135   3.800 -0.5825 -0.9468 -1.7092
   85SOPE  H13S 7918   4.829   5.195   3.868  1.3927 -3.5760  1.0056
   85SOPE  C214 7919   4.959   5.356   3.816 -0.0562 -0.4441  0.1067
   85SOPE  H14R 7920   4.881   5.435   3.822 -2.0871 -2.4117  0.7404
   85SOPE  H14S 7921   5.020   5.385   3.728  0.1273 -1.3467 -0.0673
   85SOPE  C215 7922   5.031   5.362   3.951  0.0621  0.0397 -0.1234
   85SOPE  H15R 7923   4.958   5.345   4.032  0.1098 -0.8397 -0.2654
   85SOPE  H15S 7924   5.077   5.464   3.952  0.2141 -0.0147 -1.2273
   85SOPE  C216 7925   5.126   5.251   3.986  0.7990  0.6596  0.5040
   85SOPE  H16R 7926   5.207   5.244   3.910 -0.5660 -1.4049 -0.7938
   85SOPE  H16S 7927   5.072   5.156   3.969  1.0738  0.7852 -1.2113
   85SOPE  C217 7928   5.177   5.245   4.133  0.8672 -0.2843  0.4351
   85SOPE  H17R 7929   5.090   5.269   4.198  0.3234  0.0956 -0.4357
   85SOPE  H17S 7930   5.253   5.326   4.142  1.3045 -0.7271  0.7420
   85SOPE  C218 7931   5.241   5.106   4.149 -0.3079 -0.1573 -0.2242
   85SOPE  H18R 7932   5.159   5.033   4.132  0.9809 -1.1509 -2.3779
   85SOPE  H18S 7933   5.286   5.108   4.250  0.0772  1.1955 -0.4070
   85SOPE  H18T 7934   5.322   5.094   4.074  0.5112  0.2403  0.6017
   85SOPE   C33 7935   4.949   4.596   2.738  0.7167  0.2862  0.5255
   85SOPE   H3X 7936   5.047   4.624   2.695  0.2571  0.2378 -0.5844
   85SOPE   H3Y 7937   4.949   4.493   2.779  1.0165 -0.7002 -1.8249
   85SOPE   C34 7938   4.931   4.682   2.869 -0.8388  0.0010 -0.2229
   85SOPE   H4X 7939   4.905   4.785   2.837  1.3254  1.7067  3.1902
   85SOPE   H4Y 7940   5.029   4.697   2.920 -0.1283 -0.7722 -1.3341
   85SOPE   C35 7941   4.817   4.642   2.958  0.4368 -0.9062  0.5677
   85SOPE   H5X 7942   4.849   4.545   3.002  0.3278 -0.4457  1.6725
   85SOPE   H5Y 7943   4.722   4.625   2.903  1.0011 -0.1688 -0.6348
   85SOPE   C36 7944   4.799   4.739   3.069 -0.3311 -0.9669  0.0717
   85SOPE   H6X 7945   4.726   4.693   3.139 -1.9122  1.4340  0.0660
   85SOPE   H6Y 7946   4.758   4.842   3.063  2.7554  0.4774  2.1615
   85SOPE   C37 7947   4.932   4.755   3.146 -0.0535 -0.0657 -0.4892
   85SOPE   H7X 7948   4.992   4.832   3.094  0.7862 -0.5599 -0.2662
   85SOPE   H7Y 7949   4.994   4.662   3.141 -0.4693 -0.4194  0.8150
   85SOPE   C38 7950   4.903   4.796   3.289  0.4743 -0.0719 -0.4241
   85SOPE   H8X 7951   4.820   4.870   3.294 -0.1628 -0.8943  2.0215
   85SOPE   H8Y 7952   4.992   4.849   3.332 -0.1747  0.6541  0.0472
   85SOPE   C39 7953   4.876   4.668   3.372 -0.3358 -0.1514 -0.0574
   85SOPE   H9X 7954   4.963   4.603   3.353  1.1986  1.7984  0.0782
   85SOPE   H9Y 7955   4.784   4.623   3.329 -0.7997 -0.6295  1.4263
   85SOPE  C310 7956   4.858   4.697   3.523 -0.5009 -0.9773 -0.1789
   85SOPE  H10X 7957   4.953   4.752   3.543 -1.2641 -0.2933  1.7365
   85SOPE  H10Y 7958   4.868   4.595   3.565 -0.6088  0.3612  3.2438
   85SOPE  C311 7959   4.737   4.764   3.573 -0.9647 -1.2105  0.3477
   85SOPE  H11X 7960   4.651   4.694   3.585 -1.1897 -0.8849  0.6478
   85SOPE  H11Y 7961   4.706   4.843   3.501 -2.4093  0.1290  2.3777
   85SOPE  C312 7962   4.755   4.821   3.711  0.2103 -0.7783 -0.1896
   85SOPE  H12X 7963   4.663   4.876   3.742  1.9314  0.9521  2.1271
   85SOPE  H12Y 7964   4.838   4.895   3.705 -0.7551  0.4384  0.9417
   85SOPE  C313 7965   4.783   4.724   3.824  0.2424  0.1853  0.0343
   85SOPE  H13X 7966   4.877   4.669   3.801  0.6586  1.4012 -1.2577
   85SOPE  H13Y 7967   4.709   4.643   3.838  0.8034 -0.4185 -0.4501
   85SOPE  C314 7968   4.801   4.794   3.960  0.0488  0.0903 -0.2255
   85SOPE  H14X 7969   4.707   4.843   3.993  1.2565  1.1724  1.6700
   85SOPE  H14Y 7970   4.878   4.874   3.958 -2.4007  2.5356 -1.0800
   85SOPE  C315 7971   4.841   4.689   4.068 -0.0741  0.3402  0.1915
   85SOPE  H15X 7972   4.752   4.628   4.095 -0.9434  1.8428  0.8490
   85SOPE  H15Y 7973   4.862   4.750   4.159  2.1404  1.7489 -1.2252
   85SOPE  C316 7974   4.966   4.592   4.035 -0.3870  0.1724 -0.7628
   85SOPE  H16X 7975   5.047   4.647   3.983  0.5328  0.5895  1.1093
   85SOPE  H16Y 7976   4.908   4.516   3.977  0.0796  0.5848 -1.7723
   85SOPE  C317 7977   5.026   4.541   4.169 -0.1214  0.4368  0.3215
   85SOPE  H17X 7978   5.078   4.444   4.151 -0.3208  0.2327  0.8679
   85SOPE  H17Y 7979   4.943   4.524   4.241 -2.4148  0.3243 -2.2555
   85SOPE  C318 7980   5.126   4.638   4.224  0.0661  0.5968 -0.8992
   85SOPE  H18X 7981   5.166   4.601   4.321  0.3021  0.3894 -1.0745
   85SOPE  H18Y 7982   5.077   4.732   4.259  0.6391 -0.1850  2.0857
   85SOPE  H18Z 7983   5.207   4.666   4.153  1.4435 -0.0598  0.3897
   86SOPE     N 7984   6.001   1.260   2.121 -0.6116  0.2233  0.1100
   86SOPE   HN1 7985   6.060   1.346   2.119  0.3392 -0.4201 -0.1457
   86SOPE   HN2 7986   5.934   1.279   2.198 -0.3191 -1.2016  0.7345
   86SOPE   HN3 7987   6.065   1.185   2.154  0.0797  0.3683 -0.8607
   86SOPE   C12 7988   5.925   1.221   1.997  0.3727 -0.0344 -0.1689
   86SOPE  H12A 7989   5.998   1.230   1.913 -0.9174 -1.6261 -1.4732
   86SOPE  H12B 7990   5.843   1.295   1.988  0.9308  0.6727  0.4074
   86SOPE   C11 7991   5.863   1.084   2.015 -0.2819 -0.3732  0.1615
   86SOPE  H11A 7992   5.930   1.023   2.080  2.3989 -1.1211 -3.1476
   86SOPE  H11B 7993   5.861   1.034   1.916  2.8800 -0.7067  0.2187
   86SOPE     P 7994   5.651   0.966   2.089  0.0772 -0.1572 -0.8804
   86SOPE   O13 7995   5.717   0.848   2.026  0.2076  0.6441  0.4218
   86SOPE   O14 7996   5.507   0.986   2.054 -0.2577 -0.1216  0.2177
   86SOPE   O12 7997   5.730   1.094   2.063 -1.1944 -0.3460  0.3721
   86SOPE   O11 7998   5.665   0.959   2.242  0.1265  0.2826  0.2408
   86SOPE    C1 7999   5.617   1.054   2.337 -0.1600 -0.0126 -0.3143
   86SOPE    HA 8000   5.563   0.993   2.412  0.4046 -2.4592 -1.8329
   86SOPE    HB 8001   5.532   1.113   2.297 -0.3373 -0.9431 -1.3532
   86SOPE    C2 8002   5.731   1.140   2.385  0.8036 -0.1793 -0.0218
   86SOPE    HS 8003   5.777   1.172   2.289  0.8671 -1.2927 -0.3656
   86SOPE   O21 8004   5.823   1.063   2.467 -0.1252  0.2873 -0.1327
   86SOPE   C21 8005   5.950   1.080   2.451 -0.2661  0.3521 -0.5692
   86SOPE   O22 8006   6.004   1.167   2.392 -0.5437 -0.4508 -0.2949
   86SOPE   C22 8007   6.027   0.972   2.525 -0.3054  0.1683 -0.3922
   86SOPE   H2R 8008   6.061   1.007   2.625 -0.0054 -0.9856 -0.0903
   86SOPE   H2S 8009   6.121   0.952   2.469  0.6381  2.0260  0.4673
   86SOPE    C3 8010   5.685   1.273   2.460  0.1874 -0.6473 -0.0865
   86SOPE    HX 8011   5.655   1.350   2.386  0.4653 -0.1123  0.3474
   86SOPE    HY 8012   5.780   1.319   2.493  0.4492 -0.5195 -1.0148
   86SOPE   O31 8013   5.596   1.244   2.573 -0.6106  0.2501 -0.4568
   86SOPE   C31 8014   5.512   1.352   2.603  0.4878 -0.0231  0.3210
   86SOPE   O32 8015   5.517   1.457   2.538 -0.1378 -0.2317  0.5666
   86SOPE   C32 8016   5.418   1.301   2.711  0.3096 -0.4384  0.5481
   86SOPE   H2X 8017   5.480   1.271   2.798  0.1157  0.2301  0.9169
   86SOPE   H2Y 8018   5.369   1.210   2.669 -1.8974  0.7872  0.4123
   86SOPE   C23 8019   5.949   0.836   2.532  0.3108 -0.2145 -0.6027
   86SOPE   H3R 8020   5.852   0.852   2.583 -0.1890  4.1611 -2.6635
   86SOPE   H3S 8021   6.007   0.772   2.602 -1.9409 -0.4639  1.1122
   86SOPE   C24 8022   5.931   0.781   2.397  0.0263 -0.0270  0.4219
   86SOPE   H4R 8023   5.861   0.847   2.342 -0.4063 -0.2775  0.6646
   86SOPE   H4S 8024   6.012   0.785   2.321 -3.0472 -2.4319 -3.1795
   86SOPE   C25 8025   5.871   0.640   2.397 -0.5869 -0.2023  0.1909
   86SOPE   H5R 8026   5.948   0.571   2.438 -0.0569  0.0496 -0.3535
   86SOPE   H5S 8027   5.788   0.629   2.469  0.0196 -0.2166  0.9010
   86SOPE   C26 8028   5.826   0.606   2.255 -0.2399  0.5297  0.5990
   86SOPE   H6R 8029   5.727   0.655   2.246 -0.4209 -0.0042 -0.3407
   86SOPE   H6S 8030   5.885   0.652   2.173 -1.3708 -1.1299 -1.1952
   86SOPE   C27 8031   5.801   0.458   2.237 -0.4587 -0.4388 -0.1578
   86SOPE   H7R 8032   5.751   0.448   2.138 -0.5348  3.2184 -0.5288
   86SOPE   H7S 8033   5.902   0.411   2.240 -0.6724 -0.8058  2.2904
   86SOPE   C28 8034   5.725   0.387   2.346 -0.2160  0.6948 -0.0910
   86SOPE   H8R 8035   5.716   0.281   2.314  0.3672  0.3019  1.0206
   86SOPE   H8S 8036   5.774   0.385   2.446  0.2734  1.1032 -0.3200
   86SOPE   C29 8037   5.588   0.446   2.352  0.1872  0.3351 -0.5106
   86SOPE   H91 8038   5.550   0.495   2.261  0.1663  1.0576 -0.1083
   86SOPE  C210 8039   5.507   0.447   2.455  0.0643  0.9051 -0.3601
   86SOPE  H101 8040   5.405   0.486   2.444  0.0800  1.5063  1.4318
   86SOPE  C211 8041   5.530   0.396   2.585 -0.3102  0.1091 -0.4368
   86SOPE  H11R 8042   5.628   0.345   2.589  0.0809  0.9893  2.0849
   86SOPE  H11S 8043   5.451   0.320   2.606 -0.8597  1.0874  1.1186
   86SOPE  C212 8044   5.524   0.488   2.710 -0.7612  0.0180  0.0924
   86SOPE  H12R 8045   5.524   0.412   2.792 -0.2192 -0.2809 -0.1852
   86SOPE  H12S 8046   5.442   0.562   2.702  1.0139  1.9726 -0.3735
   86SOPE  C213 8047   5.647   0.575   2.737  0.5326  0.0029 -0.5440
   86SOPE  H13R 8048   5.657   0.654   2.660 -0.5802 -0.1637 -0.8688
   86SOPE  H13S 8049   5.731   0.507   2.712  1.0179 -0.1888  1.5106
   86SOPE  C214 8050   5.651   0.626   2.882 -0.6453 -0.6090  0.1560
   86SOPE  H14R 8051   5.650   0.543   2.956 -1.2578  0.2277  1.1001
   86SOPE  H14S 8052   5.550   0.673   2.889  0.1466  1.1968 -0.3653
   86SOPE  C215 8053   5.767   0.728   2.895 -0.1179  0.5098  0.2385
   86SOPE  H15R 8054   5.785   0.797   2.809  0.3928 -1.7562 -1.4969
   86SOPE  H15S 8055   5.861   0.671   2.907 -0.0900 -0.3280 -3.1790
   86SOPE  C216 8056   5.752   0.817   3.019 -0.3526  0.3778  0.7081
   86SOPE  H16R 8057   5.720   0.757   3.108 -0.7401  2.9816  2.3623
   86SOPE  H16S 8058   5.671   0.891   3.001 -0.1505  0.6683  0.9858
   86SOPE  C217 8059   5.872   0.903   3.061  0.3034 -0.2822 -0.0915
   86SOPE  H17R 8060   5.947   0.843   3.117 -0.4429 -1.1051  0.0314
   86SOPE  H17S 8061   5.819   0.969   3.133 -1.3794  0.0862 -1.6382
   86SOPE  C218 8062   5.946   0.975   2.950 -0.1871 -0.4125 -0.3942
   86SOPE  H18R 8063   5.871   1.018   2.880 -0.5520 -2.0559 -1.0373
   86SOPE  H18S 8064   6.014   0.908   2.894 -0.6414 -0.0071 -1.4335
   86SOPE  H18T 8065   6.008   1.060   2.987  0.8881 -0.3023 -2.3535
   86SOPE   C33 8066   5.302   1.395   2.757 -0.0874 -0.6259 -0.5315
   86SOPE   H3X 8067   5.258   1.433   2.662  0.1287  0.3585 -0.2385
   86SOPE   H3Y 8068   5.334   1.487   2.809 -1.9187 -1.1286  1.5359
   86SOPE   C34 8069   5.197   1.306   2.833  0.1097 -0.3968  0.5500
   86SOPE   H4X 8070   5.174   1.219   2.767 -2.0962 -0.5674  1.5129
   86SOPE   H4Y 8071   5.109   1.373   2.844  0.8778  0.9899 -1.4482
   86SOPE   C35 8072   5.239   1.266   2.975 -0.2858 -0.2026  0.5375
   86SOPE   H5X 8073   5.337   1.214   2.981 -0.0838  0.0098 -0.7800
   86SOPE   H5Y 8074   5.166   1.202   3.030 -0.0754  0.5353  1.6910
   86SOPE   C36 8075   5.272   1.397   3.058  0.0227 -0.0655 -0.4103
   86SOPE   H6X 8076   5.182   1.462   3.056 -0.6272 -0.9783 -2.7770
   86SOPE   H6Y 8077   5.359   1.456   3.021  0.5723 -0.2988  0.4803
   86SOPE   C37 8078   5.317   1.356   3.204 -0.5865 -0.4536  0.2663
   86SOPE   H7X 8079   5.413   1.303   3.187  0.5265  1.1787  1.3694
   86SOPE   H7Y 8080   5.242   1.290   3.253  1.1114 -1.4766  1.5435
   86SOPE   C38 8081   5.343   1.474   3.304  0.2474  0.3293  0.4095
   86SOPE   H8X 8082   5.278   1.562   3.285  2.4319  2.1750  1.2754
   86SOPE   H8Y 8083   5.447   1.510   3.287 -0.0362  0.6334 -0.7855
   86SOPE   C39 8084   5.345   1.429   3.448  0.4284 -0.1069 -0.2373
   86SOPE   H9X 8085   5.390   1.328   3.458  3.2451  1.2660  1.1957
   86SOPE   H9Y 8086   5.242   1.421   3.490  0.2151  0.8993 -0.5554
   86SOPE  C310 8087   5.429   1.524   3.541  0.0707 -0.0603  1.0676
   86SOPE  H10X 8088   5.404   1.631   3.520  0.6453  0.1561  1.4598
   86SOPE  H10Y 8089   5.534   1.517   3.507  0.2818  3.2836  0.7992
   86SOPE  C311 8090   5.424   1.473   3.683  0.1676 -1.0333 -0.5756
   86SOPE  H11X 8091   5.323   1.466   3.731 -0.4679 -1.8997 -2.0181
   86SOPE  H11Y 8092   5.486   1.547   3.738  0.2822 -1.3963 -0.2126
   86SOPE  C312 8093   5.491   1.339   3.702 -0.5204 -0.0319  0.1481
   86SOPE  H12X 8094   5.595   1.329   3.663 -1.2985  1.9763 -2.5647
   86SOPE  H12Y 8095   5.420   1.268   3.654  0.9542 -0.6589 -1.1535
   86SOPE  C313 8096   5.517   1.296   3.852  0.4565 -0.0771  0.0541
   86SOPE  H13X 8097   5.419   1.269   3.897  0.2311 -0.6859 -0.7930
   86SOPE  H13Y 8098   5.544   1.382   3.917 -1.1079 -0.2424  0.9600
   86SOPE  C314 8099   5.633   1.200   3.873 -0.0145  0.1060 -0.4942
   86SOPE  H14X 8100   5.724   1.251   3.835  1.2419  0.6323  3.0532
   86SOPE  H14Y 8101   5.625   1.103   3.819 -1.9186  0.5428 -1.0285
   86SOPE  C315 8102   5.644   1.180   4.026 -0.1095 -0.3362  0.4506
   86SOPE  H15X 8103   5.575   1.101   4.062 -0.4178  0.4456  1.6372
   86SOPE  H15Y 8104   5.600   1.264   4.085  0.9185 -1.6308  3.1468
   86SOPE  C316 8105   5.783   1.135   4.080  0.3718  0.2590 -0.2175
   86SOPE  H16X 8106   5.859   1.208   4.044 -0.6484  0.6277 -1.6561
   86SOPE  H16Y 8107   5.807   1.035   4.038 -0.1276 -0.1895  0.5486
   86SOPE  C317 8108   5.800   1.131   4.229  0.7717  0.7265 -0.1262
   86SOPE  H17X 8109   5.884   1.064   4.259  0.2365  0.6239  1.1688
   86SOPE  H17Y 8110   5.708   1.091   4.275 -0.4219  2.8002 -0.6416
   86SOPE  C318 8111   5.837   1.269   4.283 -0.0234  0.6853  0.9750
   86SOPE  H18X 8112   5.919   1.311   4.221 -0.8661 -0.1739 -0.7369
   86SOPE  H18Y 8113   5.876   1.250   4.386 -1.2039  1.8392  1.6553
   86SOPE  H18Z 8114   5.751   1.338   4.270  0.5137  1.0953 -0.4284
   87SOPE     N 8115   6.282   0.665   1.929  0.1920 -0.1256 -0.0274
   87SOPE   HN1 8116   6.304   0.587   1.864 -0.2148  0.0696 -0.3928
   87SOPE   HN2 8117   6.347   0.738   1.894  1.0519 -0.0938  1.5823
   87SOPE   HN3 8118   6.306   0.624   2.022 -4.4765  0.8205  1.7053
   87SOPE   C12 8119   6.138   0.706   1.916 -0.7320  0.7674  0.1875
   87SOPE  H12A 8120   6.076   0.619   1.948  0.7388  0.0269  1.0571
   87SOPE  H12B 8121   6.122   0.726   1.808  1.2806 -0.5242 -0.3837
   87SOPE   C11 8122   6.090   0.820   2.005 -0.2633 -0.3507  0.6417
   87SOPE  H11A 8123   6.069   0.805   2.113 -1.6600 -1.9221  0.1731
   87SOPE  H11B 8124   5.982   0.838   1.983 -0.2967  1.4611  2.1775
   87SOPE     P 8125   6.276   0.997   2.069 -0.2375  0.0235 -0.3687
   87SOPE   O13 8126   6.196   1.081   2.161  0.0187 -0.4513 -0.7140
   87SOPE   O14 8127   6.382   1.061   1.991  0.3671 -0.2668 -0.6217
   87SOPE   O12 8128   6.164   0.941   1.963  0.1767  0.0049  0.3617
   87SOPE   O11 8129   6.338   0.872   2.132 -0.4997 -0.4391  0.6442
   87SOPE    C1 8130   6.441   0.878   2.238 -0.4691 -0.3297  0.3284
   87SOPE    HA 8131   6.404   0.909   2.339  2.2408  1.9787  0.6859
   87SOPE    HB 8132   6.517   0.954   2.210 -1.4049  1.4265  2.3294
   87SOPE    C2 8133   6.510   0.746   2.256  0.3117  0.7523 -0.4491
   87SOPE    HS 8134   6.523   0.694   2.158 -0.5264 -0.5904  0.1486
   87SOPE   O21 8135   6.441   0.658   2.349  0.0822 -0.1212 -0.2162
   87SOPE   C21 8136   6.330   0.599   2.309  0.0155  0.7042 -0.9201
   87SOPE   O22 8137   6.291   0.594   2.196  0.0178  0.0004  0.8897
   87SOPE   C22 8138   6.259   0.526   2.424 -0.7998 -0.0583 -0.6825
   87SOPE   H2R 8139   6.274   0.418   2.407 -0.0619 -0.2100  0.8499
   87SOPE   H2S 8140   6.150   0.541   2.412 -0.8235  0.7068  0.3961
   87SOPE    C3 8141   6.645   0.769   2.324 -0.3050  0.1304 -0.1619
   87SOPE    HX 8142   6.701   0.834   2.254 -2.1449  0.7084 -1.1460
   87SOPE    HY 8143   6.684   0.668   2.347  0.3420  0.3454 -0.3222
   87SOPE   O31 8144   6.634   0.846   2.449  0.3711 -0.0535 -0.1377
   87SOPE   C31 8145   6.756   0.855   2.511 -0.1940  0.1357 -0.4642
   87SOPE   O32 8146   6.862   0.800   2.474  0.4158  0.3174  0.6754
   87SOPE   C32 8147   6.734   0.941   2.639 -0.2234 -0.4471 -0.5368
   87SOPE   H2X 8148   6.675   1.026   2.598 -1.8936 -0.5554  1.5369
   87SOPE   H2Y 8149   6.836   0.974   2.669 -1.7753  2.5982  1.7381
   87SOPE   C23 8150   6.298   0.580   2.566 -0.4375  0.2074  0.7146
   87SOPE   H3R 8151   6.276   0.689   2.571  1.0106  0.5945 -1.1290
   87SOPE   H3S 8152   6.407   0.576   2.586 -0.2220 -0.0268 -0.4680
   87SOPE   C24 8153   6.226   0.520   2.686 -0.0396 -0.0816  0.0084
   87SOPE   H4R 8154   6.116   0.532   2.678  0.1006  4.7916  2.9653
   87SOPE   H4S 8155   6.252   0.413   2.696 -3.9744 -0.8848  2.2160
   87SOPE   C25 8156   6.263   0.584   2.820  0.1648 -0.0251 -0.1130
   87SOPE   H5R 8157   6.372   0.577   2.836 -0.0253 -4.9530 -0.0823
   87SOPE   H5S 8158   6.228   0.689   2.814  0.4674  0.2582  2.5997
   87SOPE   C26 8159   6.195   0.528   2.945 -0.0934 -0.0190  0.3739
   87SOPE   H6R 8160   6.085   0.534   2.928 -0.2501 -1.2355  0.8548
   87SOPE   H6S 8161   6.218   0.420   2.960 -1.3694 -0.3942 -0.2559
   87SOPE   C27 8162   6.222   0.608   3.074 -0.1523  0.0124  0.3547
   87SOPE   H7R 8163   6.324   0.584   3.111  0.4753 -0.1319 -1.4065
   87SOPE   H7S 8164   6.217   0.717   3.053  0.1141  0.3145  1.8369
   87SOPE   C28 8165   6.115   0.578   3.176 -0.3601  0.2199 -0.3000
   87SOPE   H8R 8166   6.101   0.664   3.245  0.5315  1.3003 -1.4505
   87SOPE   H8S 8167   6.017   0.596   3.126 -0.5240  1.9481  0.5973
   87SOPE   C29 8168   6.127   0.438   3.229 -0.0505 -0.0924  0.2639
   87SOPE   H91 8169   6.163   0.368   3.151  0.5270 -0.1055  0.5399
   87SOPE  C210 8170   6.091   0.400   3.353  0.2755  0.0758  0.1089
   87SOPE  H101 8171   6.088   0.292   3.369  2.7458  0.0331  0.4620
   87SOPE  C211 8172   6.032   0.487   3.470  0.1420  0.2323  0.5516
   87SOPE  H11R 8173   5.928   0.459   3.497 -1.2991  3.2067 -1.6228
   87SOPE  H11S 8174   6.024   0.595   3.445  1.5733  0.4517  0.9873
   87SOPE  C212 8175   6.116   0.460   3.596  0.0047  0.4605 -0.1442
   87SOPE  H12R 8176   6.092   0.538   3.672  3.1144 -0.9045  2.3603
   87SOPE  H12S 8177   6.223   0.466   3.566  0.5336  0.7755  1.7296
   87SOPE  C213 8178   6.116   0.325   3.664 -0.5178  0.2549  0.1291
   87SOPE  H13R 8179   6.144   0.244   3.592 -0.1900  0.3891  0.1017
   87SOPE  H13S 8180   6.016   0.301   3.707  0.2855 -0.0453  1.8825
   87SOPE  C214 8181   6.211   0.321   3.780 -0.2298  0.5405 -0.2287
   87SOPE  H14R 8182   6.315   0.331   3.745  0.2636  3.0032  1.7848
   87SOPE  H14S 8183   6.214   0.219   3.825 -2.3442  0.1865 -0.8461
   87SOPE  C215 8184   6.188   0.428   3.882  0.7515 -0.0733  0.4712
   87SOPE  H15R 8185   6.080   0.453   3.889  1.0674  0.8833  2.4840
   87SOPE  H15S 8186   6.256   0.507   3.843  2.2520 -1.8252 -0.5427
   87SOPE  C216 8187   6.254   0.390   4.014 -0.5580 -0.1275 -0.5419
   87SOPE  H16R 8188   6.211   0.290   4.038  0.1459 -0.5587 -1.0686
   87SOPE  H16S 8189   6.232   0.464   4.094  0.4393 -0.6902  0.2538
   87SOPE  C217 8190   6.405   0.370   4.017 -0.0480 -0.2805  0.5592
   87SOPE  H17R 8191   6.451   0.469   3.996  1.0752 -0.5175  1.7826
   87SOPE  H17S 8192   6.426   0.288   3.946  0.1625 -0.6583  1.0541
   87SOPE  C218 8193   6.457   0.305   4.142  0.1244  0.3210  0.2949
   87SOPE  H18R 8194   6.563   0.272   4.144  0.6853  2.0246 -0.3413
   87SOPE  H18S 8195   6.391   0.218   4.162 -0.3669  0.7533  0.5487
   87SOPE  H18T 8196   6.436   0.376   4.224 -1.4539  1.4911 -1.0944
   87SOPE   C33 8197   6.635   0.881   2.745 -0.7371  0.1471 -0.6654
   87SOPE   H3X 8198   6.538   0.851   2.698  1.1953 -1.7757 -3.5837
   87SOPE   H3Y 8199   6.622   0.957   2.825  1.2165  0.6766 -0.8274
   87SOPE   C34 8200   6.694   0.754   2.818 -0.3693 -0.3337  0.3031
   87SOPE   H4X 8201   6.716   0.679   2.739  1.4277  0.2374  0.2595
   87SOPE   H4Y 8202   6.613   0.720   2.886  0.0742 -0.8880  0.5500
   87SOPE   C35 8203   6.805   0.778   2.912 -0.1668 -0.1198  0.0392
   87SOPE   H5X 8204   6.781   0.845   2.997  1.4712 -1.6160  1.7093
   87SOPE   H5Y 8205   6.885   0.825   2.850 -0.6755  0.8970  0.1406
   87SOPE   C36 8206   6.865   0.643   2.956 -0.4628 -0.5716  0.5545
   87SOPE   H6X 8207   6.967   0.660   2.997  0.9598  0.5456 -3.2518
   87SOPE   H6Y 8208   6.891   0.584   2.865  0.0492 -1.9402  1.5612
   87SOPE   C37 8209   6.786   0.567   3.058  0.3692  0.6143 -0.4808
   87SOPE   H7X 8210   6.846   0.483   3.100  2.9735  2.5332 -0.2515
   87SOPE   H7Y 8211   6.690   0.526   3.019  2.0735 -3.9752 -0.1215
   87SOPE   C38 8212   6.738   0.649   3.185  0.1270 -0.7240  0.0921
   87SOPE   H8X 8213   6.675   0.733   3.151  1.8846 -0.1620 -1.8584
   87SOPE   H8Y 8214   6.827   0.699   3.230 -0.7278 -0.0527  1.0701
   87SOPE   C39 8215   6.675   0.563   3.298  0.1623  0.8215 -0.3328
   87SOPE   H9X 8216   6.752   0.499   3.347 -1.0392  0.0135  0.5310
   87SOPE   H9Y 8217   6.614   0.495   3.234 -0.6233  1.1674  0.0469
   87SOPE  C310 8218   6.592   0.650   3.392 -0.0309  0.3237  0.5157
   87SOPE  H10X 8219   6.509   0.692   3.331 -1.4786 -2.2702  0.5957
   87SOPE  H10Y 8220   6.656   0.732   3.431  1.1308 -0.1571 -0.3572
   87SOPE  C311 8221   6.531   0.567   3.504 -0.0632  1.0210 -0.6644
   87SOPE  H11X 8222   6.608   0.493   3.536 -1.1906  0.3336  0.4987
   87SOPE  H11Y 8223   6.440   0.513   3.473  0.3460 -0.3656  0.5258
   87SOPE  C312 8224   6.506   0.662   3.622  0.1887  0.6367  0.1134
   87SOPE  H12X 8225   6.599   0.717   3.647  0.9439 -0.5187 -0.1290
   87SOPE  H12Y 8226   6.484   0.594   3.707 -2.5364  0.1315 -0.9377
   87SOPE  C313 8227   6.387   0.751   3.610  0.4318  0.0197  0.5519
   87SOPE  H13X 8228   6.299   0.684   3.621  2.2735 -2.3873  0.8202
   87SOPE  H13Y 8229   6.384   0.795   3.508  1.3257 -1.8370 -0.2993
   87SOPE  C314 8230   6.373   0.862   3.725 -0.2617  0.0877 -0.0244
   87SOPE  H14X 8231   6.271   0.903   3.713 -0.9105 -1.6772 -0.6446
   87SOPE  H14Y 8232   6.446   0.945   3.715  0.7544 -0.5583  1.7177
   87SOPE  C315 8233   6.404   0.812   3.871  0.7791  0.0462  0.3859
   87SOPE  H15X 8234   6.502   0.761   3.881  0.3240 -1.1319 -1.0279
   87SOPE  H15Y 8235   6.327   0.745   3.916  1.0447 -0.1971  0.4730
   87SOPE  C316 8236   6.407   0.939   3.965 -0.6385  0.6734 -0.3378
   87SOPE  H16X 8237   6.494   1.007   3.951 -0.1848  0.4983  1.5586
   87SOPE  H16Y 8238   6.403   0.900   4.068 -1.0802  0.3172 -0.4891
   87SOPE  C317 8239   6.281   1.022   3.976 -0.3956 -0.0939  0.5293
   87SOPE  H17X 8240   6.199   0.960   4.019  0.6270 -1.3426  0.6927
   87SOPE  H17Y 8241   6.248   1.061   3.877  0.6683 -1.5207 -0.4066
   87SOPE  C318 8242   6.297   1.143   4.072 -0.2584  0.4989  0.5135
   87SOPE  H18X 8243   6.209   1.210   4.066 -0.4781  0.2110  0.5223
   87SOPE  H18Y 8244   6.376   1.212   4.034 -0.3581 -0.2961 -1.1847
   87SOPE  H18Z 8245   6.322   1.101   4.172 -0.5692  0.7934  0.7190
   88SOPE     N 8246   0.378   0.898   2.099  0.4054  0.2471 -0.4754
   88SOPE   HN1 8247   0.351   0.803   2.066 -1.8471  0.4324  0.7507
   88SOPE   HN2 8248   0.412   0.954   2.019  3.6129 -0.8379  0.0461
   88SOPE   HN3 8249   0.462   0.879   2.159  0.4512 -0.1490 -0.6667
   88SOPE   C12 8250   0.270   0.974   2.172  0.6957  0.3438 -0.6018
   88SOPE  H12A 8251   0.244   0.921   2.267 -1.4831  0.0153 -1.3521
   88SOPE  H12B 8252   0.184   0.990   2.104 -0.9130  3.4725  2.0398
   88SOPE   C11 8253   0.322   1.116   2.211  0.0225 -0.2000  0.1946
   88SOPE  H11A 8254   0.415   1.100   2.268  1.9153 -2.3967 -3.3468
   88SOPE  H11B 8255   0.248   1.167   2.277 -0.3459  0.1613 -0.4916
   88SOPE     P 8256   0.261   1.316   2.046 -0.1745 -0.3344  0.1334
   88SOPE   O13 8257   0.124   1.271   2.023 -0.4190  0.3427 -0.4882
   88SOPE   O14 8258   0.332   1.385   1.932  0.1068 -0.0408 -0.3360
   88SOPE   O12 8259   0.353   1.201   2.096  0.0641  0.3253 -0.0264
   88SOPE   O11 8260   0.261   1.411   2.170  0.1105  0.1604 -0.3134
   88SOPE    C1 8261   0.384   1.458   2.230  0.3034 -0.2172 -0.4287
   88SOPE    HA 8262   0.404   1.562   2.198  3.0902 -0.3127  0.8886
   88SOPE    HB 8263   0.474   1.397   2.209  0.5153  0.6765 -2.1718
   88SOPE    C2 8264   0.388   1.471   2.394  0.5011  0.1975  0.2362
   88SOPE    HS 8265   0.411   1.371   2.437 -1.0168 -0.1964  0.1630
   88SOPE   O21 8266   0.281   1.544   2.450  0.3086 -0.7765 -0.3214
   88SOPE   C21 8267   0.231   1.480   2.560  0.3332  0.3652  0.1158
   88SOPE   O22 8268   0.270   1.381   2.613 -0.2635 -0.0034 -0.5381
   88SOPE   C22 8269   0.128   1.583   2.624 -1.0350  0.4063  0.1275
   88SOPE   H2R 8270   0.057   1.616   2.546  1.5972  1.3394 -1.9021
   88SOPE   H2S 8271   0.193   1.667   2.655 -0.0568  0.6699 -2.5547
   88SOPE    C3 8272   0.512   1.564   2.420  0.4435  0.5688 -0.6222
   88SOPE    HX 8273   0.479   1.661   2.378 -1.9673  0.0187 -0.1148
   88SOPE    HY 8274   0.600   1.527   2.364  0.8079  3.3168 -1.9621
   88SOPE   O31 8275   0.534   1.578   2.560  0.3384  0.1906  0.1104
   88SOPE   C31 8276   0.588   1.480   2.629 -0.3610 -0.3107 -0.3337
   88SOPE   O32 8277   0.632   1.376   2.578 -0.9819  0.2220  0.0408
   88SOPE   C32 8278   0.595   1.524   2.775 -0.1417 -0.1623 -0.3201
   88SOPE   H2X 8279   0.662   1.612   2.778 -3.2118  2.2864 -1.0204
   88SOPE   H2Y 8280   0.653   1.445   2.828  0.7569  0.4751 -0.3367
   88SOPE   C23 8281   0.028   1.521   2.726  0.0762  0.2463  0.3074
   88SOPE   H3R 8282   0.077   1.503   2.824 -0.7379  0.2860  0.7246
   88SOPE   H3S 8283  -0.014   1.427   2.684 -2.2721  0.9982  0.9062
   88SOPE   C24 8284  -0.085   1.611   2.761 -0.7674  0.3512  0.8412
   88SOPE   H4R 8285  -0.045   1.702   2.810 -1.2029 -0.8448  3.5031
   88SOPE   H4S 8286  -0.138   1.626   2.664  1.7872 -3.5612 -1.3022
   88SOPE   C25 8287  -0.174   1.551   2.863  0.0098 -0.3399 -0.2482
   88SOPE   H5R 8288  -0.268   1.610   2.854  0.7444  0.8575 -0.3138
   88SOPE   H5S 8289  -0.185   1.443   2.841  2.3827 -1.1230  2.0554
   88SOPE   C26 8290  -0.112   1.566   2.999 -0.4070  0.1856 -0.1343
   88SOPE   H6R 8291  -0.014   1.513   3.004  0.1493  1.1937 -0.1596
   88SOPE   H6S 8292  -0.103   1.674   3.022 -0.0098  0.6318 -2.2560
   88SOPE   C27 8293  -0.198   1.506   3.116 -0.0993  0.2719 -0.3341
   88SOPE   H7R 8294  -0.307   1.528   3.105 -0.3567 -0.2931  0.9598
   88SOPE   H7S 8295  -0.186   1.397   3.096  0.6529  0.1055  0.9851
   88SOPE   C28 8296  -0.162   1.559   3.256  0.1869 -0.1211 -0.0070
   88SOPE   H8R 8297  -0.182   1.668   3.247  3.4835  0.6347  1.2166
   88SOPE   H8S 8298  -0.245   1.525   3.322 -1.0786  0.3636 -1.3225
   88SOPE   C29 8299  -0.024   1.554   3.302  0.4871  0.0803  0.3497
   88SOPE   H91 8300   0.051   1.580   3.226  1.0004 -0.4232  0.6871
   88SOPE  C210 8301   0.025   1.508   3.420 -0.9290  1.3109 -0.6397
   88SOPE  H101 8302   0.135   1.509   3.431 -1.0021  0.9385  0.1220
   88SOPE  C211 8303  -0.048   1.444   3.533 -0.1021  0.1841 -0.1816
   88SOPE  H11R 8304  -0.043   1.333   3.529  1.0537  0.2536 -0.8303
   88SOPE  H11S 8305  -0.153   1.480   3.527  0.2978  1.3783 -0.2704
   88SOPE  C212 8306   0.007   1.505   3.668  0.0963  0.2414 -0.1372
   88SOPE  H12R 8307  -0.002   1.616   3.669 -0.6840  0.1847  1.0510
   88SOPE  H12S 8308   0.113   1.477   3.681 -0.2719 -1.2162 -0.2133
   88SOPE  C213 8309  -0.068   1.449   3.790 -1.1793  0.2733  0.1255
   88SOPE  H13R 8310  -0.016   1.352   3.803 -1.7465  0.1123  1.2868
   88SOPE  H13S 8311  -0.178   1.450   3.775 -1.0815 -0.0406 -0.6065
   88SOPE  C214 8312  -0.039   1.535   3.915  0.8412 -0.2368 -0.0461
   88SOPE  H14R 8313  -0.108   1.504   3.996  1.4797 -0.4713  0.4185
   88SOPE  H14S 8314  -0.068   1.639   3.892  1.1400  0.5004  2.7153
   88SOPE  C215 8315   0.110   1.554   3.959  0.0473  0.1853  0.6585
   88SOPE  H15R 8316   0.187   1.576   3.882  0.4804 -0.5035  0.8868
   88SOPE  H15S 8317   0.149   1.457   3.997  0.0199  0.1277  0.5412
   88SOPE  C216 8318   0.125   1.670   4.063 -0.1731 -0.2792  0.0860
   88SOPE  H16R 8319   0.095   1.773   4.034  0.3603 -1.2855 -4.3155
   88SOPE  H16S 8320   0.235   1.672   4.079 -0.1069 -0.0878 -0.3954
   88SOPE  C217 8321   0.042   1.621   4.181 -0.1921 -0.4517 -0.1630
   88SOPE  H17R 8322   0.059   1.514   4.204 -0.9675 -1.1947 -2.8268
   88SOPE  H17S 8323  -0.068   1.629   4.177 -0.2495  0.0325  1.7142
   88SOPE  C218 8324   0.091   1.705   4.295 -0.9825  0.3342  0.7556
   88SOPE  H18R 8325   0.056   1.806   4.265 -2.8415  0.1800  2.2738
   88SOPE  H18S 8326   0.198   1.701   4.325 -0.8199 -1.7206  0.0132
   88SOPE  H18T 8327   0.034   1.690   4.390 -0.3503  2.8171  1.5524
   88SOPE   C33 8328   0.459   1.560   2.832  0.1523  0.3749  0.5671
   88SOPE   H3X 8329   0.391   1.473   2.846 -1.2053  0.9976 -1.9048
   88SOPE   H3Y 8330   0.417   1.638   2.765  2.9714  2.6146  1.3480
   88SOPE   C34 8331   0.459   1.622   2.974 -0.1910 -0.4313  0.0859
   88SOPE   H4X 8332   0.518   1.713   2.995 -1.3344 -0.2927  2.9190
   88SOPE   H4Y 8333   0.496   1.536   3.035 -1.7778 -1.3359 -0.1823
   88SOPE   C35 8334   0.319   1.653   3.022 -0.0608  0.9650 -0.1483
   88SOPE   H5X 8335   0.307   1.627   3.130 -2.0511 -0.1362 -0.6113
   88SOPE   H5Y 8336   0.242   1.590   2.973 -1.3094  0.1871  2.6660
   88SOPE   C36 8337   0.285   1.799   3.008  0.0231 -0.0883  0.0452
   88SOPE   H6X 8338   0.268   1.819   2.900  0.2415  0.7809  0.1684
   88SOPE   H6Y 8339   0.376   1.861   3.023 -0.8083  0.8509  1.3239
   88SOPE   C37 8340   0.174   1.853   3.105  0.4290 -1.1076  0.5463
   88SOPE   H7X 8341   0.090   1.781   3.096 -1.8684  1.7020 -1.1060
   88SOPE   H7Y 8342   0.142   1.957   3.087  0.8708 -0.2856  4.0743
   88SOPE   C38 8343   0.225   1.849   3.248 -0.1433 -0.2518  0.1724
   88SOPE   H8X 8344   0.310   1.919   3.266 -0.0079 -0.7188  1.4128
   88SOPE   H8Y 8345   0.272   1.753   3.279 -0.3502 -1.4194 -2.9322
   88SOPE   C39 8346   0.112   1.883   3.348  0.0245 -0.0918  0.0858
   88SOPE   H9X 8347   0.027   1.819   3.316  0.6309 -0.4725 -0.7538
   88SOPE   H9Y 8348   0.086   1.989   3.327 -1.1759 -0.0293  1.7053
   88SOPE  C310 8349   0.153   1.867   3.501  0.4625  1.3303  0.5783
   88SOPE  H10X 8350   0.250   1.917   3.520  0.9844  0.2155  0.8893
   88SOPE  H10Y 8351   0.160   1.757   3.519  0.2620  1.4580  1.4386
   88SOPE  C311 8352   0.050   1.933   3.589  1.1567  0.4511  0.5039
   88SOPE  H11X 8353  -0.053   1.906   3.556 -0.1580  0.6842  4.1634
   88SOPE  H11Y 8354   0.063   2.041   3.567  2.5843  0.5226  1.6430
   88SOPE  C312 8355   0.068   1.888   3.740  0.0149 -0.1781 -0.1936
   88SOPE  H12X 8356   0.175   1.912   3.757  0.2274  0.1545 -1.9730
   88SOPE  H12Y 8357   0.050   1.779   3.747  1.3153 -0.3368  0.9256
   88SOPE  C313 8358  -0.012   1.971   3.833  0.2896  0.2187 -0.1315
   88SOPE  H13X 8359  -0.046   1.905   3.916 -1.4884 -0.7499 -1.5920
   88SOPE  H13Y 8360  -0.104   1.996   3.776  0.3069 -1.9736 -1.1789
   88SOPE  C314 8361   0.063   2.088   3.889 -0.4535 -0.4766  0.7324
   88SOPE  H14X 8362   0.061   2.167   3.810 -1.1266 -1.7493 -0.5555
   88SOPE  H14Y 8363   0.170   2.073   3.913 -0.5055  0.8572  1.8398
   88SOPE  C315 8364   0.003   2.144   4.017 -0.9062 -0.3083  0.2293
   88SOPE  H15X 8365   0.011   2.062   4.091  0.0960  0.3471  0.8686
   88SOPE  H15Y 8366  -0.106   2.156   3.997 -1.4909 -1.0610  2.7243
   88SOPE  C316 8367   0.038   2.282   4.070  0.1106 -0.3562 -0.3461
   88SOPE  H16X 8368  -0.041   2.310   4.143  1.1659 -1.5996  1.3055
   88SOPE  H16Y 8369   0.043   2.350   3.982 -0.1002 -0.8227 -0.7247
   88SOPE  C317 8370   0.179   2.281   4.139  0.7705  0.1816  0.6489
   88SOPE  H17X 8371   0.256   2.252   4.064  0.9943  1.4853  0.3593
   88SOPE  H17Y 8372   0.177   2.200   4.214 -0.5326  0.8304  1.3370
   88SOPE  C318 8373   0.219   2.419   4.178  0.3116  0.5719 -0.4045
   88SOPE  H18X 8374   0.141   2.474   4.235  2.0448 -0.6120  3.2929
   88SOPE  H18Y 8375   0.242   2.480   4.089 -0.0044 -1.4790 -1.9270
   88SOPE  H18Z 8376   0.309   2.410   4.243  0.2431 -3.2916 -0.7289
   89SAPC     N 8377   4.241   4.185   6.328  0.3274  0.3302  0.0392
   89SAPC   C12 8378   4.215   4.048   6.369 -0.2690 -0.9526  0.2714
   89SAPC  H12A 8379   4.135   4.050   6.441 -0.3383  5.4599  0.2519
   89SAPC  H12B 8380   4.304   3.997   6.404 -0.9763 -2.5111 -0.1609
   89SAPC   C13 8381   4.274   4.269   6.448  0.2205  0.2029  0.1710
   89SAPC  H13A 8382   4.216   4.238   6.534 -0.7094 -0.3981 -0.6730
   89SAPC  H13B 8383   4.380   4.263   6.472 -0.1012 -1.1424  1.3495
   89SAPC  H13C 8384   4.258   4.374   6.430  0.5842 -0.1242 -2.2614
   89SAPC   C14 8385   4.355   4.204   6.225 -0.1196  0.7639  0.2984
   89SAPC  H14A 8386   4.349   4.299   6.173 -0.2345  1.0721  0.8683
   89SAPC  H14B 8387   4.453   4.189   6.267  0.8299  3.2630 -0.9002
   89SAPC  H14C 8388   4.341   4.130   6.148 -2.7526  2.9000 -1.3742
   89SAPC   C15 8389   4.118   4.242   6.263  0.3297  0.4927  0.4235
   89SAPC  H15A 8390   4.094   4.169   6.187 -1.1543  1.7193 -0.3158
   89SAPC  H15B 8391   4.030   4.249   6.324  0.0082 -0.6241  0.1108
   89SAPC  H15C 8392   4.140   4.336   6.214  1.5868  1.1702  2.2290
   89SAPC   C11 8393   4.182   3.949   6.247  0.6469 -0.0466  0.0189
   89SAPC  H11A 8394   4.096   3.989   6.189  2.0847  0.9328 -1.4763
   89SAPC  H11B 8395   4.150   3.856   6.298  1.9654 -0.1107  0.7530
   89SAPC     P 8396   4.282   3.810   6.055 -0.2039  0.3165  0.2042
   89SAPC   O13 8397   4.281   3.682   6.132 -0.1276  0.4575 -0.2439
   89SAPC   O14 8398   4.178   3.836   5.951 -0.3378 -0.0892 -0.1827
   89SAPC   O12 8399   4.292   3.933   6.155 -0.0966 -0.1031  0.4718
   89SAPC   O11 8400   4.423   3.811   5.984 -1.1799  0.7807 -0.3780
   89SAPC    C1 8401   4.433   3.865   5.854  0.3894 -0.0509 -0.4306
   89SAPC    HA 8402   4.343   3.845   5.792  0.8063  1.5977 -1.6060
   89SAPC    HB 8403   4.443   3.974   5.875 -0.8140 -0.1617  0.7314
   89SAPC    C2 8404   4.566   3.817   5.787  1.4848  0.2110  0.1227
   89SAPC    HS 8405   4.654   3.847   5.848  2.3463  2.5342 -2.1959
   89SAPC   O21 8406   4.571   3.877   5.657 -0.1430 -0.3180 -0.0960
   89SAPC   C21 8407   4.600   4.007   5.642  0.0936  0.9135  0.0318
   89SAPC   O22 8408   4.628   4.082   5.728  0.1730  0.1451  0.0854
   89SAPC   C22 8409   4.599   4.045   5.487  0.6449 -0.2023  0.0221
   89SAPC   H2R 8410   4.702   4.066   5.450 -0.3191  0.7709 -2.2325
   89SAPC   H2S 8411   4.556   3.962   5.427  1.8786  0.1108 -1.3354
   89SAPC    C3 8412   4.569   3.656   5.770  0.9495 -0.1362 -0.0102
   89SAPC    HX 8413   4.469   3.621   5.735  1.6608  1.0023 -3.3658
   89SAPC    HY 8414   4.579   3.603   5.868  0.6650  1.4117  0.8704
   89SAPC   O31 8415   4.674   3.607   5.673 -0.1032 -0.3606  0.0252
   89SAPC   C31 8416   4.800   3.640   5.687 -0.2048 -0.1653 -0.0759
   89SAPC   O32 8417   4.856   3.697   5.780  0.5798 -0.1926 -0.1880
   89SAPC   C32 8418   4.873   3.583   5.578  0.0356  0.1598  0.2070
   89SAPC   H2X 8419   4.860   3.473   5.589  2.4668 -0.2059 -0.4136
   89SAPC   H2Y 8420   4.982   3.605   5.578  0.1515 -0.3716 -0.7490
   89SAPC   C23 8421   4.520   4.177   5.456 -0.2863 -0.5063 -1.4677
   89SAPC   H3R 8422   4.570   4.222   5.367 -1.9131  1.2247 -1.5203
   89SAPC   H3S 8423   4.541   4.250   5.537 -1.1273 -2.0285  0.1585
   89SAPC   C24 8424   4.380   4.151   5.422  0.1387 -0.3864 -0.5340
   89SAPC   H4R 8425   4.369   4.092   5.329 -2.2996  1.4051 -1.4306
   89SAPC   H4S 8426   4.337   4.252   5.403  0.4296 -0.4759 -1.6888
   89SAPC   C25 8427   4.299   4.107   5.537  0.1942 -1.0001  0.1849
   89SAPC   H5R 8428   4.298   4.175   5.623  1.4317 -2.9684  1.8052
   89SAPC   C26 8429   4.226   3.996   5.538  0.1361  0.0660 -0.3522
   89SAPC   H6R 8430   4.177   3.977   5.635 -1.6879  0.9782 -1.0628
   89SAPC   C27 8431   4.214   3.895   5.428  0.0764  0.2147  0.5609
   89SAPC   H7R 8432   4.313   3.847   5.412 -0.9266 -2.6717  2.4240
   89SAPC   H7S 8433   4.200   3.942   5.329  0.9676 -0.9969 -0.1484
   89SAPC   C28 8434   4.110   3.786   5.455  0.5120  0.1548  0.2382
   89SAPC   H8R 8435   4.055   3.782   5.551  0.8725 -1.6793  0.3904
   89SAPC   C29 8436   4.084   3.690   5.368  0.0639 -0.3539 -0.1636
   89SAPC   H9R 8437   4.022   3.608   5.406  0.1873 -1.0098 -1.3371
   89SAPC  C210 8438   4.142   3.668   5.235  0.1361  0.7081 -0.5417
   89SAPC  H10R 8439   4.172   3.765   5.189  0.5105  1.2430  0.8201
   89SAPC  H10S 8440   4.060   3.627   5.172  0.0677  0.4042 -0.2546
   89SAPC  C211 8441   4.264   3.575   5.231 -0.6822 -0.2379 -0.5495
   89SAPC  H11R 8442   4.334   3.598   5.312 -1.4293  0.4830 -0.0958
   89SAPC  C212 8443   4.292   3.480   5.143  0.0132  0.4602  0.0923
   89SAPC  H12R 8444   4.368   3.407   5.175 -0.7437 -0.2643  0.2804
   89SAPC  C213 8445   4.214   3.432   5.022 -0.2299 -0.1104 -0.4257
   89SAPC  H13R 8446   4.128   3.501   5.012  2.4921  3.2631 -1.3023
   89SAPC  H13S 8447   4.166   3.338   5.058 -0.9621  0.1388 -0.7331
   89SAPC  C214 8448   4.285   3.426   4.891 -0.9180  0.0176  0.0681
   89SAPC  H14R 8449   4.367   3.496   4.870 -2.8973  2.0568 -1.0990
   89SAPC  C215 8450   4.257   3.336   4.792  0.0306 -0.5922  0.6871
   89SAPC  H15R 8451   4.339   3.326   4.720  0.6469 -1.4847  1.4915
   89SAPC  C216 8452   4.158   3.227   4.798  0.0773  0.1317 -0.0565
   89SAPC  H16R 8453   4.074   3.246   4.867  2.0596  1.0633  2.1571
   89SAPC  H16S 8454   4.215   3.142   4.842  0.6026 -0.1824 -1.3245
   89SAPC  C217 8455   4.096   3.171   4.664  0.0780  0.2003 -0.2357
   89SAPC  H17R 8456   4.038   3.246   4.607 -0.3229 -1.5639 -2.2246
   89SAPC  H17S 8457   4.030   3.082   4.670 -0.2744  0.2484 -2.9298
   89SAPC  C218 8458   4.212   3.114   4.579  0.2793  0.0463 -0.3527
   89SAPC  H18R 8459   4.266   3.033   4.633 -3.1516 -2.5444 -0.6331
   89SAPC  H18S 8460   4.280   3.198   4.551  2.1876 -0.5502  2.2411
   89SAPC  C219 8461   4.170   3.067   4.441  0.4060  1.4943  1.0709
   89SAPC  H19R 8462   4.126   3.151   4.383 -1.1331 -0.1236 -0.1848
   89SAPC  H19S 8463   4.101   2.980   4.449  1.7278  0.1959 -1.1093
   89SAPC  C220 8464   4.304   3.022   4.360 -0.6288  0.1172 -0.1878
   89SAPC  H20R 8465   4.272   2.989   4.259 -1.1192  0.6995 -0.2262
   89SAPC  H20S 8466   4.354   2.940   4.417  1.2046  1.1144 -0.3405
   89SAPC  H20T 8467   4.382   3.100   4.346  1.8984 -2.3783 -0.4742
   89SAPC   C33 8468   4.822   3.622   5.439  0.0289  0.4148 -0.3405
   89SAPC   H3X 8469   4.861   3.725   5.431  2.9727 -0.7546 -1.8022
   89SAPC   H3Y 8470   4.711   3.627   5.435  0.0140  0.9237  0.5251
   89SAPC   C34 8471   4.874   3.534   5.324  0.4554 -0.4119  0.1670
   89SAPC   H4X 8472   4.859   3.425   5.343  0.7860 -0.5487 -0.3540
   89SAPC   H4Y 8473   4.983   3.553   5.314  0.6090 -1.6878 -0.7605
   89SAPC   C35 8474   4.805   3.571   5.197 -0.6406 -0.1178  0.6076
   89SAPC   H5X 8475   4.702   3.531   5.186 -0.2449 -1.7395  2.7448
   89SAPC   H5Y 8476   4.854   3.520   5.111 -0.3798  0.0842  0.6343
   89SAPC   C36 8477   4.813   3.723   5.171  0.5516 -0.5387  1.1694
   89SAPC   H6X 8478   4.916   3.764   5.176  1.0129 -1.5823  0.5245
   89SAPC   H6Y 8479   4.757   3.777   5.250  0.8950  0.1662  0.9325
   89SAPC   C37 8480   4.763   3.754   5.031  0.2622  0.0520  0.2695
   89SAPC   H7X 8481   4.785   3.667   4.964  0.2330  0.4312 -0.2394
   89SAPC   H7Y 8482   4.828   3.837   4.997 -0.0508  0.6557  1.1430
   89SAPC   C38 8483   4.612   3.785   5.028 -0.4522  0.0857 -0.0085
   89SAPC   H8X 8484   4.592   3.861   5.106 -0.2603  0.4587 -0.3188
   89SAPC   H8Y 8485   4.564   3.686   5.045  0.1156 -0.4025 -1.1469
   89SAPC   C39 8486   4.573   3.846   4.888  0.0975  0.2145  0.3383
   89SAPC   H9X 8487   4.587   3.767   4.811 -0.3896 -0.4034  0.8733
   89SAPC   H9Y 8488   4.651   3.923   4.870  0.8880 -0.3883  1.1362
   89SAPC  C310 8489   4.427   3.890   4.875  0.0192  0.7458  0.0318
   89SAPC  H10X 8490   4.408   3.948   4.968  0.2593  1.8007 -0.5689
   89SAPC  H10Y 8491   4.351   3.810   4.864 -0.2958  0.9881  0.4581
   89SAPC  C311 8492   4.418   3.978   4.746 -0.3505 -0.2001  0.3115
   89SAPC  H11X 8493   4.515   4.031   4.735 -1.0717  0.8701 -0.9543
   89SAPC  H11Y 8494   4.342   4.055   4.771 -0.4699 -0.5286  0.9605
   89SAPC  C312 8495   4.381   3.903   4.620  0.1951  0.0508  0.5224
   89SAPC  H12X 8496   4.270   3.898   4.613  0.0552  2.5192  0.5329
   89SAPC  H12Y 8497   4.411   3.796   4.634  2.2423  0.6652  0.9938
   89SAPC  C313 8498   4.460   3.966   4.500 -0.2587 -0.4394 -0.2751
   89SAPC  H13X 8499   4.437   4.073   4.484  1.4960  0.2520  1.5631
   89SAPC  H13Y 8500   4.438   3.915   4.404 -0.1470  0.8521 -0.9956
   89SAPC  C314 8501   4.608   3.950   4.516  0.1556  0.4736 -0.6519
   89SAPC  H14X 8502   4.617   3.849   4.562  0.2783  0.4040 -0.8305
   89SAPC  H14Y 8503   4.648   4.025   4.588  1.8168  0.3681 -1.4423
   89SAPC  C315 8504   4.677   3.959   4.372  0.2602  0.5248 -0.8471
   89SAPC  H15X 8505   4.630   3.880   4.310 -0.5671  0.0056  0.4214
   89SAPC  H15Y 8506   4.783   3.926   4.381  0.1106 -0.0040 -0.9736
   89SAPC  C316 8507   4.683   4.103   4.314 -0.4801  0.4037 -0.2619
   89SAPC  H16X 8508   4.762   4.113   4.237 -0.7195 -0.8148 -0.6728
   89SAPC  H16Y 8509   4.714   4.170   4.398  2.5217 -1.0026 -0.1644
   89SAPC  C317 8510   4.561   4.158   4.235  0.5594 -0.2732  0.6235
   89SAPC  H17X 8511   4.472   4.188   4.295  0.5787 -1.9557  1.5086
   89SAPC  H17Y 8512   4.535   4.076   4.164 -1.0785  0.1140  0.7567
   89SAPC  C318 8513   4.597   4.293   4.164  0.0992 -0.7312  0.1991
   89SAPC  H18X 8514   4.677   4.289   4.088  0.3718  0.4466  0.4218
   89SAPC  H18Y 8515   4.624   4.372   4.238 -2.1038 -0.2964  0.5885
   89SAPC  H18Z 8516   4.504   4.332   4.118  0.0998  3.1343  3.2300
   90SAPC     N 8517   0.911   1.412   6.341  0.0489 -0.5918  0.5162
   90SAPC   C12 8518   0.973   1.323   6.233 -0.1801 -1.2977 -0.0146
   90SAPC  H12A 8519   0.934   1.223   6.244 -0.2019 -1.1046  1.8265
   90SAPC  H12B 8520   1.081   1.327   6.246 -0.2794  0.9141  0.3105
   90SAPC   C13 8521   0.959   1.553   6.335  0.2350  0.5160  0.4080
   90SAPC  H13A 8522   0.893   1.612   6.396 -1.6956 -2.1215  0.9504
   90SAPC  H13B 8523   1.062   1.561   6.368  0.7254  3.5869 -1.5960
   90SAPC  H13C 8524   0.944   1.582   6.232 -0.1530 -1.0738  0.0026
   90SAPC   C14 8525   0.758   1.414   6.331  0.3415 -0.4752 -0.0893
   90SAPC  H14A 8526   0.725   1.456   6.237 -1.0274 -2.8181 -0.7048
   90SAPC  H14B 8527   0.719   1.313   6.337  1.4063 -0.8019  1.4299
   90SAPC  H14C 8528   0.715   1.475   6.409  0.4876 -0.7674  0.2179
   90SAPC   C15 8529   0.956   1.361   6.473  0.6332  0.6449 -0.4908
   90SAPC  H15A 8530   0.942   1.433   6.553  0.4028 -0.2536  0.2885
   90SAPC  H15B 8531   0.904   1.271   6.504  1.3542  0.5417  0.4721
   90SAPC  H15C 8532   1.062   1.343   6.489 -0.0862 -2.1445  1.5250
   90SAPC   C11 8533   0.951   1.371   6.091 -0.0509 -0.2166 -0.3978
   90SAPC  H11A 8534   0.841   1.381   6.078 -0.2924 -0.5877  1.2668
   90SAPC  H11B 8535   0.977   1.289   6.020  1.5172 -0.7536  0.7855
   90SAPC     P 8536   1.168   1.507   6.004 -0.1334  0.5193 -0.0816
   90SAPC   O13 8537   1.216   1.649   6.009  0.3448  0.2297 -0.5339
   90SAPC   O14 8538   1.257   1.399   6.045  0.0453 -0.3239  0.5681
   90SAPC   O12 8539   1.023   1.497   6.063  0.4840  0.9584  0.0823
   90SAPC   O11 8540   1.146   1.484   5.847 -0.5216 -0.1353  0.3499
   90SAPC    C1 8541   1.027   1.535   5.791  0.3371  0.0675  0.6964
   90SAPC    HA 8542   0.999   1.474   5.703 -0.2880 -0.5907  1.3434
   90SAPC    HB 8543   0.940   1.526   5.860  0.5689 -3.6139  0.6076
   90SAPC    C2 8544   1.038   1.688   5.748  0.0602 -0.5902  0.3081
   90SAPC    HS 8545   1.053   1.745   5.843 -0.6034  0.3257 -0.1323
   90SAPC   O21 8546   0.914   1.732   5.683 -0.2759  0.4497  0.1642
   90SAPC   C21 8547   0.905   1.860   5.642 -0.1550 -0.3399 -0.2536
   90SAPC   O22 8548   0.994   1.943   5.647 -0.5120 -0.5644  0.1580
   90SAPC   C22 8549   0.770   1.894   5.605  0.4172 -0.1570 -0.4740
   90SAPC   H2R 8550   0.711   1.898   5.699  1.5257  0.0334  0.2162
   90SAPC   H2S 8551   0.757   1.996   5.563  0.6586  0.1887  0.2815
   90SAPC    C3 8552   1.158   1.695   5.659 -1.4384 -0.1317  0.1893
   90SAPC    HX 8553   1.238   1.655   5.724 -2.0462 -2.7146 -0.6246
   90SAPC    HY 8554   1.179   1.801   5.633 -1.6902 -0.3448 -0.9408
   90SAPC   O31 8555   1.132   1.619   5.536 -0.0572  0.1616  0.3099
   90SAPC   C31 8556   1.242   1.561   5.487  0.1103 -0.0031 -0.2768
   90SAPC   O32 8557   1.351   1.581   5.532  0.0232 -0.8917  0.2166
   90SAPC   C32 8558   1.203   1.473   5.369  0.1057 -0.0264 -0.1306
   90SAPC   H2X 8559   1.273   1.387   5.378 -0.1428 -0.1597  0.5340
   90SAPC   H2Y 8560   1.209   1.540   5.280 -1.9459 -0.9086 -0.9679
   90SAPC   C23 8561   0.706   1.784   5.505 -0.1304  0.1217  0.7015
   90SAPC   H3R 8562   0.601   1.813   5.484  0.8481  2.5492 -0.9616
   90SAPC   H3S 8563   0.710   1.684   5.555  0.1778 -1.7682 -2.9649
   90SAPC   C24 8564   0.795   1.748   5.386 -0.1424 -0.2781  0.0582
   90SAPC   H4R 8565   0.757   1.655   5.339 -1.3562  0.5306 -0.6006
   90SAPC   H4S 8566   0.890   1.704   5.423 -0.5680 -1.5180 -0.2997
   90SAPC   C25 8567   0.814   1.863   5.290  0.2825  0.3689  0.3638
   90SAPC   H5R 8568   0.721   1.917   5.267 -1.5289 -1.7599  2.5292
   90SAPC   C26 8569   0.921   1.899   5.215  0.1127 -0.1197 -0.0444
   90SAPC   H6R 8570   0.914   1.992   5.156  1.5416  0.5483  0.8263
   90SAPC   C27 8571   1.056   1.833   5.210  0.4110  0.1079 -0.8307
   90SAPC   H7R 8572   1.058   1.761   5.125  0.2738 -1.8465  0.7671
   90SAPC   H7S 8573   1.080   1.784   5.307 -2.8339  0.0238  0.0013
   90SAPC   C28 8574   1.162   1.939   5.186 -0.1155  0.1021 -0.1787
   90SAPC   H8R 8575   1.149   2.042   5.222 -0.7166  0.3005 -0.9552
   90SAPC   C29 8576   1.266   1.908   5.110  0.0755 -1.1809 -0.1908
   90SAPC   H9R 8577   1.328   1.992   5.075 -1.2438 -0.3246 -0.4610
   90SAPC  C210 8578   1.291   1.773   5.044 -0.0116 -0.1981 -0.0931
   90SAPC  H10R 8579   1.199   1.736   4.994  0.1481 -1.4138  0.5046
   90SAPC  H10S 8580   1.308   1.688   5.113  0.9944 -1.1681 -1.5109
   90SAPC  C211 8581   1.405   1.780   4.944  0.2949  0.2528 -0.5539
   90SAPC  H11R 8582   1.470   1.865   4.969 -0.5176  0.3165  1.5411
   90SAPC  C212 8583   1.434   1.697   4.842  0.5204 -0.2838  0.1693
   90SAPC  H12R 8584   1.517   1.729   4.778  0.1549  0.4639  0.0683
   90SAPC  C213 8585   1.359   1.578   4.796  0.4870 -0.0765  0.2466
   90SAPC  H13R 8586   1.325   1.608   4.695  0.8319  0.1079  0.1851
   90SAPC  H13S 8587   1.258   1.578   4.842 -0.6229  1.9618 -2.1034
   90SAPC  C214 8588   1.430   1.445   4.794 -0.4758 -0.1699  0.0312
   90SAPC  H14R 8589   1.434   1.390   4.889  0.5712 -1.5118 -0.7659
   90SAPC  C215 8590   1.504   1.391   4.696  0.2556 -0.1688 -0.2724
   90SAPC  H15R 8591   1.535   1.288   4.714  1.2427 -0.3637 -2.8456
   90SAPC  C216 8592   1.535   1.448   4.560  0.6781 -0.5185  0.0617
   90SAPC  H16R 8593   1.645   1.458   4.553  0.4742 -0.3784 -3.5278
   90SAPC  H16S 8594   1.493   1.551   4.555  0.9258 -0.4358 -0.3027
   90SAPC  C217 8595   1.490   1.370   4.436 -0.5248 -0.2885 -0.0231
   90SAPC  H17R 8596   1.511   1.411   4.335  0.6005  0.3217  0.4464
   90SAPC  H17S 8597   1.379   1.362   4.430 -0.4503 -1.6949  0.2175
   90SAPC  C218 8598   1.556   1.226   4.425  0.0038 -0.3758  0.2463
   90SAPC  H18R 8599   1.555   1.188   4.530 -0.8834  2.4900  1.3259
   90SAPC  H18S 8600   1.653   1.230   4.371  0.0935 -1.2190  0.3280
   90SAPC  C219 8601   1.478   1.144   4.316 -0.0969 -0.4328  0.6563
   90SAPC  H19R 8602   1.477   1.211   4.227  0.7449  0.9806  1.6806
   90SAPC  H19S 8603   1.374   1.127   4.351 -0.4581 -0.9048 -0.6264
   90SAPC  C220 8604   1.524   1.004   4.274 -0.5468  0.6750  0.0166
   90SAPC  H20R 8605   1.611   1.007   4.206  0.2395 -3.2912  0.7554
   90SAPC  H20S 8606   1.445   0.941   4.228 -1.6541  1.2488  1.0974
   90SAPC  H20T 8607   1.544   0.951   4.370 -1.0722 -0.1741 -0.3390
   90SAPC   C33 8608   1.054   1.423   5.369 -0.3877 -0.5579  0.6561
   90SAPC   H3X 8609   0.997   1.499   5.311 -1.8555 -1.2374  1.1827
   90SAPC   H3Y 8610   1.022   1.421   5.475 -1.6505  2.9563  0.4054
   90SAPC   C34 8611   1.037   1.283   5.300 -0.3791  0.4058  0.1224
   90SAPC   H4X 8612   0.934   1.241   5.305 -1.4466  2.8297 -0.7260
   90SAPC   H4Y 8613   1.113   1.220   5.350 -0.1873 -0.0434 -0.7185
   90SAPC   C35 8614   1.074   1.279   5.152 -0.0670  0.1561  0.1873
   90SAPC   H5X 8615   1.069   1.175   5.114  0.3567 -0.4459  1.7448
   90SAPC   H5Y 8616   1.173   1.325   5.134 -0.5498  0.9018 -0.5912
   90SAPC   C36 8617   0.994   1.373   5.053  0.0864  0.5235  0.0068
   90SAPC   H6X 8618   1.021   1.479   5.073 -0.4124  0.9556 -1.5352
   90SAPC   H6Y 8619   0.889   1.368   5.088  1.5988  0.4577  5.0318
   90SAPC   C37 8620   1.024   1.336   4.910  0.0028 -0.4027  0.1560
   90SAPC   H7X 8621   1.000   1.228   4.893  1.5462 -0.8120  0.5225
   90SAPC   H7Y 8622   1.129   1.355   4.881  0.2083 -0.3770  0.9015
   90SAPC   C38 8623   0.938   1.413   4.802 -0.3399  0.7942  0.3422
   90SAPC   H8X 8624   0.979   1.514   4.821 -0.3019  1.0120 -0.9077
   90SAPC   H8Y 8625   0.832   1.389   4.829 -0.5805  2.2455  0.7152
   90SAPC   C39 8626   0.965   1.361   4.660  0.3383  0.3700  0.4770
   90SAPC   H9X 8627   0.873   1.317   4.614  0.9454 -1.1679  0.7037
   90SAPC   H9Y 8628   1.037   1.277   4.668  1.6824  1.2014 -2.2322
   90SAPC  C310 8629   1.026   1.465   4.573 -0.0200  1.0262  0.0366
   90SAPC  H10X 8630   1.118   1.492   4.628  0.1517  0.4190  0.0415
   90SAPC  H10Y 8631   0.964   1.558   4.566 -1.0384  0.4441  1.1315
   90SAPC  C311 8632   1.063   1.413   4.435  0.6271 -0.1401 -0.1912
   90SAPC  H11X 8633   0.966   1.393   4.384  0.1028  2.5029 -0.2666
   90SAPC  H11Y 8634   1.123   1.320   4.442 -0.2212 -0.5734  1.7958
   90SAPC  C312 8635   1.138   1.515   4.348 -0.1378 -0.0453 -0.0271
   90SAPC  H12X 8636   1.232   1.544   4.398  0.8410 -0.0780 -1.8177
   90SAPC  H12Y 8637   1.076   1.605   4.327 -0.6538 -0.2531  0.5805
   90SAPC  C313 8638   1.167   1.463   4.198  0.3902 -0.6161  0.3808
   90SAPC  H13X 8639   1.067   1.458   4.150  0.3392 -1.1676  0.5394
   90SAPC  H13Y 8640   1.218   1.364   4.202  2.4564  0.3652 -1.1693
   90SAPC  C314 8641   1.257   1.557   4.120  0.1838 -0.0574  0.4367
   90SAPC  H14X 8642   1.347   1.595   4.172  1.1043  0.2566 -1.3366
   90SAPC  H14Y 8643   1.205   1.654   4.102  0.1716  0.4408  2.9682
   90SAPC  C315 8644   1.305   1.500   3.986  0.0108  0.0564  0.1975
   90SAPC  H15X 8645   1.226   1.450   3.925 -1.1775  0.7646  1.1439
   90SAPC  H15Y 8646   1.388   1.429   4.005  1.1469  1.0092 -1.1560
   90SAPC  C316 8647   1.359   1.607   3.891  0.8855 -0.1682  0.0541
   90SAPC  H16X 8648   1.458   1.641   3.927  0.6801 -0.0139  0.4687
   90SAPC  H16Y 8649   1.289   1.691   3.874  0.0300 -1.4433 -3.2443
   90SAPC  C317 8650   1.393   1.553   3.749 -0.0190  0.3575 -0.1369
   90SAPC  H17X 8651   1.296   1.527   3.701  0.0703 -0.2123 -0.0136
   90SAPC  H17Y 8652   1.447   1.457   3.760  2.1450  1.6946  1.1509
   90SAPC  C318 8653   1.466   1.653   3.660  0.3049  0.2119  0.0611
   90SAPC  H18X 8654   1.572   1.656   3.692  0.0202 -2.0655  1.2922
   90SAPC  H18Y 8655   1.408   1.748   3.655 -0.0631 -0.0661 -1.0784
   90SAPC  H18Z 8656   1.456   1.620   3.555  1.2672 -1.3663  0.4543
   91SAPC     N 8657   5.193   6.912   6.513 -0.6119 -0.2047  0.5042
   91SAPC   C12 8658   5.171   6.931   6.363 -0.4407 -0.3915 -0.3108
   91SAPC  H12A 8659   5.180   7.038   6.348 -0.3569 -0.1931  1.1095
   91SAPC  H12B 8660   5.077   6.889   6.329 -0.0212 -0.1896 -1.7688
   91SAPC   C13 8661   5.095   7.007   6.577  0.0558  0.4119 -0.7674
   91SAPC  H13A 8662   5.121   7.105   6.540 -1.5355  2.3894  3.0072
   91SAPC  H13B 8663   4.995   6.971   6.561 -0.3723  1.2524 -0.0356
   91SAPC  H13C 8664   5.113   7.006   6.684  0.0385 -0.4752 -0.7751
   91SAPC   C14 8665   5.162   6.779   6.561 -0.4090  0.9798  0.4723
   91SAPC  H14A 8666   5.164   6.767   6.669  3.1867  0.6176  0.4468
   91SAPC  H14B 8667   5.062   6.755   6.528  0.7332  1.0494 -3.3004
   91SAPC  H14C 8668   5.224   6.707   6.508  0.0078  1.4542  0.3070
   91SAPC   C15 8669   5.331   6.943   6.541 -0.6826  0.2159 -0.2948
   91SAPC  H15A 8670   5.358   6.918   6.643  2.4894 -0.8443 -1.3375
   91SAPC  H15B 8671   5.406   6.902   6.475  0.8206  0.1342  1.3835
   91SAPC  H15C 8672   5.343   7.051   6.535 -0.2818  0.0895 -1.8151
   91SAPC   C11 8673   5.275   6.864   6.274 -0.8337  0.4040 -0.3929
   91SAPC  H11A 8674   5.242   6.845   6.169  0.5726  1.1732 -0.9792
   91SAPC  H11B 8675   5.279   6.757   6.302  0.1946  0.1990 -1.2648
   91SAPC     P 8676   5.458   7.020   6.168  0.0105  0.1294  0.0542
   91SAPC   O13 8677   5.378   7.144   6.179  0.1627 -0.3051 -0.4909
   91SAPC   O14 8678   5.603   7.041   6.177 -0.1232 -0.0269  0.4884
   91SAPC   O12 8679   5.409   6.918   6.275  0.5534  0.4939 -0.0044
   91SAPC   O11 8680   5.424   6.944   6.037  0.7212 -0.1890 -0.0898
   91SAPC    C1 8681   5.472   6.819   5.987  0.3728  0.0293  0.8409
   91SAPC    HA 8682   5.466   6.737   6.062 -1.0304 -1.0147 -0.3871
   91SAPC    HB 8683   5.414   6.797   5.896 -1.6240  0.8700  1.8875
   91SAPC    C2 8684   5.619   6.826   5.942 -0.5493 -0.3644 -0.4740
   91SAPC    HS 8685   5.687   6.854   6.026 -0.2004  0.5901 -1.0653
   91SAPC   O21 8686   5.619   6.932   5.842  0.3231 -0.5602  0.1480
   91SAPC   C21 8687   5.729   6.998   5.809 -0.2173 -0.4852 -0.4429
   91SAPC   O22 8688   5.841   6.968   5.852 -0.3860 -0.0869  0.0285
   91SAPC   C22 8689   5.696   7.126   5.727 -0.3410  0.6845  0.5222
   91SAPC   H2R 8690   5.589   7.118   5.699 -0.0496  1.1341 -0.7627
   91SAPC   H2S 8691   5.725   7.215   5.787 -1.4665  0.8500  0.8342
   91SAPC    C3 8692   5.660   6.700   5.872  0.3138  0.1585 -0.2746
   91SAPC    HX 8693   5.668   6.618   5.946 -2.0255  1.1498  1.1196
   91SAPC    HY 8694   5.761   6.712   5.827  2.0818  0.5437  3.5607
   91SAPC   O31 8695   5.573   6.668   5.762  0.6661  0.1440  0.3226
   91SAPC   C31 8696   5.471   6.579   5.786 -0.6587 -0.6055 -0.4455
   91SAPC   O32 8697   5.456   6.517   5.892 -0.1570  0.4464 -0.5710
   91SAPC   C32 8698   5.394   6.547   5.658 -0.4818 -0.8883 -0.2664
   91SAPC   H2X 8699   5.317   6.475   5.694 -1.7400 -0.1129 -1.3525
   91SAPC   H2Y 8700   5.463   6.495   5.589  0.0977  0.0288 -0.3993
   91SAPC   C23 8701   5.784   7.132   5.592 -0.2636  0.2357 -0.0446
   91SAPC   H3R 8702   5.804   7.031   5.550 -1.9659 -0.2495  0.3038
   91SAPC   H3S 8703   5.888   7.161   5.620  0.1678 -0.7751 -0.5400
   91SAPC   C24 8704   5.712   7.210   5.483 -0.1522 -0.6079  0.0313
   91SAPC   H4R 8705   5.667   7.301   5.526  0.8528 -1.1268  2.2289
   91SAPC   H4S 8706   5.627   7.151   5.442  0.2404  0.0494 -1.8023
   91SAPC   C25 8707   5.814   7.242   5.375 -0.1649  0.5606  0.6936
   91SAPC   H5R 8708   5.893   7.315   5.400  0.8037 -0.6693  1.2718
   91SAPC   C26 8709   5.819   7.183   5.254  0.2442  0.0663 -1.0062
   91SAPC   H6R 8710   5.901   7.206   5.184  0.2992 -1.3918 -1.4286
   91SAPC   C27 8711   5.732   7.075   5.198  0.0787  0.1925 -0.3341
   91SAPC   H7R 8712   5.673   7.115   5.113 -1.6293  0.0642  0.7610
   91SAPC   H7S 8713   5.656   7.041   5.272  1.2324 -0.5716  0.5069
   91SAPC   C28 8714   5.819   6.964   5.148 -0.6309  0.3089 -0.1909
   91SAPC   H8R 8715   5.868   6.896   5.219 -0.3751 -1.1338 -1.7221
   91SAPC   C29 8716   5.854   6.955   5.015 -0.4560  0.0227  1.0072
   91SAPC   H9R 8717   5.915   6.869   4.985 -2.0592  0.0421 -2.5137
   91SAPC  C210 8718   5.817   7.038   4.891 -0.2027  0.8207  1.1724
   91SAPC  H10R 8719   5.732   7.107   4.910  0.0172  0.6071  3.0406
   91SAPC  H10S 8720   5.774   6.971   4.813  0.6969  1.6160 -0.0251
   91SAPC  C211 8721   5.933   7.121   4.833 -0.0318  0.4393 -0.4958
   91SAPC  H11R 8722   6.006   7.167   4.901  1.2251 -0.6814 -1.0645
   91SAPC  C212 8723   5.950   7.139   4.703  0.3380  0.3358 -0.9630
   91SAPC  H12R 8724   6.025   7.213   4.671 -0.9569  0.9429 -2.6358
   91SAPC  C213 8725   5.865   7.073   4.596 -0.1094 -0.3605  0.0291
   91SAPC  H13R 8726   5.762   7.038   4.619 -0.4532  1.0823  0.7598
   91SAPC  H13S 8727   5.923   6.983   4.567 -2.0991 -1.9254  0.7640
   91SAPC  C214 8728   5.835   7.171   4.476  0.1435  0.6939 -0.4413
   91SAPC  H14R 8729   5.845   7.278   4.500 -0.3189  0.3107  1.6497
   91SAPC  C215 8730   5.802   7.136   4.351 -0.3285 -0.2570 -0.0404
   91SAPC  H15R 8731   5.767   7.216   4.284  0.4634  1.6942  1.7797
   91SAPC  C216 8732   5.789   7.000   4.300 -0.5220 -0.2445  0.2557
   91SAPC  H16R 8733   5.700   6.980   4.235 -0.1245 -1.5312  0.0805
   91SAPC  H16S 8734   5.774   6.922   4.378 -2.9316  0.3752  0.4456
   91SAPC  C217 8735   5.900   6.971   4.203 -0.6818  0.0901 -0.1351
   91SAPC  H17R 8736   5.925   7.062   4.145 -1.6042 -0.0028 -0.6851
   91SAPC  H17S 8737   5.876   6.889   4.131 -1.5618  0.7591 -0.6088
   91SAPC  C218 8738   6.007   6.904   4.287 -0.0836 -0.5290  0.0198
   91SAPC  H18R 8739   5.964   6.818   4.343 -1.0213 -0.6319 -0.8585
   91SAPC  H18S 8740   6.034   6.975   4.368  0.7486 -0.8344  0.0206
   91SAPC  C219 8741   6.141   6.868   4.211 -0.0681 -0.2458  0.0195
   91SAPC  H19R 8742   6.179   6.961   4.164  0.4445 -0.5316 -0.1302
   91SAPC  H19S 8743   6.119   6.808   4.121  2.5913 -0.1921 -0.7081
   91SAPC  C220 8744   6.243   6.811   4.318  1.0027 -0.0038 -0.2306
   91SAPC  H20R 8745   6.235   6.701   4.330  0.0326  0.3777  2.8425
   91SAPC  H20S 8746   6.218   6.858   4.415 -2.1402  1.0048 -1.4896
   91SAPC  H20T 8747   6.350   6.822   4.289  1.0167 -0.6686 -0.4488
   91SAPC   C33 8748   5.322   6.662   5.596  0.2621 -0.0755 -0.9409
   91SAPC   H3X 8749   5.239   6.692   5.664  1.6727 -0.4507  0.9631
   91SAPC   H3Y 8750   5.268   6.617   5.510  0.7225 -2.7173  0.0926
   91SAPC   C34 8751   5.398   6.774   5.537 -0.0769 -0.1002 -0.2913
   91SAPC   H4X 8752   5.454   6.825   5.618 -1.5163 -0.3501  0.8818
   91SAPC   H4Y 8753   5.332   6.852   5.492  0.7321 -0.3363 -1.9264
   91SAPC   C35 8754   5.494   6.736   5.421  0.4243  0.4488 -0.6618
   91SAPC   H5X 8755   5.518   6.627   5.426 -3.0426 -0.2353  4.0112
   91SAPC   H5Y 8756   5.591   6.788   5.436  0.9836 -0.9370  0.7430
   91SAPC   C36 8757   5.429   6.779   5.286 -0.5548  0.4599  0.2466
   91SAPC   H6X 8758   5.417   6.890   5.286 -0.5484  0.4599  0.4577
   91SAPC   H6Y 8759   5.327   6.734   5.287 -0.0049 -0.7806  1.9747
   91SAPC   C37 8760   5.505   6.728   5.159  0.1034 -0.1580 -0.6139
   91SAPC   H7X 8761   5.515   6.618   5.166 -0.0224 -0.2053 -1.1814
   91SAPC   H7Y 8762   5.609   6.767   5.166  0.2632 -0.8971  1.3744
   91SAPC   C38 8763   5.434   6.781   5.032  0.0893 -0.2484  0.5458
   91SAPC   H8X 8764   5.429   6.892   5.035 -2.2006 -0.3719  1.7073
   91SAPC   H8Y 8765   5.327   6.752   5.029 -1.2340  4.3003 -2.2345
   91SAPC   C39 8766   5.497   6.745   4.898  0.2576  0.6816 -0.1149
   91SAPC   H9X 8767   5.508   6.635   4.888  0.1357  0.7027 -0.4800
   91SAPC   H9Y 8768   5.591   6.799   4.877  0.0062  1.3348  0.4206
   91SAPC  C310 8769   5.391   6.774   4.782 -0.2818  0.4379  0.0168
   91SAPC  H10X 8770   5.347   6.870   4.816  0.3442  0.0296  2.0446
   91SAPC  H10Y 8771   5.319   6.691   4.790  1.1361 -0.7979  0.1483
   91SAPC  C311 8772   5.446   6.776   4.641 -0.1707  1.2659 -0.3009
   91SAPC  H11X 8773   5.492   6.677   4.621  0.1806  1.2077  0.7535
   91SAPC  H11Y 8774   5.539   6.834   4.626 -1.1397  2.5107 -1.5851
   91SAPC  C312 8775   5.347   6.807   4.534 -0.1966  0.5087 -0.0993
   91SAPC  H12X 8776   5.337   6.918   4.535  2.2587  0.7677  1.5475
   91SAPC  H12Y 8777   5.246   6.769   4.559 -0.4469  1.8812  1.0491
   91SAPC  C313 8778   5.395   6.756   4.407  0.0299  0.7615 -0.3304
   91SAPC  H13X 8779   5.397   6.645   4.403 -1.3701  0.7625 -1.4104
   91SAPC  H13Y 8780   5.494   6.805   4.393  0.8461 -0.7507  0.1253
   91SAPC  C314 8781   5.313   6.801   4.286  0.0065  0.3053  0.0040
   91SAPC  H14X 8782   5.357   6.777   4.187  0.5649  2.2252 -0.2377
   91SAPC  H14Y 8783   5.290   6.910   4.289  0.8215  0.5316 -1.5609
   91SAPC  C315 8784   5.174   6.734   4.280  0.1405  0.1175  0.4953
   91SAPC  H15X 8785   5.113   6.753   4.370 -1.3070 -3.3301  0.3343
   91SAPC  H15Y 8786   5.184   6.624   4.268 -0.7763  0.1825 -0.9209
   91SAPC  C316 8787   5.091   6.802   4.166 -0.6089 -0.3917 -0.1486
   91SAPC  H16X 8788   5.151   6.779   4.076 -1.6513 -2.5913 -0.3317
   91SAPC  H16Y 8789   5.093   6.911   4.189  1.3633 -0.6530  0.9949
   91SAPC  C317 8790   4.945   6.747   4.148 -0.5018  0.1886 -0.4523
   91SAPC  H17X 8791   4.887   6.826   4.096 -2.6320 -0.3735  1.0368
   91SAPC  H17Y 8792   4.905   6.750   4.252  1.9236  0.3567  0.5238
   91SAPC  C318 8793   4.933   6.612   4.085 -0.0927  0.3221  0.0847
   91SAPC  H18X 8794   5.015   6.551   4.126 -2.8572 -1.8171  2.6290
   91SAPC  H18Y 8795   4.932   6.616   3.974  1.9559  0.6517  0.0728
   91SAPC  H18Z 8796   4.842   6.556   4.116 -0.4978  0.8274 -0.1692
   92SAPC     N 8797   6.701   5.882   6.474 -0.1739  0.3918 -0.7135
   92SAPC   C12 8798   6.612   5.905   6.346  0.1298  1.0735  0.0518
   92SAPC  H12A 8799   6.520   5.942   6.389 -0.1020  0.3415  0.1806
   92SAPC  H12B 8800   6.582   5.811   6.302 -0.2568  1.6092 -0.8464
   92SAPC   C13 8801   6.753   6.019   6.519  0.3822 -0.1249 -0.0480
   92SAPC  H13A 8802   6.816   6.056   6.440 -0.4554 -1.7891 -1.5398
   92SAPC  H13B 8803   6.673   6.089   6.538  1.6873  1.4045 -0.1201
   92SAPC  H13C 8804   6.810   6.000   6.609  0.0690  0.7766  0.3463
   92SAPC   C14 8805   6.612   5.826   6.584  0.2770 -0.1951 -0.3731
   92SAPC  H14A 8806   6.671   5.814   6.673 -0.8112 -0.9516  0.2645
   92SAPC  H14B 8807   6.533   5.898   6.602  1.5256  1.0181  0.3277
   92SAPC  H14C 8808   6.581   5.729   6.547 -1.6052  1.1220 -2.4592
   92SAPC   C15 8809   6.810   5.795   6.453 -0.1351 -0.8133  0.6037
   92SAPC  H15A 8810   6.883   5.798   6.533 -1.0462 -1.8878  1.4917
   92SAPC  H15B 8811   6.783   5.693   6.430 -0.3531 -0.8690  1.1161
   92SAPC  H15C 8812   6.858   5.834   6.364  0.5865  1.0108  1.7639
   92SAPC   C11 8813   6.662   6.005   6.245  0.3822 -0.2686 -0.4063
   92SAPC  H11A 8814   6.656   6.107   6.288 -1.7182  0.1493 -1.6333
   92SAPC  H11B 8815   6.601   6.014   6.153 -0.7014 -0.0068  0.3360
   92SAPC     P 8816   6.866   5.923   6.090  0.2337  0.1654 -0.6805
   92SAPC   O13 8817   6.948   5.810   6.125 -0.6912  0.0061  0.5671
   92SAPC   O14 8818   6.760   5.902   5.990 -0.1497 -0.0214 -0.4576
   92SAPC   O12 8819   6.806   5.995   6.220 -0.2788 -0.0431  0.4558
   92SAPC   O11 8820   6.964   6.038   6.051  0.2485 -0.0933  0.4553
   92SAPC    C1 8821   7.089   5.996   5.991 -0.9362  0.5919  1.3017
   92SAPC    HA 8822   7.144   5.926   6.056 -3.9846 -2.1332  1.0580
   92SAPC    HB 8823   7.077   5.949   5.891 -0.9427 -0.2056  1.6764
   92SAPC    C2 8824   7.179   6.119   5.954 -0.1648  0.4221  0.6834
   92SAPC    HS 8825   7.199   6.177   6.047 -0.6593  0.0625  1.0195
   92SAPC   O21 8826   7.115   6.195   5.845  0.2010 -0.9088  0.1402
   92SAPC   C21 8827   7.026   6.290   5.877 -0.2917 -0.0091 -0.2827
   92SAPC   O22 8828   7.005   6.332   5.990 -0.1492 -0.0321 -0.1837
   92SAPC   C22 8829   6.955   6.332   5.747 -0.7291 -0.6335 -0.3773
   92SAPC   H2R 8830   6.903   6.241   5.710 -1.0816  0.5319 -2.8077
   92SAPC   H2S 8831   6.872   6.400   5.775  0.6807  0.3182  1.6803
   92SAPC    C3 8832   7.317   6.062   5.912 -0.2252 -0.1892  0.5544
   92SAPC    HX 8833   7.364   6.015   6.001 -1.2832  0.1819  1.3221
   92SAPC    HY 8834   7.388   6.146   5.900  0.0074 -0.5371 -0.6336
   92SAPC   O31 8835   7.319   5.994   5.787 -0.2547  0.5354  0.3623
   92SAPC   C31 8836   7.334   5.860   5.801 -0.3094 -0.0756 -0.9699
   92SAPC   O32 8837   7.356   5.801   5.906 -0.8736 -0.0412  0.3035
   92SAPC   C32 8838   7.312   5.784   5.668 -0.1616  0.1774 -0.6299
   92SAPC   H2X 8839   7.204   5.759   5.659  0.3370 -2.4629  0.0463
   92SAPC   H2Y 8840   7.366   5.686   5.672  2.3634  1.5773  1.1218
   92SAPC   C23 8841   7.030   6.396   5.620 -0.5817  0.5462  0.0292
   92SAPC   H3R 8842   7.115   6.328   5.596 -1.7754 -0.5707 -1.1309
   92SAPC   H3S 8843   7.056   6.499   5.651 -1.1929  0.9656 -0.8475
   92SAPC   C24 8844   6.943   6.403   5.494 -0.2606 -0.4901  0.0841
   92SAPC   H4R 8845   6.991   6.480   5.429  1.9689 -0.9649  1.1330
   92SAPC   H4S 8846   6.853   6.451   5.537  1.0200  1.1160  1.0324
   92SAPC   C25 8847   6.917   6.269   5.431  0.1024  0.0895  0.0621
   92SAPC   H5R 8848   6.859   6.198   5.490  1.0670 -1.1194 -0.4101
   92SAPC   C26 8849   6.958   6.234   5.310  0.1825  0.0677  0.0036
   92SAPC   H6R 8850   6.949   6.128   5.282 -1.7300 -0.0297  0.9285
   92SAPC   C27 8851   7.029   6.316   5.215  0.2425 -0.1271 -0.3922
   92SAPC   H7R 8852   7.127   6.319   5.268  1.4694 -1.1772 -2.5457
   92SAPC   H7S 8853   6.986   6.419   5.212 -2.2524 -1.1692 -1.2866
   92SAPC   C28 8854   7.044   6.255   5.081  0.0508  0.5334 -0.2291
   92SAPC   H8R 8855   7.023   6.147   5.072 -0.5083  0.3601  2.6456
   92SAPC   C29 8856   7.081   6.324   4.969 -0.2453 -0.4627 -0.3163
   92SAPC   H9R 8857   7.103   6.259   4.883 -0.5836 -1.5441  0.4168
   92SAPC  C210 8858   7.116   6.462   4.944  0.1401  1.2563  0.3379
   92SAPC  H10R 8859   7.224   6.488   4.948  1.0321 -1.7584 -2.2456
   92SAPC  H10S 8860   7.065   6.522   5.022  3.2098  2.9115  1.1645
   92SAPC  C211 8861   7.051   6.492   4.808 -0.1603  0.1324  0.1292
   92SAPC  H11R 8862   6.944   6.519   4.811 -0.3897 -0.8008  0.5324
   92SAPC  C212 8863   7.123   6.505   4.690 -0.2489  0.6567  0.1129
   92SAPC  H12R 8864   7.065   6.489   4.598  0.8130 -0.0663 -0.4423
   92SAPC  C213 8865   7.270   6.487   4.672 -0.6904 -0.4509 -0.0300
   92SAPC  H13R 8866   7.315   6.418   4.746  3.2297  1.8005 -0.1981
   92SAPC  H13S 8867   7.323   6.580   4.703  0.8935 -1.0427 -0.9206
   92SAPC  C214 8868   7.300   6.453   4.528 -0.3650 -0.1136  0.3604
   92SAPC  H14R 8869   7.285   6.532   4.453  0.4754 -1.9003 -1.7480
   92SAPC  C215 8870   7.334   6.332   4.481  0.6152 -0.5755  0.3328
   92SAPC  H15R 8871   7.366   6.326   4.376  1.5593 -0.4344  0.6083
   92SAPC  C216 8872   7.350   6.208   4.560 -0.6015  0.3737 -0.3621
   92SAPC  H16R 8873   7.439   6.230   4.623  0.1720  1.5386 -1.8356
   92SAPC  H16S 8874   7.382   6.128   4.490  0.9796 -0.1116  0.8893
   92SAPC  C217 8875   7.233   6.157   4.638 -0.3546 -0.6866 -0.5674
   92SAPC  H17R 8876   7.155   6.151   4.559  2.1873 -0.3250 -3.1819
   92SAPC  H17S 8877   7.200   6.226   4.719 -0.0689 -3.1594  1.7351
   92SAPC  C218 8878   7.253   6.025   4.703 -0.0229 -0.0652  0.0049
   92SAPC  H18R 8879   7.353   6.040   4.751 -0.4111  2.0186  0.2240
   92SAPC  H18S 8880   7.263   5.946   4.626 -0.1866  0.6844 -0.7942
   92SAPC  C219 8881   7.164   5.978   4.818  1.3244 -0.1805 -0.1994
   92SAPC  H19R 8882   7.164   6.056   4.897  0.2407  0.6032 -0.9550
   92SAPC  H19S 8883   7.188   5.877   4.857  0.4624 -0.6216 -0.7847
   92SAPC  C220 8884   7.012   5.964   4.770  0.1091  0.9571  0.0100
   92SAPC  H20R 8885   6.975   6.062   4.734 -0.2324  0.7970 -0.0824
   92SAPC  H20S 8886   6.955   5.932   4.861 -0.7035  1.5358 -0.2888
   92SAPC  H20T 8887   7.008   5.897   4.682 -0.1277 -1.1113  1.5359
   92SAPC   C33 8888   7.360   5.866   5.546  0.1013  0.2528  0.1913
   92SAPC   H3X 8889   7.462   5.907   5.557  0.3144  1.4358 -4.8068
   92SAPC   H3Y 8890   7.289   5.950   5.529 -0.3447  0.5344  3.2803
   92SAPC   C34 8891   7.362   5.781   5.410  0.0847 -0.1763 -0.1505
   92SAPC   H4X 8892   7.259   5.769   5.371  0.5414 -1.8519 -0.8841
   92SAPC   H4Y 8893   7.413   5.686   5.434  1.9902  0.5454 -1.1884
   92SAPC   C35 8894   7.440   5.862   5.300  0.2878 -0.1203  0.7343
   92SAPC   H5X 8895   7.461   5.787   5.221 -1.9589  1.1763 -1.1441
   92SAPC   H5Y 8896   7.536   5.899   5.342  1.2557 -2.3825  0.5957
   92SAPC   C36 8897   7.373   5.990   5.245 -0.0140  0.0855 -0.0284
   92SAPC   H6X 8898   7.341   6.047   5.335  0.4447 -0.1946  0.3160
   92SAPC   H6Y 8899   7.280   5.966   5.189  0.6495 -1.0297 -0.6474
   92SAPC   C37 8900   7.469   6.071   5.168  0.1409 -0.3013 -0.2391
   92SAPC   H7X 8901   7.517   6.006   5.092 -0.1797 -0.7290 -0.0731
   92SAPC   H7Y 8902   7.554   6.097   5.234 -0.6125  1.0092  0.2369
   92SAPC   C38 8903   7.411   6.204   5.112  0.2732 -0.4774  0.3343
   92SAPC   H8X 8904   7.402   6.273   5.199 -2.0391 -1.2042  0.6982
   92SAPC   H8Y 8905   7.308   6.191   5.073  0.0089  0.0357  0.8491
   92SAPC   C39 8906   7.495   6.280   5.007 -0.1091 -0.2351 -0.1835
   92SAPC   H9X 8907   7.429   6.350   4.952 -0.5212  0.4826  1.2108
   92SAPC   H9Y 8908   7.524   6.202   4.933 -0.1571 -1.1281  0.7236
   92SAPC  C310 8909   7.622   6.336   5.070  0.0448 -0.7630 -0.5210
   92SAPC  H10X 8910   7.688   6.247   5.076  0.7542 -0.1309  2.0925
   92SAPC  H10Y 8911   7.601   6.382   5.169 -1.1019 -2.1247 -0.1300
   92SAPC  C311 8912   7.705   6.434   4.988  0.2475  0.9427 -1.2897
   92SAPC  H11X 8913   7.699   6.402   4.882 -1.1143  0.2219 -1.0143
   92SAPC  H11Y 8914   7.805   6.435   5.035 -1.0533 -0.3657  1.6257
   92SAPC  C312 8915   7.645   6.573   4.987 -0.0703 -0.7659  0.0150
   92SAPC  H12X 8916   7.594   6.580   5.086  0.1538  2.0460 -0.0509
   92SAPC  H12Y 8917   7.561   6.577   4.914 -0.0883  0.3387  0.0888
   92SAPC  C313 8918   7.745   6.688   4.958 -0.2301 -0.2433  0.3184
   92SAPC  H13X 8919   7.830   6.674   5.028  0.1598 -0.0832 -0.1244
   92SAPC  H13Y 8920   7.701   6.789   4.974  1.6643  0.4755  1.1877
   92SAPC  C314 8921   7.802   6.666   4.817  0.0166  0.1495  0.0706
   92SAPC  H14X 8922   7.720   6.657   4.743 -1.7243  0.1379  1.9623
   92SAPC  H14Y 8923   7.845   6.564   4.811  1.2252  0.7128 -1.0631
   92SAPC  C315 8924   7.918   6.762   4.778  0.3024  0.2697 -0.6114
   92SAPC  H15X 8925   7.998   6.753   4.855 -0.0857  0.4558 -0.1818
   92SAPC  H15Y 8926   7.888   6.868   4.791 -2.2930 -0.4237 -0.6853
   92SAPC  C316 8927   7.961   6.744   4.628  0.3913  0.3951 -0.2548
   92SAPC  H16X 8928   7.883   6.781   4.558  1.3869  0.6554 -1.2374
   92SAPC  H16Y 8929   7.978   6.634   4.620 -0.6250  0.2207 -0.0639
   92SAPC  C317 8930   8.077   6.833   4.585 -0.0847 -0.2636  0.2412
   92SAPC  H17X 8931   8.163   6.817   4.653 -1.3263 -0.4409  1.8087
   92SAPC  H17Y 8932   8.045   6.939   4.585 -0.5248 -0.3879  0.8734
   92SAPC  C318 8933   8.119   6.796   4.436 -0.2184 -0.4314 -0.7239
   92SAPC  H18X 8934   8.141   6.687   4.436  1.1614 -0.1688  0.6154
   92SAPC  H18Y 8935   8.216   6.843   4.409 -0.9993  1.0536 -0.9619
   92SAPC  H18Z 8936   8.038   6.817   4.363 -1.2015 -1.4874  0.0268
   93SAPC     N 8937   0.008   0.332   6.205  0.1671  0.4510 -0.4743
   93SAPC   C12 8938   0.002   0.281   6.353  1.2905  0.2898 -0.2791
   93SAPC  H12A 8939   0.012   0.367   6.418 -1.6578 -0.0905  0.7346
   93SAPC  H12B 8940   0.089   0.219   6.369 -0.0196 -1.5838 -0.2877
   93SAPC   C13 8941  -0.108   0.425   6.183  0.1183 -0.4450 -0.4417
   93SAPC  H13A 8942  -0.205   0.380   6.200  0.8410 -2.6077 -1.9082
   93SAPC  H13B 8943  -0.103   0.510   6.250  0.8214 -1.2388  0.5192
   93SAPC  H13C 8944  -0.111   0.475   6.087  1.2143  3.3808  1.3953
   93SAPC   C14 8945   0.129   0.414   6.187  0.1820 -0.0641 -0.6954
   93SAPC  H14A 8946   0.187   0.390   6.100  0.3482 -0.0081 -0.6001
   93SAPC  H14B 8947   0.094   0.516   6.192 -0.6995 -0.4439  2.4268
   93SAPC  H14C 8948   0.206   0.402   6.262 -1.2387 -2.2970  0.4675
   93SAPC   C15 8949   0.012   0.221   6.110 -0.2117 -0.1710 -0.6288
   93SAPC  H15A 8950   0.099   0.161   6.130  0.8440  0.2778 -3.6618
   93SAPC  H15B 8951  -0.079   0.166   6.127  0.1679  0.0280  2.3499
   93SAPC  H15C 8952   0.003   0.253   6.007  1.8093  2.2991 -0.1108
   93SAPC   C11 8953  -0.119   0.203   6.399  0.1186 -0.2032 -0.0298
   93SAPC  H11A 8954  -0.214   0.256   6.375 -0.8432 -1.1555  1.5330
   93SAPC  H11B 8955  -0.113   0.202   6.510 -0.2956  0.2693 -0.0028
   93SAPC     P 8956  -0.246   0.002   6.286 -0.0159 -0.1807  0.2914
   93SAPC   O13 8957  -0.305  -0.100   6.377  0.1622 -0.0544  0.1431
   93SAPC   O14 8958  -0.343   0.107   6.248 -0.2675 -0.1446 -0.1474
   93SAPC   O12 8959  -0.115   0.069   6.336  0.0945 -0.7281 -0.1491
   93SAPC   O11 8960  -0.196  -0.068   6.161  0.1157 -0.1978 -0.0372
   93SAPC    C1 8961  -0.243  -0.204   6.134  0.2465 -0.2638 -0.6430
   93SAPC    HA 8962  -0.217  -0.272   6.218 -1.2874  1.6274  1.3897
   93SAPC    HB 8963  -0.354  -0.204   6.132  0.2166  0.0308  0.7360
   93SAPC    C2 8964  -0.202  -0.267   5.994 -0.7282 -0.1274  0.2124
   93SAPC    HS 8965  -0.221  -0.376   6.007 -2.5643  0.1888  0.3108
   93SAPC   O21 8966  -0.064  -0.244   5.979 -0.4905 -0.0855 -0.8778
   93SAPC   C21 8967  -0.009  -0.314   5.884 -1.1078  0.3465 -0.2684
   93SAPC   O22 8968  -0.057  -0.407   5.818 -0.0720  0.0693  0.1708
   93SAPC   C22 8969   0.122  -0.249   5.856  0.2671 -0.2132 -0.0565
   93SAPC   H2R 8970   0.193  -0.280   5.936  1.4060  0.2631 -0.8691
   93SAPC   H2S 8971   0.152  -0.282   5.755 -0.4366  0.6582 -0.5605
   93SAPC    C3 8972  -0.285  -0.205   5.873  0.2235 -0.1544  0.8207
   93SAPC    HX 8973  -0.394  -0.219   5.885  0.1063  2.1232  2.9468
   93SAPC    HY 8974  -0.249  -0.249   5.777 -0.5183  2.6809 -0.8333
   93SAPC   O31 8975  -0.258  -0.062   5.861  0.7100 -0.2989  0.6781
   93SAPC   C31 8976  -0.357   0.024   5.902  0.3549  0.2228  0.2642
   93SAPC   O32 8977  -0.467  -0.010   5.947  0.1050  0.0782  0.7807
   93SAPC   C32 8978  -0.303   0.162   5.872  0.0824  0.1927  0.3264
   93SAPC   H2X 8979  -0.195   0.164   5.846  0.1794  1.2498  0.7994
   93SAPC   H2Y 8980  -0.300   0.214   5.970 -0.9644  0.5952  0.1573
   93SAPC   C23 8981   0.098  -0.093   5.859 -0.5846 -0.2060  0.1897
   93SAPC   H3R 8982   0.079  -0.050   5.960 -1.0902  3.3200 -1.3480
   93SAPC   H3S 8983   0.003  -0.068   5.807 -0.0656  1.0135 -0.1929
   93SAPC   C24 8984   0.216  -0.015   5.797 -0.3998 -0.5757  0.1789
   93SAPC   H4R 8985   0.232  -0.033   5.689 -1.1986 -0.9502  0.1193
   93SAPC   H4S 8986   0.310  -0.052   5.843  0.4490  1.8538  0.4684
   93SAPC   C25 8987   0.206   0.129   5.822  0.3828  0.3436  0.2764
   93SAPC   H5R 8988   0.249   0.168   5.916 -0.9501 -0.4751  1.2453
   93SAPC   C26 8989   0.134   0.216   5.744 -0.3455  0.2668  0.6068
   93SAPC   H6R 8990   0.137   0.322   5.775  0.2663  0.5207 -0.3087
   93SAPC   C27 8991   0.065   0.182   5.620 -0.1690 -1.1102  0.2307
   93SAPC   H7R 8992  -0.022   0.248   5.600  1.3671  0.6732 -0.6945
   93SAPC   H7S 8993   0.002   0.093   5.641 -0.0927 -1.1504  0.2890
   93SAPC   C28 8994   0.128   0.155   5.489 -0.4728 -0.0982 -0.0403
   93SAPC   H8R 8995   0.230   0.117   5.504 -0.6783 -0.4685  0.4649
   93SAPC   C29 8996   0.076   0.133   5.371  0.4536 -0.3975  0.2994
   93SAPC   H9R 8997   0.147   0.125   5.288 -1.9586  0.8234 -1.9550
   93SAPC  C210 8998  -0.067   0.142   5.325  0.5204  0.0175 -0.8289
   93SAPC  H10R 8999  -0.091   0.245   5.290 -0.5612  0.3437  0.8027
   93SAPC  H10S 9000  -0.128   0.125   5.416 -0.9658  2.4699 -1.3342
   93SAPC  C211 9001  -0.097   0.051   5.215 -0.4130 -0.3359  0.8563
   93SAPC  H11R 9002  -0.077   0.094   5.116  0.2633 -0.3950  0.9680
   93SAPC  C212 9003  -0.129  -0.082   5.212 -0.1441 -0.0085 -0.1080
   93SAPC  H12R 9004  -0.158  -0.127   5.117 -1.7894 -1.7499  1.1735
   93SAPC  C213 9005  -0.143  -0.177   5.328 -0.5200 -0.1945 -0.1404
   93SAPC  H13R 9006  -0.042  -0.206   5.365  0.8806  0.5908 -3.2342
   93SAPC  H13S 9007  -0.206  -0.258   5.287  0.2200  0.6913 -3.1464
   93SAPC  C214 9008  -0.225  -0.133   5.447 -0.3938  0.5287  0.8351
   93SAPC  H14R 9009  -0.161  -0.095   5.528 -1.3915  2.0974  0.9025
   93SAPC  C215 9010  -0.358  -0.138   5.466  0.0281 -0.3393  0.0178
   93SAPC  H15R 9011  -0.399  -0.113   5.565 -0.1811  1.2148 -0.4477
   93SAPC  C216 9012  -0.459  -0.191   5.365  0.4813  0.2575  0.0425
   93SAPC  H16R 9013  -0.425  -0.214   5.262  1.9187  1.6492  0.1827
   93SAPC  H16S 9014  -0.535  -0.114   5.342 -0.2692 -0.8447 -1.2708
   93SAPC  C217 9015  -0.541  -0.317   5.409  0.4055  0.5791 -0.2631
   93SAPC  H17R 9016  -0.471  -0.399   5.438  0.1661  0.1163 -0.9645
   93SAPC  H17S 9017  -0.595  -0.359   5.321 -1.0950  0.7552  0.5772
   93SAPC  C218 9018  -0.639  -0.278   5.516  0.2241  0.2280 -0.8779
   93SAPC  H18R 9019  -0.713  -0.201   5.485 -0.0675 -0.0373 -0.8430
   93SAPC  H18S 9020  -0.571  -0.234   5.592 -0.6534 -2.4706  1.5705
   93SAPC  C219 9021  -0.718  -0.387   5.592 -0.4571  0.4094  0.3112
   93SAPC  H19R 9022  -0.652  -0.460   5.644 -0.2748 -1.1574 -2.0584
   93SAPC  H19S 9023  -0.775  -0.447   5.518 -0.7342 -1.1053  1.7468
   93SAPC  C220 9024  -0.817  -0.328   5.691  0.6210  0.7862 -0.8100
   93SAPC  H20R 9025  -0.774  -0.269   5.775 -0.8185  0.3185  0.2813
   93SAPC  H20S 9026  -0.880  -0.412   5.729 -2.1577  2.6453 -1.1357
   93SAPC  H20T 9027  -0.892  -0.260   5.645 -0.6479 -0.2912 -0.3576
   93SAPC   C33 9028  -0.393   0.241   5.778  0.3228  0.1117  0.6512
   93SAPC   H3X 9029  -0.349   0.343   5.774  1.9409 -0.6117 -0.7038
   93SAPC   H3Y 9030  -0.494   0.231   5.822  0.0872  1.8888  0.5573
   93SAPC   C34 9031  -0.396   0.179   5.639 -0.4933  0.7353 -0.6968
   93SAPC   H4X 9032  -0.459   0.088   5.641  1.5481 -0.6982  0.4957
   93SAPC   H4Y 9033  -0.291   0.149   5.623 -0.4410 -0.1022  1.0516
   93SAPC   C35 9034  -0.431   0.275   5.529 -0.8610 -0.2680  0.0210
   93SAPC   H5X 9035  -0.355   0.356   5.529 -0.7116 -0.2892 -3.6821
   93SAPC   H5Y 9036  -0.522   0.334   5.554 -1.5160 -0.8562 -0.9480
   93SAPC   C36 9037  -0.428   0.214   5.384  0.0615 -0.7439 -0.5687
   93SAPC   H6X 9038  -0.508   0.137   5.378  0.8771 -1.4952 -2.0107
   93SAPC   H6Y 9039  -0.333   0.164   5.355  0.3298  0.6317 -2.1441
   93SAPC   C37 9040  -0.467   0.296   5.263  0.1192 -0.1384 -0.4799
   93SAPC   H7X 9041  -0.571   0.325   5.288  1.0117  2.3954  0.5104
   93SAPC   H7Y 9042  -0.470   0.222   5.180 -0.6374  1.0274 -1.5108
   93SAPC   C38 9043  -0.382   0.408   5.209 -0.2534 -0.5663 -0.0397
   93SAPC   H8X 9044  -0.283   0.365   5.182  0.1348  0.1970  0.1627
   93SAPC   H8Y 9045  -0.360   0.475   5.295 -1.5493 -0.6345  0.3579
   93SAPC   C39 9046  -0.424   0.488   5.092 -0.2788 -0.8039  0.5007
   93SAPC   H9X 9047  -0.364   0.581   5.091 -2.2594  0.4938  0.7344
   93SAPC   H9Y 9048  -0.528   0.518   5.113  0.4179  1.8310  0.4019
   93SAPC  C310 9049  -0.441   0.405   4.958  0.1006  0.1031  0.1245
   93SAPC  H10X 9050  -0.522   0.330   4.972  0.1994 -0.4648 -2.1399
   93SAPC  H10Y 9051  -0.351   0.342   4.946 -1.5069 -1.9483 -1.4479
   93SAPC  C311 9052  -0.482   0.498   4.841  0.0428  0.6807 -0.8170
   93SAPC  H11X 9053  -0.403   0.576   4.837  0.3092  0.6686  2.4182
   93SAPC  H11Y 9054  -0.567   0.564   4.869 -0.0785  0.2768 -0.2085
   93SAPC  C312 9055  -0.489   0.442   4.703 -0.5822 -0.4013  0.3909
   93SAPC  H12X 9056  -0.538   0.518   4.638 -1.6247 -0.5863  0.9617
   93SAPC  H12Y 9057  -0.552   0.351   4.697 -2.2583  0.6011  2.3532
   93SAPC  C313 9058  -0.352   0.404   4.640 -0.7049 -0.0253  1.0542
   93SAPC  H13X 9059  -0.299   0.345   4.718  0.7899 -0.9473 -0.5985
   93SAPC  H13Y 9060  -0.286   0.490   4.617 -0.2771 -0.5209  0.3918
   93SAPC  C314 9061  -0.367   0.324   4.506  0.6620 -0.2034 -0.3107
   93SAPC  H14X 9062  -0.421   0.228   4.516 -1.3746  0.7920 -1.3811
   93SAPC  H14Y 9063  -0.264   0.297   4.476  1.4462  1.9856  0.2602
   93SAPC  C315 9064  -0.414   0.416   4.397 -0.5554 -0.6404 -0.2532
   93SAPC  H15X 9065  -0.341   0.499   4.393 -1.9271  0.5722 -0.7639
   93SAPC  H15Y 9066  -0.506   0.469   4.430 -0.8826 -0.4442 -1.4722
   93SAPC  C316 9067  -0.422   0.347   4.261  0.7342  0.5795  0.7516
   93SAPC  H16X 9068  -0.471   0.415   4.189 -0.3569 -2.8976 -1.9466
   93SAPC  H16Y 9069  -0.486   0.256   4.270  1.5535 -0.1179 -0.3525
   93SAPC  C317 9070  -0.285   0.312   4.211  0.0463 -0.2154  0.2220
   93SAPC  H17X 9071  -0.253   0.226   4.273 -1.3023 -1.2688 -0.5163
   93SAPC  H17Y 9072  -0.219   0.400   4.231 -1.8308  1.3311 -0.2059
   93SAPC  C318 9073  -0.284   0.294   4.058 -0.3962 -0.3275  0.4597
   93SAPC  H18X 9074  -0.286   0.389   4.000  0.7044  0.0610  1.0269
   93SAPC  H18Y 9075  -0.366   0.228   4.025  0.2948 -0.2979 -1.3898
   93SAPC  H18Z 9076  -0.193   0.237   4.027 -1.3528 -2.5047  1.5357
   94SAPC     N 9077   0.084   7.091   6.485  0.5492 -0.5050 -0.0549
   94SAPC   C12 9078   0.100   7.240   6.492  0.6063  0.6212 -0.3672
   94SAPC  H12A 9079   0.079   7.267   6.594  2.3916 -2.1996  0.8244
   94SAPC  H12B 9080   0.028   7.285   6.425 -0.3520 -1.8687 -1.0504
   94SAPC   C13 9081  -0.053   7.044   6.521 -0.1918  0.1317 -0.1996
   94SAPC  H13A 9082  -0.071   7.064   6.626  1.0360 -2.7090  0.5952
   94SAPC  H13B 9083  -0.125   7.098   6.461  0.7047  1.2490 -0.3031
   94SAPC  H13C 9084  -0.057   6.937   6.509  3.5861 -0.4319  2.6243
   94SAPC   C14 9085   0.106   7.057   6.340 -0.4431  0.1429 -1.0611
   94SAPC  H14A 9086   0.035   7.103   6.273 -2.9442 -2.2081 -0.0978
   94SAPC  H14B 9087   0.197   7.107   6.311 -1.3429  0.9556 -2.5713
   94SAPC  H14C 9088   0.115   6.952   6.316  3.0826  0.0728  0.1944
   94SAPC   C15 9089   0.176   7.023   6.577  0.5514  0.1560 -0.0049
   94SAPC  H15A 9090   0.280   7.032   6.550 -0.0810 -1.0500 -2.9808
   94SAPC  H15B 9091   0.164   7.048   6.682  0.2404 -0.0530  0.0109
   94SAPC  H15C 9092   0.156   6.917   6.579  0.7411  0.1300  0.7358
   94SAPC   C11 9093   0.237   7.295   6.444 -0.5567  0.9917 -0.1016
   94SAPC  H11A 9094   0.320   7.245   6.499 -0.0741 -0.5272 -2.1605
   94SAPC  H11B 9095   0.227   7.404   6.464  1.1662  0.7736  2.2536
   94SAPC     P 9096   0.379   7.340   6.225  0.5241 -0.1030 -0.0172
   94SAPC   O13 9097   0.332   7.468   6.166 -0.1704  0.2389 -0.1716
   94SAPC   O14 9098   0.495   7.363   6.316  0.2986 -0.6858  0.0550
   94SAPC   O12 9099   0.259   7.271   6.296 -1.1941 -0.1384 -0.6644
   94SAPC   O11 9100   0.418   7.230   6.131 -0.3217 -0.4932  0.2922
   94SAPC    C1 9101   0.397   7.092   6.165 -0.1899  0.1845 -0.8895
   94SAPC    HA 9102   0.379   7.072   6.272  0.1635  2.1561 -0.4563
   94SAPC    HB 9103   0.304   7.059   6.112 -0.1845  0.1202 -0.8588
   94SAPC    C2 9104   0.505   6.994   6.103  0.0459  0.0480 -0.1596
   94SAPC    HS 9105   0.600   7.013   6.157  0.4900 -0.6751 -0.6880
   94SAPC   O21 9106   0.520   7.004   5.960 -0.1171 -0.5321 -0.3258
   94SAPC   C21 9107   0.579   7.124   5.920  0.4750 -0.0992  0.1980
   94SAPC   O22 9108   0.650   7.192   5.998  0.1925 -0.1035 -0.7818
   94SAPC   C22 9109   0.563   7.147   5.767  0.2178  0.2502  0.0881
   94SAPC   H2R 9110   0.583   7.053   5.710  3.7751  0.8060  0.2733
   94SAPC   H2S 9111   0.460   7.176   5.740 -0.2929 -0.4288  1.2652
   94SAPC    C3 9112   0.472   6.847   6.132  0.0895 -0.4761 -0.1990
   94SAPC    HX 9113   0.472   6.820   6.240 -1.9126 -0.6013 -0.2099
   94SAPC    HY 9114   0.544   6.779   6.082 -1.8813 -1.0152 -2.3504
   94SAPC   O31 9115   0.342   6.814   6.082 -0.3622  0.3286 -0.5462
   94SAPC   C31 9116   0.325   6.691   6.056  0.5104  0.6879  0.0805
   94SAPC   O32 9117   0.406   6.600   6.065  0.1155 -0.2261 -0.4196
   94SAPC   C32 9118   0.178   6.667   6.020 -0.1018 -0.1236  0.4355
   94SAPC   H2X 9119   0.126   6.751   6.070 -0.4410 -0.1133  0.0685
   94SAPC   H2Y 9120   0.143   6.570   6.061 -1.0825  0.5193  1.1326
   94SAPC   C23 9121   0.659   7.264   5.713  0.8217  0.2125 -0.3422
   94SAPC   H3R 9122   0.763   7.226   5.727  0.4669 -0.5406  0.2772
   94SAPC   H3S 9123   0.648   7.351   5.781 -0.8211 -0.3841  0.1742
   94SAPC   C24 9124   0.636   7.289   5.565  0.3424  0.3633 -0.0337
   94SAPC   H4R 9125   0.622   7.200   5.499  1.0170  1.0885 -1.1828
   94SAPC   H4S 9126   0.731   7.338   5.535  0.3386  0.6903  0.4909
   94SAPC   C25 9127   0.520   7.387   5.540  0.8755  0.1951 -0.1034
   94SAPC   H5R 9128   0.449   7.388   5.624  1.8851 -0.4684  0.7735
   94SAPC   C26 9129   0.494   7.464   5.433 -0.0404 -0.0733  0.1155
   94SAPC   H6R 9130   0.408   7.533   5.436  1.1913  1.7149 -3.2176
   94SAPC   C27 9131   0.577   7.477   5.304  0.1429 -0.3743  0.5680
   94SAPC   H7R 9132   0.684   7.481   5.334  0.0643 -3.0473  1.3991
   94SAPC   H7S 9133   0.551   7.574   5.257  0.4367 -0.0077  1.1546
   94SAPC   C28 9134   0.573   7.359   5.214  0.4668  0.3276 -0.7367
   94SAPC   H8R 9135   0.603   7.260   5.254 -2.6599 -0.8280 -1.1468
   94SAPC   C29 9136   0.541   7.370   5.083 -0.0889  0.2713  1.0653
   94SAPC   H9R 9137   0.561   7.277   5.028 -1.8143  0.0532  0.7671
   94SAPC  C210 9138   0.499   7.482   4.988 -0.3165 -0.0524  0.2297
   94SAPC  H10R 9139   0.583   7.553   4.969 -0.1071 -0.4928 -0.5116
   94SAPC  H10S 9140   0.428   7.536   5.054  0.7144  0.3437  1.0369
   94SAPC  C211 9141   0.451   7.426   4.858 -0.7472 -0.0670 -0.2762
   94SAPC  H11R 9142   0.539   7.408   4.795 -0.1540 -1.5642  0.9434
   94SAPC  C212 9143   0.324   7.396   4.818  0.2377  1.1523  0.1006
   94SAPC  H12R 9144   0.311   7.350   4.718  0.1624  0.2588  0.5202
   94SAPC  C213 9145   0.197   7.403   4.892  0.1895  0.7687 -0.7929
   94SAPC  H13R 9146   0.221   7.430   4.997  2.3240 -1.5461 -0.6364
   94SAPC  H13S 9147   0.140   7.308   4.902 -0.0270  0.9734 -0.1057
   94SAPC  C214 9148   0.128   7.516   4.808 -0.8570  0.5369 -0.2114
   94SAPC  H14R 9149   0.192   7.597   4.771 -1.3069  0.6591 -0.7285
   94SAPC  C215 9150   0.001   7.520   4.761  0.3717  0.7838 -0.0256
   94SAPC  H15R 9151  -0.042   7.612   4.719  0.6698  1.3063  0.7929
   94SAPC  C216 9152  -0.096   7.403   4.768 -0.3439 -0.0667 -0.1187
   94SAPC  H16R 9153  -0.192   7.435   4.813 -1.1535 -1.3848 -0.8709
   94SAPC  H16S 9154  -0.061   7.318   4.830  2.7514  1.7836  0.7724
   94SAPC  C217 9155  -0.116   7.337   4.631  0.3984  0.0464 -0.4695
   94SAPC  H17R 9156  -0.020   7.301   4.587  1.3124 -0.6911  2.0776
   94SAPC  H17S 9157  -0.166   7.411   4.564  1.1322  1.6519  0.7294
   94SAPC  C218 9158  -0.219   7.216   4.639 -0.5577 -0.5701 -0.5206
   94SAPC  H18R 9159  -0.295   7.264   4.704  0.9116  1.3233 -0.1481
   94SAPC  H18S 9160  -0.165   7.138   4.697 -2.3009 -0.1533  1.7160
   94SAPC  C219 9161  -0.281   7.177   4.501 -0.1236 -0.0859  0.5395
   94SAPC  H19R 9162  -0.334   7.265   4.457 -0.5450  0.3660  1.9355
   94SAPC  H19S 9163  -0.358   7.098   4.516  0.0575 -0.6308 -1.2687
   94SAPC  C220 9164  -0.178   7.129   4.400 -0.4278 -0.8053  0.3275
   94SAPC  H20R 9165  -0.110   7.056   4.449 -0.3530 -1.6699 -1.0382
   94SAPC  H20S 9166  -0.110   7.206   4.357  1.0481 -2.0518  0.3940
   94SAPC  H20T 9167  -0.225   7.091   4.307  0.2165 -0.6822 -0.0514
   94SAPC   C33 9168   0.159   6.672   5.868 -0.4013  0.1140  0.3370
   94SAPC   H3X 9169   0.199   6.761   5.815  0.0587 -0.5027 -0.3698
   94SAPC   H3Y 9170   0.050   6.694   5.860 -0.1380  1.4031  0.2071
   94SAPC   C34 9171   0.207   6.543   5.799 -0.0911  0.0325 -0.0342
   94SAPC   H4X 9172   0.209   6.458   5.870  0.7525 -0.4817 -0.6679
   94SAPC   H4Y 9173   0.313   6.556   5.766 -0.3383  1.6516 -0.2572
   94SAPC   C35 9174   0.115   6.505   5.689  0.4173 -0.1716  0.0134
   94SAPC   H5X 9175   0.013   6.501   5.733  0.4908 -0.2570  0.1774
   94SAPC   H5Y 9176   0.135   6.400   5.658  2.1676  0.2726 -0.4126
   94SAPC   C36 9177   0.113   6.584   5.562 -0.2169 -0.5373  0.3395
   94SAPC   H6X 9178   0.217   6.611   5.533  0.1690 -0.6482  1.5942
   94SAPC   H6Y 9179   0.054   6.674   5.588 -0.4612 -0.5496 -0.1601
   94SAPC   C37 9180   0.030   6.520   5.451 -0.6455 -0.1733  0.0385
   94SAPC   H7X 9181  -0.078   6.524   5.476 -0.9366 -1.0099 -1.0358
   94SAPC   H7Y 9182   0.064   6.415   5.438  2.2704  0.2938  3.0373
   94SAPC   C38 9183   0.055   6.602   5.318 -0.1534 -0.3136 -0.2959
   94SAPC   H8X 9184   0.130   6.542   5.263 -1.5712 -0.2373 -2.3633
   94SAPC   H8Y 9185   0.087   6.702   5.356  1.5256 -0.4382 -1.3372
   94SAPC   C39 9186  -0.078   6.606   5.240  0.0519 -0.3752  0.0474
   94SAPC   H9X 9187  -0.109   6.500   5.222 -1.3644  0.3374 -1.9298
   94SAPC   H9Y 9188  -0.046   6.637   5.138  0.0358  0.1149  0.1918
   94SAPC  C310 9189  -0.180   6.703   5.299  0.3248 -0.4999 -0.0363
   94SAPC  H10X 9190  -0.136   6.805   5.296  0.4850 -0.5836 -0.7040
   94SAPC  H10Y 9191  -0.217   6.671   5.399 -1.4568  0.2574 -0.4393
   94SAPC  C311 9192  -0.319   6.711   5.227 -0.7280  0.1175  0.3291
   94SAPC  H11X 9193  -0.394   6.751   5.299 -1.7024  1.0030 -1.1414
   94SAPC  H11Y 9194  -0.345   6.610   5.190  0.4589  0.4853 -1.5661
   94SAPC  C312 9195  -0.309   6.793   5.103  0.0183  0.6760  0.0361
   94SAPC  H12X 9196  -0.247   6.730   5.037  1.2973  0.4617  1.4289
   94SAPC  H12Y 9197  -0.247   6.880   5.133 -1.1712  1.3187  0.6572
   94SAPC  C313 9198  -0.446   6.834   5.051  0.1936 -0.2899 -0.2383
   94SAPC  H13X 9199  -0.503   6.908   5.111 -0.8722 -0.0159 -1.5712
   94SAPC  H13Y 9200  -0.506   6.741   5.041  1.8102 -1.5368  1.5187
   94SAPC  C314 9201  -0.425   6.891   4.911 -0.7137  0.1845 -0.1949
   94SAPC  H14X 9202  -0.515   6.868   4.850  2.0007 -3.6098 -3.0069
   94SAPC  H14Y 9203  -0.337   6.845   4.860 -0.5107  1.1505 -0.7223
   94SAPC  C315 9204  -0.408   7.048   4.889 -0.4088 -0.0852 -0.4717
   94SAPC  H15X 9205  -0.365   7.067   4.788 -0.0016  0.1635 -0.2544
   94SAPC  H15Y 9206  -0.326   7.065   4.962 -0.9764  1.1111 -0.1026
   94SAPC  C316 9207  -0.532   7.131   4.936 -0.3703 -0.5936 -0.4190
   94SAPC  H16X 9208  -0.552   7.107   5.042 -1.0964 -3.5526 -1.1825
   94SAPC  H16Y 9209  -0.624   7.103   4.881 -1.4429  0.0314  1.0285
   94SAPC  C317 9210  -0.501   7.282   4.931 -0.9953  0.4574  0.6860
   94SAPC  H17X 9211  -0.589   7.344   4.960  0.4472  2.1362  1.5941
   94SAPC  H17Y 9212  -0.466   7.307   4.829  1.5476  0.1163  1.4353
   94SAPC  C318 9213  -0.392   7.339   5.027  0.3984 -0.2302 -0.1454
   94SAPC  H18X 9214  -0.364   7.446   5.013 -0.0014 -0.0011  0.7633
   94SAPC  H18Y 9215  -0.301   7.277   5.025  0.1341 -0.6688  1.0349
   94SAPC  H18Z 9216  -0.423   7.320   5.132  0.1906 -0.0147 -0.1654
   95SAPC     N 9217   4.716   2.584   2.342  0.5210  0.3271  0.3957
   95SAPC   C12 9218   4.832   2.592   2.242  0.0178 -0.1541  0.2059
   95SAPC  H12A 9219   4.802   2.570   2.140 -0.9306 -2.0934  0.8895
   95SAPC  H12B 9220   4.898   2.509   2.262  0.9531  1.4520  4.1265
   95SAPC   C13 9221   4.753   2.637   2.471  0.1232  0.1165 -0.3764
   95SAPC  H13A 9222   4.802   2.733   2.467  0.3721  0.0887  1.4630
   95SAPC  H13B 9223   4.664   2.655   2.531 -0.6695  1.9137 -2.0425
   95SAPC  H13C 9224   4.815   2.564   2.521  1.0006  1.9163  1.2407
   95SAPC   C14 9225   4.606   2.679   2.297  0.2687 -0.3957  0.4609
   95SAPC  H14A 9226   4.535   2.697   2.377  0.6348 -1.1582  0.9653
   95SAPC  H14B 9227   4.658   2.770   2.274  1.6901 -1.4341 -0.5445
   95SAPC  H14C 9228   4.545   2.652   2.213  1.7691 -3.2927  0.2461
   95SAPC   C15 9229   4.671   2.442   2.359  0.4248  0.5207  0.1781
   95SAPC  H15A 9230   4.746   2.375   2.397  0.0274 -0.5699 -0.9154
   95SAPC  H15B 9231   4.581   2.434   2.417  0.0006  2.4126 -0.2013
   95SAPC  H15C 9232   4.643   2.413   2.259 -0.6100  1.3035  0.2389
   95SAPC   C11 9233   4.902   2.733   2.226 -0.3163  0.5155 -0.2236
   95SAPC  H11A 9234   4.825   2.801   2.185 -0.6325  0.1793 -0.1866
   95SAPC  H11B 9235   4.983   2.736   2.151 -0.6081 -2.2293 -0.7083
   95SAPC     P 9236   4.957   2.935   2.394 -0.3944 -0.3636 -0.3712
   95SAPC   O13 9237   5.013   3.027   2.288 -0.1818  0.5537 -0.8177
   95SAPC   O14 9238   4.822   2.958   2.440 -0.6052  0.2334 -0.5214
   95SAPC   O12 9239   4.961   2.786   2.350  0.2206  0.4590 -0.2111
   95SAPC   O11 9240   5.063   2.931   2.512  0.2962  0.7669 -0.0555
   95SAPC    C1 9241   5.060   2.862   2.631  0.4550 -0.3460  0.0500
   95SAPC    HA 9242   5.083   2.929   2.716  1.1044 -1.4748  0.7877
   95SAPC    HB 9243   4.957   2.828   2.653  0.6996 -1.2738 -0.2148
   95SAPC    C2 9244   5.166   2.749   2.632 -0.3614  0.6653 -0.0396
   95SAPC    HS 9245   5.128   2.676   2.557 -2.6763 -1.0532  2.7147
   95SAPC   O21 9246   5.186   2.689   2.765 -0.3602  0.3910 -0.1469
   95SAPC   C21 9247   5.084   2.614   2.796 -0.0545  0.4852 -0.1454
   95SAPC   O22 9248   4.998   2.567   2.723  0.7036 -0.0411 -0.7309
   95SAPC   C22 9249   5.079   2.606   2.952 -0.1704  0.2338  0.1940
   95SAPC   H2R 9250   5.175   2.618   3.006  0.4280  0.9344 -1.0265
   95SAPC   H2S 9251   5.013   2.686   2.993  1.4763  1.2616  0.8651
   95SAPC    C3 9252   5.308   2.805   2.587 -0.1828  0.4917  0.7336
   95SAPC    HX 9253   5.288   2.849   2.487  0.6948 -0.6497  0.0415
   95SAPC    HY 9254   5.377   2.722   2.560  0.7017  2.2787 -2.7830
   95SAPC   O31 9255   5.373   2.892   2.680 -0.1433  0.0673  0.1580
   95SAPC   C31 9256   5.366   3.020   2.664 -0.3946 -1.0328 -0.9922
   95SAPC   O32 9257   5.320   3.076   2.564 -0.6114  0.3346  0.0084
   95SAPC   C32 9258   5.425   3.098   2.782 -0.2699 -0.1209  0.2013
   95SAPC   H2X 9259   5.382   3.200   2.774 -1.2585 -0.4129  1.6265
   95SAPC   H2Y 9260   5.530   3.121   2.754 -0.3423 -0.9837 -0.8577
   95SAPC   C23 9261   5.009   2.477   3.012 -0.0573 -0.1931  0.0103
   95SAPC   H3R 9262   5.039   2.383   2.962 -0.6540 -0.6664  0.5393
   95SAPC   H3S 9263   4.902   2.486   2.984 -0.2271  0.1319  0.7504
   95SAPC   C24 9264   5.032   2.452   3.164 -0.3853  0.0513 -0.5937
   95SAPC   H4R 9265   5.140   2.430   3.183 -0.1752 -0.3085 -2.1638
   95SAPC   H4S 9266   4.983   2.361   3.204 -2.3465  1.0695 -0.6378
   95SAPC   C25 9267   4.998   2.559   3.268  0.2976 -0.4406 -0.1815
   95SAPC   H5R 9268   4.969   2.661   3.238  1.7785  0.5586  1.6453
   95SAPC   C26 9269   4.994   2.537   3.399 -0.0174 -0.4083 -0.0234
   95SAPC   H6R 9270   4.978   2.627   3.459 -0.9724  0.9402 -2.2322
   95SAPC   C27 9271   5.020   2.408   3.475  0.4779 -0.1236  0.1512
   95SAPC   H7R 9272   5.104   2.419   3.547  0.9932 -0.4618 -0.3996
   95SAPC   H7S 9273   5.050   2.322   3.411  2.9239  0.2232  0.7846
   95SAPC   C28 9274   4.887   2.367   3.540  0.5536 -0.1671 -0.4674
   95SAPC   H8R 9275   4.795   2.403   3.492 -0.3957 -3.2557 -1.0956
   95SAPC   C29 9276   4.863   2.308   3.654 -0.3407 -0.0490  1.2104
   95SAPC   H9R 9277   4.758   2.294   3.687 -0.0013  0.4356  2.5639
   95SAPC  C210 9278   4.976   2.265   3.748 -0.1614  0.0649  0.1192
   95SAPC  H10R 9279   4.967   2.326   3.841  0.3832 -0.5186  0.5562
   95SAPC  H10S 9280   5.075   2.297   3.709 -0.3596 -0.8384 -1.1336
   95SAPC  C211 9281   4.967   2.128   3.799 -0.8027  0.3746 -0.4918
   95SAPC  H11R 9282   4.961   2.054   3.718 -1.2440 -0.4426  0.2790
   95SAPC  C212 9283   4.949   2.082   3.930  0.2403 -0.9413 -0.2234
   95SAPC  H12R 9284   4.934   1.975   3.950 -2.9547 -0.3659  0.8118
   95SAPC  C213 9285   4.931   2.170   4.056  0.2136  0.2874  0.7735
   95SAPC  H13R 9286   4.944   2.278   4.034 -1.1798  0.0156 -1.6669
   95SAPC  H13S 9287   5.019   2.152   4.121  0.9367 -0.4917 -0.3870
   95SAPC  C214 9288   4.804   2.157   4.132 -0.1668 -0.4607  0.7097
   95SAPC  H14R 9289   4.741   2.246   4.121  2.6403  1.4967  0.0004
   95SAPC  C215 9290   4.764   2.062   4.222 -0.6233 -0.0415 -0.1002
   95SAPC  H15R 9291   4.662   2.077   4.262 -0.9294 -3.3064  0.4879
   95SAPC  C216 9292   4.842   1.934   4.269 -0.7760 -0.4259  0.2766
   95SAPC  H16R 9293   4.824   1.925   4.378 -0.2987 -2.4810  0.1926
   95SAPC  H16S 9294   4.949   1.947   4.243 -0.8736 -0.1329  0.0154
   95SAPC  C217 9295   4.791   1.805   4.201 -0.1424  0.8478 -0.2540
   95SAPC  H17R 9296   4.830   1.805   4.097  0.0226  0.5221 -0.1917
   95SAPC  H17S 9297   4.681   1.804   4.216 -0.1970 -1.9418 -0.6279
   95SAPC  C218 9298   4.853   1.685   4.274 -0.0028  0.6655 -0.0012
   95SAPC  H18R 9299   4.821   1.589   4.229 -0.4570  1.2821 -1.0292
   95SAPC  H18S 9300   4.815   1.690   4.379  2.0771 -2.6769  0.9664
   95SAPC  C219 9301   5.007   1.696   4.279  0.4226  0.1287 -0.1974
   95SAPC  H19R 9302   5.042   1.781   4.217  0.7473 -0.2400 -0.5199
   95SAPC  H19S 9303   5.059   1.606   4.241 -0.3512 -0.0700 -0.8130
   95SAPC  C220 9304   5.057   1.711   4.422  0.0354 -0.5895 -0.4821
   95SAPC  H20R 9305   5.035   1.815   4.451 -0.9360 -0.1221 -2.7889
   95SAPC  H20S 9306   5.166   1.689   4.425  0.4125  1.2757 -0.1153
   95SAPC  H20T 9307   5.000   1.640   4.486 -0.2920 -0.8779 -1.0819
   95SAPC   C33 9308   5.396   3.046   2.921  0.4530  0.1452  0.0464
   95SAPC   H3X 9309   5.463   3.094   2.996 -1.8278  1.4007  1.3323
   95SAPC   H3Y 9310   5.430   2.940   2.914  1.1329  0.4371 -1.1410
   95SAPC   C34 9311   5.247   3.059   2.957  0.2948  0.4408 -0.6659
   95SAPC   H4X 9312   5.188   3.048   2.863  0.1598 -0.3239 -0.4978
   95SAPC   H4Y 9313   5.232   3.164   2.988  2.1115  0.9665 -1.5162
   95SAPC   C35 9314   5.198   2.958   3.053  0.2419 -0.8891  0.2458
   95SAPC   H5X 9315   5.229   2.868   2.996 -0.0422 -0.9633  0.2051
   95SAPC   H5Y 9316   5.087   2.954   3.061  0.1007  0.7545 -0.7224
   95SAPC   C36 9317   5.259   2.965   3.194  0.3653  0.1673  0.5551
   95SAPC   H6X 9318   5.257   3.073   3.222 -0.1271  0.3945 -0.3550
   95SAPC   H6Y 9319   5.366   2.935   3.187  0.1368 -0.1800 -1.7406
   95SAPC   C37 9320   5.172   2.897   3.310  0.6053 -0.1108  0.7129
   95SAPC   H7X 9321   5.171   2.787   3.303 -0.9951 -0.0911  0.4347
   95SAPC   H7Y 9322   5.070   2.939   3.294 -0.1552 -2.6307 -1.4140
   95SAPC   C38 9323   5.214   2.939   3.455 -0.3697 -0.2042  0.6795
   95SAPC   H8X 9324   5.214   3.050   3.462  0.2096 -0.0998 -0.8886
   95SAPC   H8Y 9325   5.318   2.913   3.482 -0.1098 -1.3555 -1.3203
   95SAPC   C39 9326   5.104   2.890   3.556  0.3163 -0.3516 -0.4590
   95SAPC   H9X 9327   5.076   2.784   3.537 -1.9051  0.3300 -1.1964
   95SAPC   H9Y 9328   5.018   2.953   3.524  1.5078  0.4533 -2.1990
   95SAPC  C310 9329   5.148   2.914   3.698 -0.3999  0.0336  0.7286
   95SAPC  H10X 9330   5.203   2.823   3.731 -2.3287 -0.4446  2.7721
   95SAPC  H10Y 9331   5.056   2.931   3.758 -1.0214 -0.8073  0.0263
   95SAPC  C311 9332   5.228   3.043   3.722 -0.1279  0.0389  0.3473
   95SAPC  H11X 9333   5.168   3.128   3.684 -1.1450 -1.5266 -1.5992
   95SAPC  H11Y 9334   5.325   3.030   3.668 -0.5562 -2.6838  0.1609
   95SAPC  C312 9335   5.257   3.074   3.868  0.2229 -0.6036  0.0621
   95SAPC  H12X 9336   5.319   2.994   3.916  1.1981 -0.3024 -0.6759
   95SAPC  H12Y 9337   5.158   3.061   3.916  0.4392  0.9246  0.9489
   95SAPC  C313 9338   5.305   3.216   3.890  0.2246  0.5707 -0.1234
   95SAPC  H13X 9339   5.254   3.288   3.822 -0.4422 -0.0253 -0.2611
   95SAPC  H13Y 9340   5.412   3.224   3.860 -0.2434  0.7575 -1.8380
   95SAPC  C314 9341   5.284   3.258   4.036 -0.3381 -0.2887  0.6315
   95SAPC  H14X 9342   5.355   3.340   4.063 -1.0467  1.2384 -1.9861
   95SAPC  H14Y 9343   5.311   3.180   4.111  0.1515 -1.7842 -1.0731
   95SAPC  C315 9344   5.143   3.304   4.070 -0.5984  0.3431 -0.3091
   95SAPC  H15X 9345   5.068   3.227   4.044  0.1292 -1.2477  2.1303
   95SAPC  H15Y 9346   5.103   3.387   4.007  0.0824  0.7469 -0.2109
   95SAPC  C316 9347   5.129   3.359   4.216 -0.1019  0.5877  0.5549
   95SAPC  H16X 9348   5.027   3.400   4.233 -0.3016 -0.0113  0.7860
   95SAPC  H16Y 9349   5.204   3.440   4.232  2.3691 -1.8290  1.7292
   95SAPC  C317 9350   5.170   3.252   4.315  0.2539  0.0160  0.3180
   95SAPC  H17X 9351   5.160   3.287   4.420  1.1036  0.7023  0.1807
   95SAPC  H17Y 9352   5.274   3.213   4.316 -0.5751 -2.2710 -0.6281
   95SAPC  C318 9353   5.067   3.133   4.315 -0.7998  0.5692  0.0739
   95SAPC  H18X 9354   5.048   3.087   4.216 -1.5782 -0.8516  0.8645
   95SAPC  H18Y 9355   4.965   3.166   4.345 -0.9048  0.0059  0.3365
   95SAPC  H18Z 9356   5.107   3.061   4.389 -0.5475  0.0482 -0.5631
   96SAPC     N 9357   4.483   2.019   2.145 -0.8612  0.2525  0.6112
   96SAPC   C12 9358   4.490   2.169   2.155 -0.5034 -0.3105 -0.8266
   96SAPC  H12A 9359   4.485   2.210   2.055 -0.5088 -1.7564 -1.4233
   96SAPC  H12B 9360   4.591   2.196   2.185 -0.5444  0.5786 -1.4767
   96SAPC   C13 9361   4.334   1.995   2.100  0.5172  0.6277 -0.8109
   96SAPC  H13A 9362   4.311   2.042   2.005  2.3626  1.5662 -0.8066
   96SAPC  H13B 9363   4.308   1.890   2.099  3.0924 -0.0303 -0.9501
   96SAPC  H13C 9364   4.277   2.056   2.168  1.2471 -0.3771  0.7246
   96SAPC   C14 9365   4.560   1.962   2.038 -0.6032 -0.5251  0.3635
   96SAPC  H14A 9366   4.558   1.854   2.036 -0.1362 -0.5221 -0.4476
   96SAPC  H14B 9367   4.536   2.007   1.943  1.1878 -1.8262 -0.7438
   96SAPC  H14C 9368   4.664   1.990   2.042 -0.1575 -2.2082  1.1713
   96SAPC   C15 9369   4.513   1.949   2.274 -0.6739  0.5802  0.7304
   96SAPC  H15A 9370   4.459   1.990   2.358  1.5042  1.5079  1.7277
   96SAPC  H15B 9371   4.487   1.844   2.270  0.5546  0.3074 -0.9029
   96SAPC  H15C 9372   4.615   1.944   2.309 -0.7697  1.6066  1.1770
   96SAPC   C11 9373   4.387   2.237   2.252  0.7688  0.2828  0.2978
   96SAPC  H11A 9374   4.411   2.217   2.359 -2.1167  0.0977  0.9615
   96SAPC  H11B 9375   4.277   2.217   2.246  1.2027 -1.9195 -0.7108
   96SAPC     P 9376   4.341   2.459   2.106  0.1137  0.3471 -0.0349
   96SAPC   O13 9377   4.442   2.559   2.069  1.0307 -0.5246 -0.3729
   96SAPC   O14 9378   4.293   2.370   2.000 -0.5259 -0.1389 -0.4474
   96SAPC   O12 9379   4.404   2.374   2.224 -0.3001  1.0140 -0.3558
   96SAPC   O11 9380   4.214   2.531   2.170  0.5242  0.0787  0.6178
   96SAPC    C1 9381   4.121   2.469   2.258 -0.6181 -0.0838  0.1119
   96SAPC    HA 9382   4.071   2.384   2.207 -0.8296 -0.6391  1.2176
   96SAPC    HB 9383   4.171   2.431   2.349 -0.5941  0.7749  0.4629
   96SAPC    C2 9384   4.004   2.560   2.305  0.9396  0.3396  0.0797
   96SAPC    HS 9385   3.966   2.619   2.219 -1.6223 -0.9043  0.3124
   96SAPC   O21 9386   4.055   2.641   2.423 -0.6018  0.2320  0.3918
   96SAPC   C21 9387   4.065   2.769   2.403 -0.4635  0.2164  0.0141
   96SAPC   O22 9388   4.039   2.828   2.301 -0.4994 -0.2753  0.0255
   96SAPC   C22 9389   4.091   2.839   2.529 -0.1866  0.0524 -0.0799
   96SAPC   H2R 9390   4.131   2.941   2.511  1.2350 -0.4701  0.0800
   96SAPC   H2S 9391   3.999   2.839   2.591  0.5143 -3.0197  1.0621
   96SAPC    C3 9392   3.882   2.484   2.356 -0.9846 -0.1390  0.1020
   96SAPC    HX 9393   3.827   2.438   2.271  1.3241 -1.8669 -0.5097
   96SAPC    HY 9394   3.810   2.554   2.405 -1.2400 -1.9406  2.3450
   96SAPC   O31 9395   3.929   2.384   2.446  0.0835 -0.0085  0.3422
   96SAPC   C31 9396   3.835   2.309   2.495  0.3797 -0.7290  0.6093
   96SAPC   O32 9397   3.713   2.333   2.481  0.1302 -0.3950 -0.2095
   96SAPC   C32 9398   3.893   2.180   2.559  0.3310 -0.0144  0.5301
   96SAPC   H2X 9399   3.861   2.093   2.499 -0.4940 -0.0380  0.9865
   96SAPC   H2Y 9400   3.860   2.174   2.665 -0.2773  0.9176  0.4097
   96SAPC   C23 9401   4.189   2.751   2.610 -0.7808  0.2237  0.3660
   96SAPC   H3R 9402   4.158   2.647   2.638  0.4785 -0.4086 -0.5347
   96SAPC   H3S 9403   4.198   2.802   2.708 -2.1281 -0.8747  1.0812
   96SAPC   C24 9404   4.333   2.729   2.564  0.3392 -0.3778 -0.2545
   96SAPC   H4R 9405   4.330   2.665   2.473 -1.1432 -0.1821 -0.3477
   96SAPC   H4S 9406   4.387   2.667   2.638 -0.1715 -0.9048 -0.3198
   96SAPC   C25 9407   4.405   2.860   2.535  0.0312 -0.7781 -0.2059
   96SAPC   H5R 9408   4.367   2.907   2.444  1.1320 -0.6028 -0.5796
   96SAPC   C26 9409   4.499   2.918   2.613  1.0267  0.5567  0.1692
   96SAPC   H6R 9410   4.555   3.006   2.577  0.1156  1.6774  1.4591
   96SAPC   C27 9411   4.552   2.868   2.751  0.4818 -0.3193 -0.2807
   96SAPC   H7R 9412   4.544   2.757   2.753 -0.1358 -0.2651  1.1357
   96SAPC   H7S 9413   4.496   2.905   2.839  0.7452  1.3949 -0.8308
   96SAPC   C28 9414   4.699   2.898   2.760 -0.0613  0.5464  0.1464
   96SAPC   H8R 9415   4.746   2.939   2.669 -0.8922 -0.2297 -0.6365
   96SAPC   C29 9416   4.763   2.867   2.875 -0.1450  0.1781 -0.3149
   96SAPC   H9R 9417   4.872   2.864   2.860 -0.0105 -0.4923  0.7647
   96SAPC  C210 9418   4.708   2.802   3.002 -0.0818 -0.1371  0.0518
   96SAPC  H10R 9419   4.727   2.693   2.998  1.3852  0.1403 -1.0448
   96SAPC  H10S 9420   4.598   2.814   3.010 -0.0175  0.4134  0.1852
   96SAPC  C211 9421   4.773   2.869   3.123  0.0552 -0.1566  0.3443
   96SAPC  H11R 9422   4.880   2.898   3.119 -0.3371  1.1660 -1.5669
   96SAPC  C212 9423   4.713   2.871   3.247  0.2850 -0.6294 -0.4208
   96SAPC  H12R 9424   4.762   2.916   3.335  1.1379 -2.2333 -0.0689
   96SAPC  C213 9425   4.580   2.816   3.290 -0.1196 -0.2499 -0.2181
   96SAPC  H13R 9426   4.512   2.797   3.204 -1.4742  1.0232  0.5535
   96SAPC  H13S 9427   4.517   2.881   3.354  0.6263 -0.0730  0.3417
   96SAPC  C214 9428   4.591   2.679   3.342 -0.2945 -1.0037  0.1556
   96SAPC  H14R 9429   4.687   2.628   3.326  0.5062  0.9744 -1.4562
   96SAPC  C215 9430   4.489   2.600   3.391 -0.8019 -0.2928  0.2520
   96SAPC  H15R 9431   4.513   2.496   3.416 -2.1958 -0.0233  2.9210
   96SAPC  C216 9432   4.342   2.642   3.405 -0.3199 -0.2276 -0.0480
   96SAPC  H16R 9433   4.327   2.749   3.379  0.4725  0.2751  1.5084
   96SAPC  H16S 9434   4.294   2.615   3.502 -3.9888 -1.1107 -2.0008
   96SAPC  C217 9435   4.258   2.555   3.309 -0.7316 -0.4170  0.0590
   96SAPC  H17R 9436   4.150   2.578   3.309 -0.4396  1.0595 -1.2057
   96SAPC  H17S 9437   4.250   2.450   3.343  0.5906 -0.9191 -1.1693
   96SAPC  C218 9438   4.302   2.562   3.159 -0.7545  0.4486 -0.4600
   96SAPC  H18R 9439   4.386   2.490   3.148  0.0114  0.9245  2.0580
   96SAPC  H18S 9440   4.336   2.663   3.128  0.1461  1.1482  2.6201
   96SAPC  C219 9441   4.187   2.519   3.071 -0.2208  0.1867 -0.1224
   96SAPC  H19R 9442   4.099   2.582   3.097  1.3645  1.8063  1.4843
   96SAPC  H19S 9443   4.164   2.412   3.091  0.1146  0.4776  1.9213
   96SAPC  C220 9444   4.224   2.552   2.923 -0.3727 -0.4336 -0.3830
   96SAPC  H20R 9445   4.212   2.661   2.908 -0.0155 -0.1374  1.4210
   96SAPC  H20S 9446   4.155   2.495   2.856 -1.1632 -0.5343  0.5125
   96SAPC  H20T 9447   4.327   2.513   2.907  1.4951  2.3318  4.0906
   96SAPC   C33 9448   4.049   2.200   2.566  0.3533  0.4969  0.2012
   96SAPC   H3X 9449   4.099   2.204   2.467 -2.1600 -3.1200 -1.3063
   96SAPC   H3Y 9450   4.091   2.102   2.599  1.0824 -0.1718 -2.6101
   96SAPC   C34 9451   4.099   2.300   2.661 -0.0411 -0.0947  0.1778
   96SAPC   H4X 9452   4.045   2.289   2.758  0.7333  0.2690  0.6504
   96SAPC   H4Y 9453   4.077   2.405   2.629 -1.6820 -0.7751 -0.9841
   96SAPC   C35 9454   4.249   2.271   2.685 -0.6439 -0.5309  0.6007
   96SAPC   H5X 9455   4.279   2.180   2.628  2.9668  0.0467  1.4659
   96SAPC   H5Y 9456   4.254   2.245   2.793  0.6027  0.2188  0.7341
   96SAPC   C36 9457   4.340   2.381   2.647 -0.5869 -0.0720 -0.6896
   96SAPC   H6X 9458   4.333   2.475   2.705  1.9472 -0.5257  0.4011
   96SAPC   H6Y 9459   4.326   2.422   2.544 -1.3330 -0.1312 -0.6124
   96SAPC   C37 9460   4.491   2.352   2.659  0.0697 -0.4895  0.7391
   96SAPC   H7X 9461   4.547   2.447   2.642 -1.2095  0.0054 -1.0006
   96SAPC   H7Y 9462   4.515   2.297   2.566 -2.5241  2.9862 -2.1512
   96SAPC   C38 9463   4.521   2.285   2.792 -0.3169 -1.0940 -0.2948
   96SAPC   H8X 9464   4.517   2.177   2.766  5.2965 -0.8485 -2.9958
   96SAPC   H8Y 9465   4.454   2.304   2.878  1.6245  1.8375  0.6459
   96SAPC   C39 9466   4.669   2.316   2.836  0.7683  0.2855  0.1563
   96SAPC   H9X 9467   4.669   2.423   2.866 -1.1329  0.2734  0.2640
   96SAPC   H9Y 9468   4.737   2.319   2.748  1.6448 -0.2625  0.8134
   96SAPC  C310 9469   4.717   2.226   2.951 -0.2380 -0.1068  0.9291
   96SAPC  H10X 9470   4.824   2.252   2.963 -0.3835  0.0770  1.8610
   96SAPC  H10Y 9471   4.702   2.119   2.923 -1.6086 -0.1871  1.8951
   96SAPC  C311 9472   4.657   2.249   3.089 -0.3644  0.0276 -0.3749
   96SAPC  H11X 9473   4.546   2.245   3.089 -0.3344 -0.7826 -0.1904
   96SAPC  H11Y 9474   4.682   2.354   3.117 -1.2897  0.2590 -0.4047
   96SAPC  C312 9475   4.717   2.149   3.193  0.3388  0.8582 -0.3605
   96SAPC  H12X 9476   4.827   2.164   3.205  0.2951  1.2679 -0.4643
   96SAPC  H12Y 9477   4.708   2.042   3.164 -0.1386  0.6075  0.7218
   96SAPC  C313 9478   4.649   2.166   3.327  0.5681 -0.1274  0.1055
   96SAPC  H13X 9479   4.539   2.174   3.317  0.7547  2.4607 -0.3581
   96SAPC  H13Y 9480   4.693   2.257   3.374 -0.3382  0.2239  0.2785
   96SAPC  C314 9481   4.668   2.053   3.426  0.5819  0.1345  0.3564
   96SAPC  H14X 9482   4.766   2.042   3.477 -0.6146  0.3311  2.7498
   96SAPC  H14Y 9483   4.657   1.951   3.384 -0.0378  0.1874  0.3880
   96SAPC  C315 9484   4.571   2.076   3.548 -0.2581  0.2794  0.2653
   96SAPC  H15X 9485   4.465   2.068   3.517 -0.0106  2.3523 -1.2238
   96SAPC  H15Y 9486   4.588   2.181   3.581 -0.2525  1.0875 -2.2516
   96SAPC  C316 9487   4.607   1.982   3.663  0.4519 -0.9901  0.1403
   96SAPC  H16X 9488   4.714   2.003   3.684 -0.0321  4.1793 -1.8733
   96SAPC  H16Y 9489   4.580   1.878   3.634 -0.2191 -1.2571  1.6683
   96SAPC  C317 9490   4.524   2.006   3.786  0.4718  0.0585  0.6048
   96SAPC  H17X 9491   4.420   1.985   3.755  0.2812 -2.6140  2.7621
   96SAPC  H17Y 9492   4.534   2.112   3.815 -1.4385  0.0282  1.4660
   96SAPC  C318 9493   4.559   1.904   3.893 -0.6339 -0.2405 -0.6446
   96SAPC  H18X 9494   4.490   1.905   3.980  0.7625 -0.6413  0.4844
   96SAPC  H18Y 9495   4.663   1.926   3.926 -0.7299  0.2025 -0.6346
   96SAPC  H18Z 9496   4.558   1.800   3.854  0.7940 -0.4069 -0.2704
   97SAPC     N 9497   2.453   2.092   2.536  0.4907 -0.9964  0.5021
   97SAPC   C12 9498   2.304   2.066   2.506  0.0093 -0.4822 -0.1971
   97SAPC  H12A 9499   2.277   2.121   2.417  2.7151  3.3604  1.2210
   97SAPC  H12B 9500   2.243   2.103   2.587  0.3042  0.6209 -0.4716
   97SAPC   C13 9501   2.473   2.241   2.563 -0.6462  0.7001  0.1394
   97SAPC  H13A 9502   2.401   2.273   2.636  1.1463  2.3925  1.2128
   97SAPC  H13B 9503   2.576   2.264   2.586 -0.2776  0.3266 -1.0822
   97SAPC  H13C 9504   2.443   2.302   2.479  0.2139  0.0271 -0.6776
   97SAPC   C14 9505   2.500   2.029   2.661  0.5808  0.1121 -0.0172
   97SAPC  H14A 9506   2.606   2.043   2.672  0.2355  1.4016  2.0487
   97SAPC  H14B 9507   2.457   2.063   2.754 -0.8530 -0.4739 -0.4566
   97SAPC  H14C 9508   2.489   1.922   2.659 -0.3036  0.1878  0.5025
   97SAPC   C15 9509   2.530   2.027   2.423  0.2250  0.6997  0.2320
   97SAPC  H15A 9510   2.508   1.925   2.397  1.9625  0.3721 -0.0399
   97SAPC  H15B 9511   2.521   2.078   2.329  1.6209  0.6011  0.0307
   97SAPC  H15C 9512   2.633   2.030   2.457  0.3317  0.5488 -0.0803
   97SAPC   C11 9513   2.261   1.918   2.487  0.6358 -0.9277 -0.6023
   97SAPC  H11A 9514   2.151   1.918   2.503  0.4254  0.9142 -1.8878
   97SAPC  H11B 9515   2.294   1.861   2.576 -4.1424 -1.8608  0.7209
   97SAPC     P 9516   2.257   1.706   2.342 -0.2788 -0.1558 -0.2050
   97SAPC   O13 9517   2.111   1.699   2.321  0.0868  0.3058 -0.0942
   97SAPC   O14 9518   2.349   1.651   2.238  0.1995 -0.5998 -0.3012
   97SAPC   O12 9519   2.301   1.855   2.368 -0.2219 -0.4235 -0.1784
   97SAPC   O11 9520   2.294   1.630   2.482  0.0967  1.4907 -0.1121
   97SAPC    C1 9521   2.227   1.509   2.525  0.5869 -0.3941  0.1729
   97SAPC    HA 9522   2.180   1.454   2.442 -0.8221  2.5860 -1.0806
   97SAPC    HB 9523   2.302   1.440   2.569  0.3965  0.1810  1.4318
   97SAPC    C2 9524   2.120   1.543   2.642  0.1238  0.1273 -0.5709
   97SAPC    HS 9525   2.028   1.589   2.599  1.0686  2.6233 -0.0149
   97SAPC   O21 9526   2.174   1.651   2.725  0.4244 -0.7002 -0.0231
   97SAPC   C21 9527   2.091   1.706   2.817  0.3868 -0.2254 -0.4899
   97SAPC   O22 9528   1.978   1.669   2.837  0.1867 -0.2482  0.0191
   97SAPC   C22 9529   2.172   1.820   2.890 -0.0549  0.6140  0.4372
   97SAPC   H2R 9530   2.251   1.763   2.943  0.0835  0.0548 -0.3606
   97SAPC   H2S 9531   2.228   1.883   2.818  1.4512 -0.1659  0.9113
   97SAPC    C3 9532   2.077   1.419   2.728 -0.0219  0.0152  0.3026
   97SAPC    HX 9533   2.047   1.332   2.666  0.2135  0.5884 -0.6259
   97SAPC    HY 9534   1.981   1.447   2.778 -0.4873 -0.7307 -0.1612
   97SAPC   O31 9535   2.177   1.378   2.824 -0.0809  0.0176  0.5215
   97SAPC   C31 9536   2.247   1.266   2.787 -0.0307  0.0182 -0.2592
   97SAPC   O32 9537   2.251   1.210   2.681 -0.0245  0.7474  0.1719
   97SAPC   C32 9538   2.313   1.212   2.915 -0.4146 -0.2455 -0.0576
   97SAPC   H2X 9539   2.230   1.193   2.987  0.3930  2.6176  1.7188
   97SAPC   H2Y 9540   2.371   1.296   2.958 -0.4061 -1.2592  1.9858
   97SAPC   C23 9541   2.087   1.890   2.993  0.5759  0.5640  0.8125
   97SAPC   H3R 9542   2.025   1.815   3.047 -1.0861  0.6433 -0.9284
   97SAPC   H3S 9543   2.010   1.950   2.939  1.3095 -0.5205 -1.5399
   97SAPC   C24 9544   2.174   1.983   3.078  1.1938  0.0505  0.5083
   97SAPC   H4R 9545   2.232   1.908   3.135  0.3743 -2.5127 -1.9130
   97SAPC   H4S 9546   2.108   2.034   3.152 -0.1687  2.0043 -1.9784
   97SAPC   C25 9547   2.263   2.081   3.006 -0.0723 -0.5231 -0.3361
   97SAPC   H5R 9548   2.205   2.165   2.963  1.1068  1.6896  2.2678
   97SAPC   C26 9549   2.395   2.090   3.006  0.2641 -0.1484 -0.1945
   97SAPC   H6R 9550   2.437   2.168   2.941  0.6382  0.5497  0.8711
   97SAPC   C27 9551   2.504   2.010   3.077 -0.5730  0.1366 -0.8121
   97SAPC   H7R 9552   2.541   1.937   3.002 -3.7923  0.9104 -3.2565
   97SAPC   H7S 9553   2.466   1.943   3.158  0.7598  2.3289  1.7187
   97SAPC   C28 9554   2.620   2.095   3.129 -0.7487 -0.1661  0.0772
   97SAPC   H8R 9555   2.694   2.122   3.052 -0.4691 -1.1555 -0.0156
   97SAPC   C29 9556   2.654   2.109   3.260 -0.0371 -0.3775 -0.4236
   97SAPC   H9R 9557   2.751   2.157   3.282 -0.4903  0.1187  0.5689
   97SAPC  C210 9558   2.586   2.048   3.380 -0.3327  0.1678 -0.0344
   97SAPC  H10R 9559   2.631   2.047   3.481  0.0061 -3.4995 -0.1757
   97SAPC  H10S 9560   2.562   1.943   3.353  0.0669 -0.1363  0.7869
   97SAPC  C211 9561   2.454   2.121   3.400  0.0663 -0.0094 -0.1704
   97SAPC  H11R 9562   2.416   2.176   3.312 -0.5522 -0.4164 -0.1609
   97SAPC  C212 9563   2.383   2.128   3.514 -0.1296 -0.4192  0.5843
   97SAPC  H12R 9564   2.299   2.199   3.523  0.8504  0.6397  1.6496
   97SAPC  C213 9565   2.410   2.066   3.646  0.2570  0.6555 -0.3877
   97SAPC  H13R 9566   2.495   1.996   3.636  0.8853  0.8486  2.8841
   97SAPC  H13S 9567   2.330   2.014   3.704  1.6239  0.3651  1.2940
   97SAPC  C214 9568   2.473   2.171   3.744 -0.1240  0.2885  0.3978
   97SAPC  H14R 9569   2.488   2.271   3.699 -0.2917  0.1466  0.0202
   97SAPC  C215 9570   2.506   2.149   3.876 -0.3350  0.2913  0.4115
   97SAPC  H15R 9571   2.542   2.237   3.931  0.4379 -0.8732  1.8055
   97SAPC  C216 9572   2.485   2.021   3.954  0.2703  0.0260 -0.0492
   97SAPC  H16R 9573   2.533   1.934   3.903 -0.9532  0.2483 -1.6022
   97SAPC  H16S 9574   2.376   1.998   3.949  0.5587 -0.8735 -2.6148
   97SAPC  C217 9575   2.533   2.034   4.106  0.4271  0.4026 -0.5470
   97SAPC  H17R 9576   2.514   1.932   4.146  0.3897  0.2746 -0.8954
   97SAPC  H17S 9577   2.481   2.119   4.155  2.5655  1.2444  0.3518
   97SAPC  C218 9578   2.685   2.057   4.123 -0.0168 -1.0135 -0.0554
   97SAPC  H18R 9579   2.723   2.141   4.062 -1.5796 -0.5491 -0.4232
   97SAPC  H18S 9580   2.743   1.970   4.087  0.8194 -0.4889  0.0134
   97SAPC  C219 9581   2.706   2.101   4.274 -0.1486 -0.3820 -0.0428
   97SAPC  H19R 9582   2.645   2.034   4.338 -2.1213 -1.8384 -3.2866
   97SAPC  H19S 9583   2.660   2.202   4.276  0.2633 -0.1555 -1.5709
   97SAPC  C220 9584   2.858   2.101   4.310  0.3515  0.1000  0.4828
   97SAPC  H20R 9585   2.876   2.123   4.417 -2.2611 -1.7065  1.3457
   97SAPC  H20S 9586   2.912   2.168   4.240 -0.6721  1.7052  1.1971
   97SAPC  H20T 9587   2.898   1.999   4.295  1.9955  0.9475 -1.1344
   97SAPC   C33 9588   2.384   1.081   2.904  0.1799  0.8017 -1.2279
   97SAPC   H3X 9589   2.490   1.096   2.875  0.7850  0.7838  0.8947
   97SAPC   H3Y 9590   2.338   1.013   2.829  0.4681 -1.2017  0.3563
   97SAPC   C34 9591   2.385   1.015   3.047 -0.8852 -0.7613  0.2828
   97SAPC   H4X 9592   2.421   0.911   3.028 -0.1054 -0.7962  1.8879
   97SAPC   H4Y 9593   2.280   1.008   3.083 -1.0157 -0.5511 -0.0510
   97SAPC   C35 9594   2.470   1.083   3.148 -0.2980 -0.3077 -0.0187
   97SAPC   H5X 9595   2.461   1.194   3.148  3.9388  0.1196  1.1084
   97SAPC   H5Y 9596   2.579   1.079   3.124 -0.3793  0.6884 -0.5761
   97SAPC   C36 9597   2.454   1.015   3.284 -0.3825  0.3291  0.2746
   97SAPC   H6X 9598   2.497   0.913   3.286 -4.0950 -1.3612 -1.3267
   97SAPC   H6Y 9599   2.345   0.997   3.303 -0.4480  0.9575  0.5116
   97SAPC   C37 9600   2.516   1.082   3.403  0.2841  0.9807  0.1839
   97SAPC   H7X 9601   2.516   1.192   3.393  1.3797  0.9945  0.1954
   97SAPC   H7Y 9602   2.621   1.045   3.413 -0.2341 -1.6374 -3.3224
   97SAPC   C38 9603   2.450   1.048   3.533 -0.5318 -0.4013  0.1280
   97SAPC   H8X 9604   2.407   0.949   3.557 -0.5905 -0.7932 -1.5795
   97SAPC   H8Y 9605   2.356   1.108   3.529 -0.1721  0.1965  0.4859
   97SAPC   C39 9606   2.526   1.104   3.655  0.1780 -0.1019  0.2952
   97SAPC   H9X 9607   2.583   1.018   3.695  0.6201 -0.5621 -1.3099
   97SAPC   H9Y 9608   2.454   1.131   3.736  1.6208  0.8305  1.2946
   97SAPC  C310 9609   2.622   1.226   3.645 -0.2323  0.4468 -0.2626
   97SAPC  H10X 9610   2.558   1.307   3.606 -1.3809 -0.2981  0.0293
   97SAPC  H10Y 9611   2.705   1.209   3.573  0.6812 -0.2167  0.9093
   97SAPC  C311 9612   2.684   1.271   3.784  0.1670 -0.4912 -0.0899
   97SAPC  H11X 9613   2.747   1.189   3.825 -0.4868 -1.5347 -1.1438
   97SAPC  H11Y 9614   2.604   1.294   3.858 -1.8425  0.8759 -2.5971
   97SAPC  C312 9615   2.769   1.397   3.760  0.0180  0.2777 -0.5794
   97SAPC  H12X 9616   2.860   1.378   3.698  0.5039  0.3205  0.1087
   97SAPC  H12Y 9617   2.801   1.425   3.863  1.2360  0.2576 -0.9409
   97SAPC  C313 9618   2.698   1.519   3.715  0.6944 -0.4164  0.5580
   97SAPC  H13X 9619   2.604   1.521   3.775  1.0434  1.5973  1.0947
   97SAPC  H13Y 9620   2.674   1.521   3.607  1.4010  2.7838  0.3919
   97SAPC  C314 9621   2.781   1.648   3.746  0.0423  0.5939  0.1710
   97SAPC  H14X 9622   2.858   1.647   3.666 -0.1542 -0.8567 -0.0064
   97SAPC  H14Y 9623   2.833   1.657   3.843 -0.2753  0.6063  0.3407
   97SAPC  C315 9624   2.703   1.776   3.698 -0.1390 -0.7122  0.4244
   97SAPC  H15X 9625   2.602   1.779   3.745  0.2547 -2.5969  1.4669
   97SAPC  H15Y 9626   2.700   1.767   3.588  0.4300  0.2145  0.3322
   97SAPC  C316 9627   2.771   1.914   3.725 -0.5412 -0.3269  0.1892
   97SAPC  H16X 9628   2.795   1.933   3.832  2.2959  0.0495 -0.4538
   97SAPC  H16Y 9629   2.701   1.998   3.704 -0.6177 -0.6410 -0.7983
   97SAPC  C317 9630   2.909   1.932   3.651  0.2441 -0.2093 -0.9354
   97SAPC  H17X 9631   2.956   1.834   3.676 -0.9537 -0.0262  2.3926
   97SAPC  H17Y 9632   2.974   2.009   3.697  0.6499 -0.4689 -1.0742
   97SAPC  C318 9633   2.907   1.951   3.499  1.0274 -0.7119 -0.8268
   97SAPC  H18X 9634   2.845   1.881   3.439 -1.2147 -0.1244  0.7779
   97SAPC  H18Y 9635   3.013   1.936   3.468  1.8499 -1.1750  2.0478
   97SAPC  H18Z 9636   2.884   2.057   3.474 -0.6275 -1.5802 -3.2342
   98SAPC     N 9637   0.242   2.684   2.188 -0.3477 -0.0242  0.4014
   98SAPC   C12 9638   0.277   2.817   2.247  0.5761  0.1366 -0.5319
   98SAPC  H12A 9639   0.184   2.870   2.264  0.6810  0.0249  0.4059
   98SAPC  H12B 9640   0.337   2.873   2.177 -0.2886 -0.4263 -1.7430
   98SAPC   C13 9641   0.172   2.592   2.291 -0.6657 -0.5156 -0.1274
   98SAPC  H13A 9642   0.241   2.580   2.373 -0.0528 -1.2765 -0.7405
   98SAPC  H13B 9643   0.087   2.648   2.326  0.5158  1.9777 -1.1164
   98SAPC  H13C 9644   0.144   2.499   2.243 -2.7428 -0.3292  0.6727
   98SAPC   C14 9645   0.143   2.697   2.077 -0.4265 -0.4326  0.2135
   98SAPC  H14A 9646   0.086   2.609   2.052  0.0964 -0.8250  0.3945
   98SAPC  H14B 9647   0.067   2.766   2.110  0.4463  0.1072  1.1555
   98SAPC  H14C 9648   0.191   2.733   1.987 -1.3183 -0.0839 -0.1258
   98SAPC   C15 9649   0.367   2.620   2.141 -0.3036  0.6080 -0.2571
   98SAPC  H15A 9650   0.440   2.624   2.221 -0.4195  1.8851 -0.2100
   98SAPC  H15B 9651   0.352   2.520   2.104  1.4016 -0.1310  0.9343
   98SAPC  H15C 9652   0.407   2.675   2.058  0.0925 -1.0785 -1.2083
   98SAPC   C11 9653   0.363   2.815   2.382 -0.1377 -0.0743  0.4274
   98SAPC  H11A 9654   0.328   2.743   2.459  0.2462  0.1879  0.8530
   98SAPC  H11B 9655   0.348   2.915   2.430 -1.0450 -0.0688  0.1414
   98SAPC     P 9656   0.622   2.882   2.361  0.6511 -0.1575  0.5781
   98SAPC   O13 9657   0.755   2.817   2.340 -0.2479 -0.3623  0.2129
   98SAPC   O14 9658   0.586   2.979   2.248 -0.8342 -0.3018  0.2092
   98SAPC   O12 9659   0.501   2.777   2.366 -0.2597  0.2194  0.1364
   98SAPC   O11 9660   0.620   2.955   2.500  0.4194 -0.8159  0.2585
   98SAPC    C1 9661   0.688   2.904   2.619  0.8134  0.1061 -0.2934
   98SAPC    HA 9662   0.771   2.835   2.593 -1.2515 -2.4870 -0.2649
   98SAPC    HB 9663   0.726   2.989   2.680  0.3985 -0.6193  0.9797
   98SAPC    C2 9664   0.595   2.817   2.709 -0.5655 -0.2712  0.3500
   98SAPC    HS 9665   0.532   2.757   2.641 -0.6071  0.3110 -0.1295
   98SAPC   O21 9666   0.505   2.903   2.793 -0.0110  0.3087  0.8155
   98SAPC   C21 9667   0.395   2.841   2.844 -0.3773  0.2312  0.1117
   98SAPC   O22 9668   0.378   2.724   2.832  0.1195  0.5892  0.0180
   98SAPC   C22 9669   0.297   2.937   2.918  0.3987 -0.5433  0.0127
   98SAPC   H2R 9670   0.276   3.010   2.837 -1.2549 -1.9498 -0.8443
   98SAPC   H2S 9671   0.202   2.882   2.936  0.1657 -0.6435 -1.4634
   98SAPC    C3 9672   0.676   2.717   2.801  0.2813 -0.9649  0.1809
   98SAPC    HX 9673   0.739   2.661   2.729 -1.0973 -3.0773  0.5765
   98SAPC    HY 9674   0.603   2.644   2.842 -0.7030  0.2556  0.6083
   98SAPC   O31 9675   0.744   2.787   2.902 -0.4921  0.2781  0.0960
   98SAPC   C31 9676   0.846   2.735   2.972  0.0762 -0.2479 -0.8857
   98SAPC   O32 9677   0.899   2.628   2.956  0.6106 -0.2754 -0.4479
   98SAPC   C32 9678   0.884   2.831   3.092 -0.2612  0.2085  0.2903
   98SAPC   H2X 9679   0.915   2.930   3.052  0.2409  0.5038  1.3794
   98SAPC   H2Y 9680   0.968   2.782   3.146  1.7009  1.4648 -1.5246
   98SAPC   C23 9681   0.365   3.012   3.037 -0.5202  0.2036 -0.1446
   98SAPC   H3R 9682   0.304   3.101   3.064 -0.9699  0.1623 -0.9980
   98SAPC   H3S 9683   0.457   3.053   2.990 -0.1780  1.9585  1.9697
   98SAPC   C24 9684   0.376   2.927   3.174  0.6097  0.0460  0.2472
   98SAPC   H4R 9685   0.442   2.986   3.241  1.5416 -0.2090 -0.4357
   98SAPC   H4S 9686   0.424   2.829   3.156 -0.1591 -0.5884  1.5483
   98SAPC   C25 9687   0.232   2.918   3.227 -0.1589  0.4515 -0.2385
   98SAPC   H5R 9688   0.170   3.008   3.208  0.6175  0.6892 -1.7226
   98SAPC   C26 9689   0.173   2.819   3.296  0.2883 -0.1152  0.2348
   98SAPC   H6R 9690   0.066   2.825   3.321  0.7902 -0.0990  2.4690
   98SAPC   C27 9691   0.240   2.691   3.333 -0.2129  0.3837  0.0093
   98SAPC   H7R 9692   0.217   2.674   3.441 -1.9426 -1.6935 -0.6580
   98SAPC   H7S 9693   0.350   2.705   3.341  0.0138  1.5441 -4.0771
   98SAPC   C28 9694   0.198   2.574   3.248 -0.3879 -0.5134 -0.5191
   98SAPC   H8R 9695   0.181   2.588   3.140 -0.8299  0.1178 -0.3657
   98SAPC   C29 9696   0.204   2.442   3.284  0.2851  0.5689 -0.2842
   98SAPC   H9R 9697   0.162   2.376   3.206 -1.1680  2.8594 -1.4896
   98SAPC  C210 9698   0.251   2.376   3.415  0.0633 -0.5109 -0.1920
   98SAPC  H10R 9699   0.173   2.324   3.474 -0.4675  1.8155  1.2116
   98SAPC  H10S 9700   0.286   2.457   3.483 -0.4810 -1.2241  0.9476
   98SAPC  C211 9701   0.357   2.275   3.392 -0.1449 -0.5983  0.7539
   98SAPC  H11R 9702   0.380   2.245   3.288 -0.5411 -2.3286  1.1469
   98SAPC  C212 9703   0.413   2.207   3.495  0.4176 -0.4582 -0.5916
   98SAPC  H12R 9704   0.486   2.126   3.482  2.3163  1.1783 -0.3750
   98SAPC  C213 9705   0.371   2.233   3.641  0.0934  0.4409  0.1494
   98SAPC  H13R 9706   0.262   2.219   3.628  0.6348 -0.7939 -3.4292
   98SAPC  H13S 9707   0.364   2.336   3.682  0.6958  0.3427  0.5155
   98SAPC  C214 9708   0.431   2.141   3.742  0.1656  0.4489  0.5796
   98SAPC  H14R 9709   0.388   2.041   3.760  3.3403 -0.9038  1.1437
   98SAPC  C215 9710   0.535   2.164   3.821  0.3467 -0.5777  0.8165
   98SAPC  H15R 9711   0.573   2.091   3.894 -0.0498 -2.4079 -0.7394
   98SAPC  C216 9712   0.609   2.295   3.818 -0.1377 -0.6915 -0.4395
   98SAPC  H16R 9713   0.554   2.378   3.770 -0.7509  0.0675  1.5516
   98SAPC  H16S 9714   0.706   2.285   3.765  0.4412 -4.0208  1.0980
   98SAPC  C217 9715   0.647   2.356   3.953 -0.0650 -0.4159  0.2557
   98SAPC  H17R 9716   0.562   2.353   4.025  0.8238 -0.7555  1.3214
   98SAPC  H17S 9717   0.686   2.459   3.941 -0.9778 -0.3694 -2.7529
   98SAPC  C218 9718   0.763   2.278   4.027  0.2119 -0.7114  0.2754
   98SAPC  H18R 9719   0.848   2.288   3.957 -0.9081 -1.2248 -1.1864
   98SAPC  H18S 9720   0.737   2.171   4.041 -2.1974 -0.3381 -1.0010
   98SAPC  C219 9721   0.807   2.330   4.161  0.0033 -0.0748  0.0386
   98SAPC  H19R 9722   0.729   2.332   4.240  0.1770 -0.1230  0.2095
   98SAPC  H19S 9723   0.859   2.428   4.166  1.3994 -0.6982 -1.5242
   98SAPC  C220 9724   0.914   2.232   4.207 -0.3419  1.0391 -0.2436
   98SAPC  H20R 9725   0.947   2.255   4.311  0.3630 -1.0111  0.0065
   98SAPC  H20S 9726   1.006   2.232   4.145 -1.0525  2.1322 -1.3314
   98SAPC  H20T 9727   0.870   2.130   4.209 -1.2264  1.4280  1.0325
   98SAPC   C33 9728   0.777   2.845   3.194 -0.5563 -0.4556  0.3569
   98SAPC   H3X 9729   0.684   2.886   3.150 -0.3679 -0.1959  0.1986
   98SAPC   H3Y 9730   0.813   2.919   3.269 -0.2066 -0.4073  0.1434
   98SAPC   C34 9731   0.743   2.713   3.259 -0.3235 -0.6475  0.5637
   98SAPC   H4X 9732   0.842   2.665   3.275  0.0275 -0.9425 -2.2497
   98SAPC   H4Y 9733   0.687   2.644   3.193  1.3686 -0.3375 -1.2748
   98SAPC   C35 9734   0.671   2.734   3.388  0.0988 -0.0499  0.0524
   98SAPC   H5X 9735   0.570   2.780   3.382  0.2233  0.6157  2.6058
   98SAPC   H5Y 9736   0.724   2.819   3.436  0.4325  0.3156 -0.9483
   98SAPC   C36 9737   0.661   2.605   3.473  0.1280 -0.2030 -0.6322
   98SAPC   H6X 9738   0.608   2.529   3.413 -0.0685 -1.1658  0.7444
   98SAPC   H6Y 9739   0.584   2.613   3.552 -0.8321 -1.0567 -1.4696
   98SAPC   C37 9740   0.788   2.545   3.537 -0.3030 -0.1636  0.1737
   98SAPC   H7X 9741   0.846   2.512   3.448  1.5221  0.8242  0.9710
   98SAPC   H7Y 9742   0.765   2.446   3.582  1.3130 -0.4240  0.4798
   98SAPC   C38 9743   0.884   2.633   3.618  0.4623 -0.2354 -0.5111
   98SAPC   H8X 9744   0.880   2.735   3.573  3.6602 -0.1132 -0.6006
   98SAPC   H8Y 9745   0.989   2.602   3.599  0.5496 -0.6147  0.6069
   98SAPC   C39 9746   0.844   2.640   3.771 -0.0724 -0.8019 -0.0091
   98SAPC   H9X 9747   0.842   2.537   3.811  1.4061 -1.2887 -1.1148
   98SAPC   H9Y 9748   0.741   2.681   3.770  1.0688  2.1525  0.1275
   98SAPC  C310 9749   0.951   2.727   3.840  1.0710  0.4533  0.5478
   98SAPC  H10X 9750   0.951   2.821   3.781 -0.7263 -0.7885 -1.5116
   98SAPC  H10Y 9751   1.051   2.680   3.830  0.4063 -0.4322 -2.6111
   98SAPC  C311 9752   0.909   2.741   3.989  0.1845 -0.2929 -0.3788
   98SAPC  H11X 9753   0.942   2.661   4.058  2.7109  0.6498 -0.4400
   98SAPC  H11Y 9754   0.799   2.753   3.997  0.4744  1.4138  1.2684
   98SAPC  C312 9755   0.965   2.863   4.061  0.4208  0.0612  0.1524
   98SAPC  H12X 9756   0.938   2.954   4.004  0.0434  0.0948  0.3861
   98SAPC  H12Y 9757   1.076   2.853   4.058  0.3570 -0.5253 -0.3930
   98SAPC  C313 9758   0.914   2.872   4.207 -0.6096  0.1896  0.2769
   98SAPC  H13X 9759   0.966   2.812   4.285  0.7129  2.3131  1.0676
   98SAPC  H13Y 9760   0.803   2.866   4.204 -0.7057 -0.1814  2.9391
   98SAPC  C314 9761   0.925   3.021   4.256 -0.6259 -0.2460  0.2981
   98SAPC  H14X 9762   0.856   3.073   4.187  0.4219 -2.0273 -2.1620
   98SAPC  H14Y 9763   1.030   3.058   4.251 -0.3231 -0.9768  1.0060
   98SAPC  C315 9764   0.881   3.032   4.405  0.4435  0.6641  0.5347
   98SAPC  H15X 9765   0.967   3.003   4.468  0.5075 -1.3782 -0.4732
   98SAPC  H15Y 9766   0.794   2.973   4.441 -0.5640  1.3333 -0.7465
   98SAPC  C316 9767   0.846   3.176   4.437  1.0013 -0.3642  0.0679
   98SAPC  H16X 9768   0.939   3.233   4.417  0.4885 -0.0026 -1.4027
   98SAPC  H16Y 9769   0.819   3.183   4.544  0.9519  0.3789  0.0074
   98SAPC  C317 9770   0.718   3.227   4.373 -0.4645 -0.0870 -0.4751
   98SAPC  H17X 9771   0.636   3.154   4.385  0.2765 -0.6139  1.5282
   98SAPC  H17Y 9772   0.738   3.239   4.264 -0.9722  0.0139 -0.5584
   98SAPC  C318 9773   0.671   3.362   4.432 -0.0611  0.1194  0.4890
   98SAPC  H18X 9774   0.759   3.409   4.481  1.7926 -2.6363 -0.0662
   98SAPC  H18Y 9775   0.591   3.345   4.508 -0.3474 -1.4578 -0.1475
   98SAPC  H18Z 9776   0.620   3.408   4.345  2.6273  0.6608 -0.8301
   99SAPC     N 9777   2.124   6.744   2.121  0.3390  0.3845  0.4207
   99SAPC   C12 9778   2.015   6.734   2.229  0.4542  0.5385  0.0439
   99SAPC  H12A 9779   1.973   6.635   2.226  0.2212  0.6290  0.2733
   99SAPC  H12B 9780   1.934   6.799   2.197 -0.5398 -0.6662  0.1030
   99SAPC   C13 9781   2.185   6.882   2.111 -0.3760  0.7023  0.3219
   99SAPC  H13A 9782   2.112   6.945   2.062  1.3062  1.8393 -0.7526
   99SAPC  H13B 9783   2.195   6.911   2.215 -3.1584 -2.3457  1.5311
   99SAPC  H13C 9784   2.276   6.884   2.053 -0.7158 -1.4724 -0.3260
   99SAPC   C14 9785   2.226   6.640   2.147 -0.5112 -0.7288 -0.0702
   99SAPC  H14A 9786   2.195   6.544   2.109 -0.0827 -0.3801 -1.3068
   99SAPC  H14B 9787   2.316   6.663   2.093 -0.3020 -0.3768  0.4287
   99SAPC  H14C 9788   2.246   6.634   2.253 -0.6956  1.6939  0.1330
   99SAPC   C15 9789   2.056   6.700   1.989  0.3051 -0.0006 -0.3837
   99SAPC  H15A 9790   1.986   6.778   1.961  1.4521  1.4939  0.8306
   99SAPC  H15B 9791   2.134   6.686   1.916  1.2257  0.9132  0.4107
   99SAPC  H15C 9792   1.993   6.613   1.996  0.0389  0.1407 -0.9886
   99SAPC   C11 9793   2.050   6.769   2.371  0.5366  0.2309  0.0174
   99SAPC  H11A 9794   2.138   6.713   2.410 -1.6735 -1.9920  1.8981
   99SAPC  H11B 9795   1.960   6.745   2.430  1.0440 -0.1218  0.6579
   99SAPC     P 9796   1.968   7.005   2.417 -0.5616  0.2600 -0.4612
   99SAPC   O13 9797   2.012   7.146   2.406  0.1737 -0.3611  0.2754
   99SAPC   O14 9798   1.857   6.973   2.325 -0.1748  0.6329 -0.6020
   99SAPC   O12 9799   2.086   6.907   2.388  0.1206  0.0071 -0.2311
   99SAPC   O11 9800   1.914   6.980   2.564 -0.7088  0.5759 -0.6515
   99SAPC    C1 9801   1.952   7.067   2.670  0.2080 -0.1868 -0.2376
   99SAPC    HA 9802   2.062   7.075   2.676  0.3269  0.0511 -2.1967
   99SAPC    HB 9803   1.903   7.166   2.657  0.5000  0.1437  1.1252
   99SAPC    C2 9804   1.910   7.008   2.802  0.0400 -0.9215 -0.5381
   99SAPC    HS 9805   1.951   7.076   2.881 -1.2353 -2.5889  1.6280
   99SAPC   O21 9806   1.961   6.876   2.819  0.3505  0.0943 -0.4239
   99SAPC   C21 9807   2.084   6.857   2.831  0.0551 -0.4793  0.1935
   99SAPC   O22 9808   2.179   6.931   2.842  0.3064  0.6741 -0.0535
   99SAPC   C22 9809   2.100   6.707   2.840  0.7563 -0.0438  0.0559
   99SAPC   H2R 9810   2.045   6.663   2.754  2.5449 -0.7398 -0.7668
   99SAPC   H2S 9811   2.208   6.681   2.829  1.0121  0.0460  2.2298
   99SAPC    C3 9812   1.756   6.998   2.825 -0.3057 -0.2487  0.1104
   99SAPC    HX 9813   1.714   6.941   2.740 -1.6931 -0.5006  0.9493
   99SAPC    HY 9814   1.710   7.097   2.806  3.3689  1.1526 -1.8637
   99SAPC   O31 9815   1.722   6.956   2.954  0.5473 -0.0847  0.8578
   99SAPC   C31 9816   1.671   6.835   2.968  0.4695  0.0010 -0.5614
   99SAPC   O32 9817   1.645   6.751   2.883  0.5478 -0.7435 -0.4049
   99SAPC   C32 9818   1.643   6.811   3.117  0.9072  0.1154 -0.4600
   99SAPC   H2X 9819   1.543   6.861   3.125 -0.2591 -2.0325 -1.1905
   99SAPC   H2Y 9820   1.707   6.879   3.177  1.9420 -1.4315  0.2020
   99SAPC   C23 9821   2.045   6.653   2.972 -0.1548  0.0429 -0.8037
   99SAPC   H3R 9822   2.051   6.542   2.971  1.1632  0.0522  1.6963
   99SAPC   H3S 9823   1.938   6.683   2.978 -0.5979 -1.0025 -2.8781
   99SAPC   C24 9824   2.120   6.686   3.105 -0.6545  0.1176  0.2072
   99SAPC   H4R 9825   2.128   6.797   3.106  0.2032  0.0669 -0.7052
   99SAPC   H4S 9826   2.221   6.644   3.090 -0.6877  0.2872 -0.4887
   99SAPC   C25 9827   2.047   6.643   3.231  0.2055 -0.4820 -0.4434
   99SAPC   H5R 9828   1.984   6.554   3.221  1.1617 -1.4203  1.5805
   99SAPC   C26 9829   2.044   6.702   3.352 -0.3443  0.5368 -0.5653
   99SAPC   H6R 9830   2.001   6.641   3.433  1.9618  0.3067  0.5008
   99SAPC   C27 9831   2.114   6.822   3.399  0.6445  0.1490 -0.4095
   99SAPC   H7R 9832   2.064   6.902   3.341 -0.3682  0.9298  1.5360
   99SAPC   H7S 9833   2.218   6.821   3.359  0.6216  0.3681 -0.4731
   99SAPC   C28 9834   2.128   6.852   3.545 -0.0691  0.3932 -0.3181
   99SAPC   H8R 9835   2.231   6.886   3.567  0.3540  0.5980 -2.4305
   99SAPC   C29 9836   2.027   6.881   3.628  0.8187  0.1489 -1.3696
   99SAPC   H9R 9837   2.050   6.894   3.735  0.1782 -0.6580 -1.1222
   99SAPC  C210 9838   1.880   6.888   3.589  0.0869 -0.1116 -0.4874
   99SAPC  H10R 9839   1.824   6.799   3.621  1.1176  0.2942  2.6543
   99SAPC  H10S 9840   1.868   6.887   3.478  2.1471  0.6890 -0.7521
   99SAPC  C211 9841   1.823   7.018   3.635  0.6005  0.3917  0.6299
   99SAPC  H11R 9842   1.842   7.095   3.558  0.0741  1.3371  1.4344
   99SAPC  C212 9843   1.767   7.049   3.757  0.0612  0.3456 -0.3227
   99SAPC  H12R 9844   1.738   7.154   3.774 -1.1962  0.1860 -1.3687
   99SAPC  C213 9845   1.751   6.953   3.875  0.2138  0.1162  0.7329
   99SAPC  H13R 9846   1.828   6.977   3.951 -0.1814 -0.4909  1.3333
   99SAPC  H13S 9847   1.758   6.845   3.848 -0.1828  0.7477 -2.0377
   99SAPC  C214 9848   1.617   6.975   3.941  0.8852 -0.3923  0.3472
   99SAPC  H14R 9849   1.530   6.944   3.882  1.2384 -1.0620  0.1800
   99SAPC  C215 9850   1.609   7.039   4.060  0.0294  0.0868 -0.6880
   99SAPC  H15R 9851   1.504   7.046   4.093  0.1001 -1.8327 -0.0286
   99SAPC  C216 9852   1.712   7.095   4.153  0.6079  0.3866 -0.8841
   99SAPC  H16R 9853   1.659   7.178   4.203  0.1577 -0.1243 -0.5003
   99SAPC  H16S 9854   1.790   7.138   4.087  1.4519 -0.0134 -0.1587
   99SAPC  C217 9855   1.777   7.000   4.250  0.1947  0.2626  0.4098
   99SAPC  H17R 9856   1.863   6.939   4.214 -0.1972 -2.1778  3.3643
   99SAPC  H17S 9857   1.698   6.927   4.279  1.0780 -0.7191  0.3812
   99SAPC  C218 9858   1.814   7.074   4.382  0.2904  0.6373 -0.1412
   99SAPC  H18R 9859   1.847   6.997   4.454  1.5526 -1.7398 -3.1249
   99SAPC  H18S 9860   1.731   7.139   4.415 -0.0455 -0.3850  1.0819
   99SAPC  C219 9861   1.947   7.147   4.363  0.7738  0.5386 -0.6679
   99SAPC  H19R 9862   1.954   7.222   4.445 -2.3764 -0.1756  0.3174
   99SAPC  H19S 9863   1.933   7.205   4.269  0.9242  0.1333 -0.9444
   99SAPC  C220 9864   2.065   7.055   4.360 -0.3904 -0.4207  0.0616
   99SAPC  H20R 9865   2.163   7.106   4.353 -0.6046 -0.2204 -1.6263
   99SAPC  H20S 9866   2.067   6.981   4.277  0.4116 -0.0276 -0.2738
   99SAPC  H20T 9867   2.066   6.996   4.455  2.3454  0.8236  0.8380
   99SAPC   C33 9868   1.645   6.664   3.164  0.1167  1.3628 -0.6334
   99SAPC   H3X 9869   1.733   6.612   3.122  0.1851  1.0521 -0.1196
   99SAPC   H3Y 9870   1.554   6.612   3.127  0.8340 -0.2821 -0.1496
   99SAPC   C34 9871   1.650   6.642   3.318  0.2816  0.6062  0.3444
   99SAPC   H4X 9872   1.739   6.696   3.355  1.9160 -1.9108  0.1636
   99SAPC   H4Y 9873   1.650   6.539   3.359 -0.4076  0.2273 -0.5654
   99SAPC   C35 9874   1.533   6.702   3.395  0.0266  1.3100 -0.2291
   99SAPC   H5X 9875   1.444   6.651   3.352  0.4767 -0.6877  1.1660
   99SAPC   H5Y 9876   1.533   6.813   3.380  1.2372  1.6223  1.8302
   99SAPC   C36 9877   1.535   6.686   3.545  0.0247  0.0035 -0.0296
   99SAPC   H6X 9878   1.612   6.752   3.591  1.7298 -2.2513  0.4824
   99SAPC   H6Y 9879   1.576   6.585   3.569  1.7779  0.5786 -0.4942
   99SAPC   C37 9880   1.397   6.702   3.600  0.3551 -0.9713 -0.3512
   99SAPC   H7X 9881   1.325   6.623   3.569  0.6927 -1.2280 -0.4836
   99SAPC   H7Y 9882   1.361   6.807   3.598 -3.7997 -2.3116  0.3442
   99SAPC   C38 9883   1.404   6.675   3.759 -0.8433  0.2020 -0.9656
   99SAPC   H8X 9884   1.478   6.745   3.801 -1.0395  0.1965 -0.6057
   99SAPC   H8Y 9885   1.426   6.569   3.786 -1.2806  0.6375  1.1418
   99SAPC   C39 9886   1.276   6.716   3.825  0.5996  0.1495 -0.6670
   99SAPC   H9X 9887   1.225   6.801   3.775  0.2152  0.1747 -0.2353
   99SAPC   H9Y 9888   1.306   6.749   3.926  1.9067 -1.1210 -0.6268
   99SAPC  C310 9889   1.167   6.614   3.840  0.0299  0.1173 -1.1755
   99SAPC  H10X 9890   1.208   6.549   3.920 -0.6036  1.0457 -0.0795
   99SAPC  H10Y 9891   1.147   6.550   3.751  0.7420  3.3195 -3.7455
   99SAPC  C311 9892   1.034   6.677   3.892  0.1859 -0.4752  0.5756
   99SAPC  H11X 9893   0.987   6.740   3.813  1.1275  0.8138  1.0302
   99SAPC  H11Y 9894   1.053   6.752   3.972  1.6666  0.8378 -0.9634
   99SAPC  C312 9895   0.941   6.578   3.958 -0.3940 -0.6970  0.3594
   99SAPC  H12X 9896   0.976   6.570   4.063  0.0755 -0.0834  0.2516
   99SAPC  H12Y 9897   0.956   6.471   3.932  0.2898 -0.3152 -0.8308
   99SAPC  C313 9898   0.799   6.631   3.945  0.0223 -0.2594 -0.4757
   99SAPC  H13X 9899   0.754   6.628   3.843  0.0181  2.2352 -0.5799
   99SAPC  H13Y 9900   0.796   6.738   3.975 -2.1090 -0.1330 -1.0439
   99SAPC  C314 9901   0.704   6.562   4.044  0.1214 -0.0564  1.0206
   99SAPC  H14X 9902   0.723   6.595   4.149  3.8070 -0.7960  0.6506
   99SAPC  H14Y 9903   0.718   6.452   4.040 -1.2406 -0.2834  2.0003
   99SAPC  C315 9904   0.553   6.582   4.007  0.3846  1.0432  0.1014
   99SAPC  H15X 9905   0.520   6.688   4.002 -2.9087  0.0999  0.4976
   99SAPC  H15Y 9906   0.481   6.543   4.082 -0.5394 -0.6785 -1.6281
   99SAPC  C316 9907   0.513   6.512   3.873  0.0337 -0.2464  0.0849
   99SAPC  H16X 9908   0.502   6.402   3.871  1.4855 -0.3700 -1.4855
   99SAPC  H16Y 9909   0.594   6.535   3.801 -2.5051  1.4507 -2.3329
   99SAPC  C317 9910   0.379   6.560   3.821 -0.1384 -0.3422 -1.0405
   99SAPC  H17X 9911   0.357   6.516   3.721  1.4378 -1.2172 -1.0107
   99SAPC  H17Y 9912   0.381   6.670   3.827 -1.5182 -0.3261 -0.5628
   99SAPC  C318 9913   0.264   6.521   3.912  0.8149  0.3883  0.1363
   99SAPC  H18X 9914   0.271   6.413   3.938  1.6485  0.6087  0.8284
   99SAPC  H18Y 9915   0.175   6.552   3.854  2.2000  1.2469 -1.6062
   99SAPC  H18Z 9916   0.257   6.578   4.006 -3.3999  0.4020 -0.0992
  100SAPC     N 9917   0.145   0.214   2.031 -0.1571 -0.2280  0.1416
  100SAPC   C12 9918   0.200   0.096   2.111 -0.0056 -0.3128  0.4230
  100SAPC  H12A 9919   0.303   0.076   2.086  0.2259 -0.3877  1.4045
  100SAPC  H12B 9920   0.154   0.004   2.076 -2.2538  0.6092  0.8414
  100SAPC   C13 9921  -0.002   0.251   2.060 -0.3631 -0.7020  0.0716
  100SAPC  H13A 9922  -0.001   0.289   2.162 -1.3866 -0.8116  0.1343
  100SAPC  H13B 9923  -0.038   0.323   1.988  1.7382  2.1623  1.8027
  100SAPC  H13C 9924  -0.071   0.168   2.056 -0.7915 -0.2845 -1.7201
  100SAPC   C14 9925   0.243   0.332   2.033 -0.3852  0.7563 -0.0670
  100SAPC  H14A 9926   0.211   0.408   1.963  1.9442 -0.6422 -2.7784
  100SAPC  H14B 9927   0.260   0.358   2.136 -0.5364 -2.1482  0.7400
  100SAPC  H14C 9928   0.328   0.290   1.982 -1.1622  0.1321 -0.8762
  100SAPC   C15 9929   0.141   0.166   1.890 -0.3368  0.8273 -0.3652
  100SAPC  H15A 9930   0.113   0.240   1.817 -1.6322  1.2840  0.5791
  100SAPC  H15B 9931   0.238   0.133   1.856 -0.7877 -0.7667 -0.1336
  100SAPC  H15C 9932   0.074   0.084   1.870 -0.3818  0.7001  0.2873
  100SAPC   C11 9933   0.202   0.110   2.264  0.0275 -0.3214 -0.0468
  100SAPC  H11A 9934   0.231   0.015   2.314 -1.0805 -1.3712 -1.3633
  100SAPC  H11B 9935   0.095   0.135   2.278 -0.1493  1.0286 -3.3396
  100SAPC     P 9936   0.440   0.198   2.352  0.4382  0.5736  0.0684
  100SAPC   O13 9937   0.499   0.070   2.316  0.8805 -0.2316 -0.5716
  100SAPC   O14 9938   0.508   0.308   2.278  0.6022  0.3671 -0.3766
  100SAPC   O12 9939   0.292   0.213   2.302  0.4423  0.3472  0.0883
  100SAPC   O11 9940   0.435   0.206   2.503 -0.1233 -0.1380  0.4928
  100SAPC    C1 9941   0.314   0.245   2.574 -0.5947 -1.1446 -0.1218
  100SAPC    HA 9942   0.226   0.217   2.512  0.2365  1.0144 -2.3660
  100SAPC    HB 9943   0.307   0.181   2.664  0.8928 -0.2732  0.6171
  100SAPC    C2 9944   0.307   0.390   2.614  0.4493  0.1145  0.2941
  100SAPC    HS 9945   0.323   0.441   2.517 -1.4450 -0.2369 -0.2227
  100SAPC   O21 9946   0.412   0.411   2.718  0.1338 -0.2819  0.2234
  100SAPC   C21 9947   0.450   0.532   2.744 -0.5330  1.0334 -0.6329
  100SAPC   O22 9948   0.415   0.627   2.677  0.2820 -1.1336  0.0030
  100SAPC   C22 9949   0.545   0.534   2.871 -0.1419  0.2424 -0.5576
  100SAPC   H2R 9950   0.532   0.455   2.947 -0.5237  1.3705  0.5670
  100SAPC   H2S 9951   0.645   0.514   2.827 -0.5142 -3.1173 -0.0111
  100SAPC    C3 9952   0.168   0.414   2.671  0.0314 -0.0243 -0.0210
  100SAPC    HX 9953   0.084   0.394   2.600  1.4094 -0.9722 -1.4217
  100SAPC    HY 9954   0.160   0.519   2.707 -0.9662 -0.3710  0.8048
  100SAPC   O31 9955   0.137   0.334   2.787  0.9663 -0.1186 -0.2975
  100SAPC   C31 9956   0.013   0.356   2.847 -0.0792 -0.1771  0.1442
  100SAPC   O32 9957  -0.078   0.418   2.796  0.2287 -0.1667  0.3327
  100SAPC   C32 9958   0.007   0.289   2.982 -0.1439  0.2301 -0.1282
  100SAPC   H2X 9959   0.048   0.186   2.980 -2.1131 -0.5867  0.4919
  100SAPC   H2Y 9960  -0.100   0.290   3.014 -0.3891 -0.0011 -0.9245
  100SAPC   C23 9961   0.566   0.662   2.958  0.7290  0.2096  0.7787
  100SAPC   H3R 9962   0.476   0.689   3.017 -0.4055 -0.9472 -0.3849
  100SAPC   H3S 9963   0.571   0.751   2.891 -3.0518 -0.5214 -0.6229
  100SAPC   C24 9964   0.689   0.652   3.050  0.5802  0.1000 -0.3988
  100SAPC   H4R 9965   0.776   0.631   2.985 -0.8450  0.6856 -2.5536
  100SAPC   H4S 9966   0.667   0.570   3.121 -1.2078  1.0187  0.1361
  100SAPC   C25 9967   0.726   0.784   3.115 -0.1024 -0.0006 -0.5373
  100SAPC   H5R 9968   0.778   0.861   3.055  3.9687 -2.8108 -0.8297
  100SAPC   C26 9969   0.686   0.827   3.238  0.3267  0.1137 -0.0432
  100SAPC   H6R 9970   0.723   0.924   3.274 -0.2874 -0.4472  2.1978
  100SAPC   C27 9971   0.592   0.754   3.331 -0.1249  0.1822 -0.0548
  100SAPC   H7R 9972   0.662   0.698   3.396 -0.7811 -0.0252  0.4648
  100SAPC   H7S 9973   0.540   0.669   3.281 -2.3544  0.3689  1.8731
  100SAPC   C28 9974   0.496   0.844   3.409  0.0980 -0.2380 -0.2312
  100SAPC   H8R 9975   0.408   0.874   3.348 -0.0847 -1.0435 -0.3606
  100SAPC   C29 9976   0.502   0.878   3.535 -0.5966 -0.6085  0.2284
  100SAPC   H9R 9977   0.421   0.936   3.582 -0.3307 -0.7191  0.8208
  100SAPC  C210 9978   0.599   0.825   3.635  0.2951  0.7159  0.2592
  100SAPC  H10R 9979   0.690   0.777   3.591 -0.4564 -0.0349 -0.4875
  100SAPC  H10S 9980   0.554   0.744   3.696  1.0424  1.5785  2.0025
  100SAPC  C211 9981   0.661   0.934   3.722  0.1748 -0.0677  0.1814
  100SAPC  H11R 9982   0.758   0.967   3.682  1.1891  1.4577  3.7484
  100SAPC  C212 9983   0.614   0.998   3.825 -0.7164 -0.7407  0.1601
  100SAPC  H12R 9984   0.676   1.082   3.860 -1.0207 -0.3799 -0.1603
  100SAPC  C213 9985   0.483   0.977   3.894  0.9818  0.1774 -0.1141
  100SAPC  H13R 9986   0.516   0.950   3.997  1.4412 -0.2743 -0.3783
  100SAPC  H13S 9987   0.432   0.886   3.856 -0.2961 -0.9312  4.0306
  100SAPC  C214 9988   0.398   1.097   3.896 -0.1117  0.4319  0.0449
  100SAPC  H14R 9989   0.428   1.180   3.829  2.1832  0.3650  0.9610
  100SAPC  C215 9990   0.291   1.111   3.983 -0.7104 -0.0128  0.1491
  100SAPC  H15R 9991   0.230   1.202   3.980 -0.1749  0.4434  2.2244
  100SAPC  C216 9992   0.245   1.014   4.094 -0.4360 -0.2188 -0.3964
  100SAPC  H16R 9993   0.281   0.915   4.060 -0.9496 -1.3001  2.1130
  100SAPC  H16S 9994   0.135   1.018   4.109 -0.5147  0.3733 -1.1045
  100SAPC  C217 9995   0.318   1.038   4.236  0.1199  0.6598  0.0991
  100SAPC  H17R 9996   0.298   1.144   4.262 -0.3790  0.8958 -1.2030
  100SAPC  H17S 9997   0.428   1.027   4.225 -0.1128 -1.3943 -0.4913
  100SAPC  C218 9998   0.270   0.959   4.351 -0.7905  0.3615 -0.3822
  100SAPC  H18R 9999   0.332   0.867   4.346  0.2087  0.9648  0.6669
  100SAPC  H18S10000   0.164   0.927   4.347 -0.2381 -2.1003  2.7008
  100SAPC  C21910001   0.300   1.020   4.493  0.2785 -0.5639  0.1172
  100SAPC  H19R10002   0.227   1.104   4.505 -0.2454 -0.9885 -0.0859
  100SAPC  H19S10003   0.402   1.063   4.487  0.3338 -1.0258 -2.7273
  100SAPC  C22010004   0.293   0.931   4.611 -0.0817  0.5764 -0.4304
  100SAPC  H20R10005   0.353   0.842   4.584 -0.7388  0.3236 -1.0716
  100SAPC  H20S10006   0.188   0.900   4.633 -0.8624  1.5760 -2.6865
  100SAPC  H20T10007   0.346   0.976   4.698  1.6496 -0.5488 -0.8685
  100SAPC   C3310008   0.100   0.364   3.084 -0.2267  0.3519 -0.7074
  100SAPC   H3X10009   0.051   0.342   3.181  0.4493  1.5836 -0.0641
  100SAPC   H3Y10010   0.093   0.474   3.065 -0.7563  0.1479 -1.7164
  100SAPC   C3410011   0.243   0.320   3.086  0.7053 -0.2566 -0.2936
  100SAPC   H4X10012   0.278   0.320   2.980 -0.0529 -0.0992 -0.5450
  100SAPC   H4Y10013   0.251   0.224   3.141  1.2995  0.7932  1.4880
  100SAPC   C3510014   0.342   0.416   3.164 -0.3157 -0.5859 -0.4576
  100SAPC   H5X10015   0.343   0.512   3.109 -1.2252 -0.7106 -0.6943
  100SAPC   H5Y10016   0.441   0.367   3.153  1.4034  2.6694 -0.0707
  100SAPC   C3610017   0.316   0.430   3.316  0.3596  0.2732 -0.1595
  100SAPC   H6X10018   0.226   0.495   3.325 -0.0965 -0.0179 -2.3074
  100SAPC   H6Y10019   0.406   0.480   3.357  0.9197 -0.4232 -0.5184
  100SAPC   C3710020   0.268   0.305   3.399  0.2388 -0.1884  0.2952
  100SAPC   H7X10021   0.342   0.223   3.383 -0.5598 -1.6323  3.7077
  100SAPC   H7Y10022   0.173   0.263   3.359  1.5427 -2.5783 -0.4436
  100SAPC   C3810023   0.246   0.336   3.549 -0.9710 -0.2082  0.1692
  100SAPC   H8X10024   0.189   0.432   3.544 -0.4995  0.0761  0.2435
  100SAPC   H8Y10025   0.339   0.350   3.608  0.6903  0.7586 -2.5710
  100SAPC   C3910026   0.160   0.234   3.619  0.3491 -0.3519 -0.2419
  100SAPC   H9X10027   0.187   0.126   3.614 -1.0462 -0.7179 -0.1746
  100SAPC   H9Y10028   0.064   0.229   3.563 -1.5643  0.2276  2.8270
  100SAPC  C31010029   0.129   0.267   3.757 -0.0202 -0.2800 -0.8280
  100SAPC  H10X10030   0.021   0.245   3.771  0.0474  0.4524  0.8371
  100SAPC  H10Y10031   0.137   0.374   3.784  1.2517 -0.6652  0.3467
  100SAPC  C31110032   0.205   0.186   3.856 -0.2197 -0.4367 -0.2328
  100SAPC  H11X10033   0.314   0.199   3.841 -0.1424 -1.7144 -0.8378
  100SAPC  H11Y10034   0.178   0.079   3.844  0.2032 -0.5266 -0.3931
  100SAPC  C31210035   0.179   0.228   4.005  0.5939 -0.0418 -0.7371
  100SAPC  H12X10036   0.073   0.199   4.017  0.5352  1.1712  2.1995
  100SAPC  H12Y10037   0.196   0.337   4.022 -0.1907  0.2586 -1.8769
  100SAPC  C31310038   0.247   0.140   4.116  0.0687 -0.6379 -0.2980
  100SAPC  H13X10039   0.355   0.157   4.102  0.0790  0.7971  1.2090
  100SAPC  H13Y10040   0.228   0.038   4.077 -1.6599 -0.1093 -0.9189
  100SAPC  C31410041   0.200   0.176   4.262  0.6234 -0.3646  0.4202
  100SAPC  H14X10042   0.091   0.156   4.266 -0.0609  2.3019 -3.1484
  100SAPC  H14Y10043   0.227   0.281   4.285 -1.7728  0.5218 -0.7055
  100SAPC  C31510044   0.257   0.079   4.366 -0.9929  0.1452 -0.0043
  100SAPC  H15X10045   0.200  -0.012   4.339 -2.3930  0.4434  1.8257
  100SAPC  H15Y10046   0.224   0.114   4.466 -0.1826 -0.9979  0.6768
  100SAPC  C31610047   0.405   0.062   4.370 -0.7719  0.1765  0.0812
  100SAPC  H16X10048   0.464   0.144   4.417  1.0287  0.6332 -2.8367
  100SAPC  H16Y10049   0.452   0.036   4.272  0.3910  0.6894  0.4901
  100SAPC  C31710050   0.443  -0.059   4.454  0.4788  0.3514 -0.1409
  100SAPC  H17X10051   0.379  -0.137   4.408 -2.8465  2.8143  0.0758
  100SAPC  H17Y10052   0.411  -0.039   4.559  1.7694 -0.2889  0.3863
  100SAPC  C31810053   0.592  -0.096   4.449 -0.5890  0.1402 -0.1082
  100SAPC  H18X10054   0.612  -0.190   4.505 -0.3230  0.4346  0.2836
  100SAPC  H18Y10055   0.662  -0.022   4.492  0.8473 -0.5308 -1.2390
  100SAPC  H18Z10056   0.618  -0.110   4.341  0.7337 -0.2276  0.2515
  101OSM      N10057   4.057   3.224   6.083  0.5826  0.0701 -0.2692
  101OSM    C1510058   4.065   3.114   5.981  0.3525  0.1737  0.1147
  101OSM   H15A10059   4.164   3.082   5.952  0.1979  1.0721 -1.4636
  101OSM   H15B10060   4.002   3.120   5.893  0.4747  1.4640  0.1026
  101OSM   H15C10061   4.029   3.028   6.037 -0.2246  1.4171  1.6925
  101OSM    C1410062   4.123   3.350   6.031  0.4631 -0.0231 -0.3221
  101OSM   H14A10063   4.223   3.332   5.994  0.8242 -0.9059  1.0550
  101OSM   H14B10064   4.141   3.415   6.115 -0.1788  0.0948 -0.2754
  101OSM   H14C10065   4.065   3.409   5.962  0.4993  1.0140  0.5254
  101OSM    C1310066   3.907   3.267   6.097  0.4334 -0.7304  0.3279
  101OSM   H13A10067   3.856   3.196   6.160 -1.0696  2.2640  2.5872
  101OSM   H13B10068   3.866   3.279   5.998  0.7044 -0.6608  0.2239
  101OSM   H13C10069   3.905   3.366   6.139 -1.8062 -0.7603  0.3497
  101OSM    C1210070   4.116   3.189   6.217 -0.0461 -0.2727  0.3015
  101OSM   H12A10071   4.118   3.281   6.273 -0.2371 -1.4497  2.2655
  101OSM   H12B10072   4.223   3.175   6.219  0.1830  1.4818  1.7237
  101OSM    C1110073   4.052   3.075   6.300 -0.5408  0.3702 -0.6358
  101OSM   H11A10074   3.951   3.111   6.328 -0.2723 -0.8234  1.9881
  101OSM   H11B10075   4.096   3.064   6.401  1.4363 -4.1616 -1.8285
  101OSM      P10076   4.009   2.811   6.292  0.1861 -0.1763  0.2211
  101OSM    O1310077   4.064   2.699   6.210 -0.1463  0.3788 -0.4406
  101OSM    O1410078   4.045   2.801   6.438  0.4140  0.0320 -0.6753
  101OSM    O1110079   3.854   2.824   6.287  0.5035  0.8194  0.3490
  101OSM    O1210080   4.066   2.945   6.228  0.0679  0.4238 -0.2953
  101OSM    C1S10081   3.786   2.860   6.165 -0.2755 -0.0736  0.1838
  101OSM    H1S10082   3.835   2.948   6.118 -0.2008 -0.1812  0.0590
  101OSM    H1T10083   3.682   2.887   6.193 -0.8045 -0.7438 -1.1010
  101OSM     NF10084   3.716   2.819   5.939  0.1039 -0.6604  0.0933
  101OSM    HNF10085   3.618   2.837   5.946  0.2085 -0.0469  0.0652
  101OSM    C2S10086   3.777   2.750   6.054 -0.4071  0.1663  0.3103
  101OSM    H2S10087   3.879   2.718   6.023 -0.0376  1.4150  0.1908
  101OSM    C3S10088   3.689   2.623   6.099  0.3781 -0.8649  0.3096
  101OSM    H3S10089   3.585   2.662   6.103  0.5672 -0.4916  2.5529
  101OSM     O310090   3.725   2.587   6.233  0.1426  0.4306  0.0154
  101OSM    HO310091   3.770   2.666   6.264 -0.1251  0.4332  0.3962
  101OSM    C4S10092   3.693   2.504   6.004  0.4177 -0.3140  0.1523
  101OSM    H4S10093   3.768   2.437   6.047  1.0403  0.5778  0.4743
  101OSM    C5S10094   3.600   2.465   5.911 -0.2481 -0.0525 -0.1649
  101OSM    H5S10095   3.508   2.518   5.884 -0.9801 -1.5085 -0.6041
  101OSM    C6S10096   3.623   2.342   5.824  0.3392  0.1238 -0.2339
  101OSM    H6S10097   3.531   2.290   5.792  0.1590 -0.5197  1.2832
  101OSM    H6T10098   3.701   2.274   5.864 -0.8534 -1.1639 -0.0836
  101OSM    C7S10099   3.676   2.402   5.690  0.2953  0.0574 -0.1809
  101OSM    H7S10100   3.766   2.465   5.706  1.3486 -1.3430 -0.5427
  101OSM    H7T10101   3.589   2.459   5.651  1.4733  0.8640 -1.6762
  101OSM    C8S10102   3.709   2.289   5.584 -0.3000  0.2779  0.5357
  101OSM    H8S10103   3.632   2.209   5.594  0.1956 -0.3854 -0.8503
  101OSM    H8T10104   3.809   2.250   5.611 -0.0072  1.4535  1.1719
  101OSM    C9S10105   3.707   2.344   5.440  0.1565  0.2851 -0.3764
  101OSM    H9S10106   3.777   2.430   5.432 -1.3713  1.5824 -0.0900
  101OSM    H9T10107   3.603   2.381   5.424 -1.3047 -3.0068  0.9367
  101OSM   C10S10108   3.743   2.222   5.339  0.1544  0.1104  0.3539
  101OSM   H10S10109   3.691   2.126   5.356  0.4173 -0.6706 -2.9311
  101OSM   H10T10110   3.851   2.206   5.363 -0.3293 -2.6035  0.8560
  101OSM   C11S10111   3.726   2.269   5.192  0.6827  0.0525  0.1642
  101OSM   H11S10112   3.788   2.225   5.111 -0.3644  1.4504 -1.4237
  101OSM   H11T10113   3.762   2.374   5.186 -1.1009  0.6122 -0.9658
  101OSM   C12S10114   3.575   2.256   5.144 -0.0001 -0.1818 -0.2102
  101OSM   H12S10115   3.498   2.294   5.215 -1.2138  0.2823 -1.7555
  101OSM   H12T10116   3.539   2.152   5.133  0.4043 -0.3143 -0.2842
  101OSM   C13S10117   3.560   2.301   4.996  0.4974  0.2467 -0.4357
  101OSM   H13S10118   3.644   2.265   4.933  1.1879  1.0383  0.0132
  101OSM   H13T10119   3.557   2.412   4.991  0.5788  0.1950 -1.7926
  101OSM   C14S10120   3.437   2.244   4.931  0.9246  0.4825 -0.5562
  101OSM   H14S10121   3.342   2.281   4.975  0.7848 -0.4094 -0.1037
  101OSM   H14T10122   3.441   2.134   4.944 -0.8409 -0.1558 -4.3960
  101OSM   C15S10123   3.433   2.290   4.783 -0.3095  0.2777  0.4757
  101OSM   H15S10124   3.523   2.245   4.735 -0.8232 -0.4151  0.1561
  101OSM   H15T10125   3.445   2.400   4.777  1.8929  0.0222 -0.2952
  101OSM   C16S10126   3.301   2.257   4.716 -0.1473 -0.0649  0.3541
  101OSM   H16S10127   3.298   2.296   4.612  3.1143 -0.0619  0.1933
  101OSM   H16T10128   3.223   2.297   4.783 -1.7172 -0.5605 -1.1391
  101OSM   C17S10129   3.282   2.104   4.693  0.7252 -0.4319 -0.4912
  101OSM   H17S10130   3.189   2.102   4.632  0.7989 -1.5008 -0.5815
  101OSM   H17T10131   3.275   2.043   4.786 -3.5793 -0.9754 -1.0984
  101OSM   C18S10132   3.389   2.035   4.606 -0.2394 -0.0214 -0.3827
  101OSM   H18S10133   3.489   2.059   4.649  0.6511 -1.8414 -1.3761
  101OSM   H18T10134   3.385   2.068   4.500  0.4213  0.2105 -0.3403
  101OSM   H18U10135   3.368   1.926   4.604 -0.7854  0.0544  1.0654
  101OSM    C1F10136   3.792   2.887   5.855  0.0632  0.5533 -0.5338
  101OSM     OF10137   3.913   2.882   5.854 -0.3487 -0.6410 -0.2076
  101OSM    C2F10138   3.714   2.983   5.763 -1.1071 -0.5957 -0.3593
  101OSM    H2F10139   3.710   3.084   5.809 -0.1330 -0.8093  0.1968
  101OSM    H2G10140   3.613   2.938   5.752 -0.6827 -2.4075  2.7383
  101OSM    C3F10141   3.779   2.981   5.617  0.1415 -0.4954 -0.1481
  101OSM    H3F10142   3.883   3.015   5.599 -0.0613 -0.6102 -1.6040
  101OSM    H3G10143   3.711   3.050   5.562  0.7361  1.2299  1.2588
  101OSM    C4F10144   3.758   2.842   5.546 -0.2517  0.3081  0.6652
  101OSM    H4F10145   3.653   2.814   5.527  0.4099 -1.8260  0.1012
  101OSM    H4G10146   3.802   2.757   5.603  0.3577  0.0375 -0.2064
  101OSM    C5F10147   3.814   2.839   5.405 -0.1780 -0.6383  0.3117
  101OSM    H5F10148   3.921   2.816   5.418 -0.6977 -1.8360  2.6802
  101OSM    H5G10149   3.800   2.938   5.355  0.1565 -0.1104  1.2572
  101OSM    C6F10150   3.738   2.734   5.315 -0.5256 -0.5477 -0.5176
  101OSM    H6F10151   3.628   2.752   5.309 -1.2092 -3.9188  1.0418
  101OSM    H6G10152   3.747   2.637   5.367 -2.0633 -0.4149  0.0135
  101OSM    C7F10153   3.801   2.720   5.182  0.5167 -0.5976  0.4053
  101OSM    H7F10154   3.757   2.626   5.141  1.2789 -0.7355 -0.1241
  101OSM    H7G10155   3.912   2.711   5.186  0.5608 -0.1622  0.1135
  101OSM    C8F10156   3.773   2.830   5.075  0.1617  0.5503  0.6269
  101OSM    H8F10157   3.844   2.826   4.990 -1.3669 -0.7496 -0.6203
  101OSM    H8G10158   3.799   2.923   5.130  0.6727  0.0737  1.1958
  101OSM    C9F10159   3.626   2.823   5.028 -0.3282 -0.3177 -0.4251
  101OSM    H9F10160   3.550   2.867   5.095 -0.8037  0.2431 -1.3113
  101OSM   C10F10161   3.587   2.796   4.899  0.5598 -0.5938  0.0661
  101OSM   H10F10162   3.483   2.825   4.878  0.0527 -1.3189  1.5382
  101OSM   C11F10163   3.668   2.775   4.772 -0.7231 -0.4822 -0.4176
  101OSM   H11F10164   3.772   2.740   4.791 -0.8133 -0.1433  0.7349
  101OSM   H11G10165   3.686   2.872   4.722  0.7014 -1.3716 -1.6766
  101OSM   C12F10166   3.599   2.674   4.683 -0.2789  0.1156 -0.2815
  101OSM   H12F10167   3.514   2.728   4.637 -0.6079  1.5724  1.9524
  101OSM   H12G10168   3.564   2.586   4.742  0.0803  1.2071  1.5831
  101OSM   C13F10169   3.688   2.606   4.578 -0.3567  0.8515  0.2639
  101OSM   H13F10170   3.622   2.525   4.541 -0.6948  1.9638 -1.6661
  101OSM   H13G10171   3.774   2.562   4.632  0.8271  1.7972 -0.8013
  101OSM   C14F10172   3.749   2.701   4.469  0.0481 -0.4740 -0.8011
  101OSM   H14F10173   3.810   2.779   4.520  0.1870 -0.8788 -0.3455
  101OSM   H14G10174   3.665   2.753   4.419  0.3127  0.5224 -0.2337
  101OSM   C15F10175   3.827   2.627   4.370 -0.1626  0.3963  0.3119
  101OSM   H15F10176   3.771   2.584   4.285 -1.0195  0.6230  0.7635
  101OSM   H15G10177   3.882   2.547   4.426 -1.1430 -0.9114 -0.5722
  101OSM   C16F10178   3.942   2.702   4.306 -0.0908 -0.1082 -0.2128
  101OSM   H16F10179   4.010   2.743   4.383 -1.1396 -1.5366  1.5247
  101OSM   H16G10180   3.903   2.794   4.257  1.0339 -0.1167 -1.1564
  101OSM   C17F10181   4.020   2.604   4.217 -0.6140  0.9726  0.2379
  101OSM   H17F10182   3.956   2.578   4.130 -1.1754  1.4278  0.5087
  101OSM   H17G10183   4.025   2.512   4.278  0.0538 -1.2033 -2.9939
  101OSM   C18F10184   4.166   2.653   4.193 -0.1822 -0.3182  0.5581
  101OSM   H18F10185   4.217   2.590   4.118  0.0413 -0.2799  0.6769
  101OSM   H18G10186   4.230   2.655   4.284 -1.0907 -0.8477  1.2219
  101OSM   H18H10187   4.158   2.753   4.145 -0.0825 -0.9664 -0.8064
  102OSM      N10188   4.804   2.947   6.561 -0.6505 -0.5183  0.4327
  102OSM    C1510189   4.840   2.991   6.422  0.3714 -0.6238 -0.1303
  102OSM   H15A10190   4.888   2.921   6.356 -0.2188  0.1245 -1.3525
  102OSM   H15B10191   4.908   3.075   6.430  2.7165 -2.1652 -2.7676
  102OSM   H15C10192   4.757   3.042   6.377  0.9288  2.4422  2.1383
  102OSM    C1410193   4.745   2.814   6.568 -1.0337 -0.6601 -0.1919
  102OSM   H14A10194   4.647   2.805   6.522 -1.5947 -2.8740  1.3742
  102OSM   H14B10195   4.751   2.777   6.669  1.8659  1.4202  0.4562
  102OSM   H14C10196   4.809   2.744   6.516 -1.4655 -1.9886  1.0435
  102OSM    C1310197   4.940   2.936   6.639  0.3206 -0.7883  0.4520
  102OSM   H13A10198   4.993   3.029   6.627 -0.3850 -0.2472  1.4165
  102OSM   H13B10199   4.987   2.847   6.600 -2.6826 -0.4543 -4.3610
  102OSM   H13C10200   4.922   2.939   6.745 -0.6188  0.8033  0.2633
  102OSM    C1210201   4.724   3.055   6.626  0.6424 -0.4291 -0.0410
  102OSM   H12A10202   4.782   3.146   6.616  0.1408 -0.0845  0.1700
  102OSM   H12B10203   4.719   3.048   6.734  0.5713  1.0768  0.0649
  102OSM    C1110204   4.577   3.070   6.579  0.2197  0.2714 -0.5816
  102OSM   H11A10205   4.533   3.143   6.650  0.0356 -0.2821 -0.1177
  102OSM   H11B10206   4.531   2.969   6.586  0.1291  0.2917 -0.9066
  102OSM      P10207   4.438   3.132   6.362  0.5474 -0.0139  0.2957
  102OSM    O1310208   4.372   3.000   6.339 -0.6307 -0.6147  1.1175
  102OSM    O1410209   4.357   3.244   6.411  0.3272 -0.1409  0.3753
  102OSM    O1110210   4.487   3.179   6.223 -0.1592  0.3090  0.4083
  102OSM    O1210211   4.580   3.117   6.441 -0.2044 -0.3423  0.8673
  102OSM    C1S10212   4.607   3.131   6.160  0.1840 -0.7661 -1.2681
  102OSM    H1S10213   4.637   3.035   6.208 -0.1463  0.4041  1.3437
  102OSM    H1T10214   4.689   3.204   6.173 -0.3225 -0.0790 -1.9347
  102OSM     NF10215   4.713   3.061   5.952  0.4248 -0.1179  0.0325
  102OSM    HNF10216   4.764   3.131   5.903  2.1635 -0.8244  0.8053
  102OSM    C2S10217   4.588   3.115   6.009  0.0457  0.0524 -0.0811
  102OSM    H2S10218   4.507   3.046   5.979 -0.5772  1.4890 -1.8263
  102OSM    C3S10219   4.554   3.254   5.946  0.5696  0.7933  0.3911
  102OSM    H3S10220   4.614   3.341   5.981 -0.6092  2.3398 -1.3369
  102OSM     O310221   4.427   3.306   5.988  0.0913  0.2962  0.8270
  102OSM    HO310222   4.419   3.267   6.075  2.1033  0.5916  1.1855
  102OSM    C4S10223   4.550   3.251   5.791  0.6920 -1.3579 -0.5422
  102OSM    H4S10224   4.462   3.202   5.749  0.3335 -1.1091 -0.0912
  102OSM    C5S10225   4.639   3.301   5.704 -0.2893  0.3502  0.0155
  102OSM    H5S10226   4.740   3.338   5.725  0.1751 -0.8705  0.0035
  102OSM    C6S10227   4.633   3.294   5.556 -0.3436 -1.4718  0.0599
  102OSM    H6S10228   4.707   3.217   5.528 -0.4762 -1.4647 -0.3127
  102OSM    H6T10229   4.661   3.393   5.514 -1.4004 -0.3932  1.8249
  102OSM    C7S10230   4.502   3.245   5.493  0.2165 -0.2254 -0.1648
  102OSM    H7S10231   4.422   3.316   5.523 -0.6354 -2.3627  2.8243
  102OSM    H7T10232   4.483   3.138   5.515 -0.7670 -0.2093 -0.8913
  102OSM    C8S10233   4.520   3.247   5.339  0.0185  0.4186 -0.4257
  102OSM    H8S10234   4.567   3.344   5.310  0.0579  1.2716  2.3436
  102OSM    H8T10235   4.421   3.222   5.294  0.8184 -0.9613 -1.4760
  102OSM    C9S10236   4.613   3.139   5.286  0.4129 -0.2125 -0.2183
  102OSM    H9S10237   4.591   3.038   5.328  0.2122  0.0299  0.2697
  102OSM    H9T10238   4.717   3.162   5.317  0.8749 -0.1164 -1.7919
  102OSM   C10S10239   4.616   3.130   5.127  0.1925  0.8567 -0.5483
  102OSM   H10S10240   4.517   3.086   5.104  0.7384 -0.4272 -0.4513
  102OSM   H10T10241   4.693   3.060   5.090 -0.1379  0.2035 -0.0037
  102OSM   C11S10242   4.633   3.258   5.047 -0.0086  0.1127  0.4061
  102OSM   H11S10243   4.702   3.329   5.097  0.9715 -0.6885  0.2169
  102OSM   H11T10244   4.537   3.314   5.042 -0.7194 -1.2012 -0.9728
  102OSM   C12S10245   4.695   3.222   4.908  0.0017  0.0799  0.2512
  102OSM   H12S10246   4.638   3.134   4.871 -2.7783  2.1191 -0.5122
  102OSM   H12T10247   4.798   3.180   4.906  0.0048  0.1099 -0.5723
  102OSM   C13S10248   4.704   3.335   4.812  0.2518 -0.1956 -0.4445
  102OSM   H13S10249   4.785   3.409   4.830 -0.4164  0.7251 -1.1195
  102OSM   H13T10250   4.609   3.393   4.819  0.5375  0.0304  1.6289
  102OSM   C14S10251   4.726   3.289   4.670  0.5730 -0.0072  0.1245
  102OSM   H14S10252   4.643   3.227   4.631 -0.1781 -0.3816  2.2339
  102OSM   H14T10253   4.818   3.228   4.665  0.2228 -0.4320 -1.3291
  102OSM   C15S10254   4.736   3.410   4.567  0.6783  0.2789  0.3008
  102OSM   H15S10255   4.750   3.378   4.462 -0.1183 -0.1105  0.3045
  102OSM   H15T10256   4.827   3.468   4.592  2.0626 -1.3518 -0.8082
  102OSM   C16S10257   4.610   3.507   4.571 -0.1321  0.7646  0.9999
  102OSM   H16S10258   4.633   3.605   4.524  0.5021  0.9049  1.5830
  102OSM   H16T10259   4.572   3.532   4.673 -2.2299  3.3535 -0.3452
  102OSM   C17S10260   4.498   3.455   4.477  0.7242  0.3637  0.1976
  102OSM   H17S10261   4.475   3.351   4.510  0.2960  1.1608  2.4856
  102OSM   H17T10262   4.546   3.444   4.378  0.9380  0.4796  0.2879
  102OSM   C18S10263   4.373   3.539   4.470  0.2050  0.4045 -0.2455
  102OSM   H18S10264   4.381   3.637   4.418 -3.8166  1.1861  0.4584
  102OSM   H18T10265   4.320   3.550   4.566  0.0746 -0.2663 -0.2373
  102OSM   H18U10266   4.303   3.483   4.405  0.5008 -1.8952  1.3557
  102OSM    C1F10267   4.775   2.951   5.981  0.1908  0.7646  0.0505
  102OSM     OF10268   4.738   2.874   6.062  0.4178  0.1266 -0.1274
  102OSM    C2F10269   4.906   2.937   5.911  0.3982 -0.1544  0.9688
  102OSM    H2F10270   4.989   2.946   5.985  0.0340  1.0869  1.2385
  102OSM    H2G10271   4.920   3.016   5.835 -1.2090 -0.7664  0.0080
  102OSM    C3F10272   4.921   2.795   5.853 -0.0476 -0.0579 -0.4141
  102OSM    H3F10273   4.872   2.708   5.902  0.2866  0.2883  0.5510
  102OSM    H3G10274   5.029   2.771   5.844 -0.1155  0.6537 -3.3762
  102OSM    C4F10275   4.885   2.788   5.701  0.4166  0.0879 -0.4184
  102OSM    H4F10276   4.926   2.694   5.659 -0.7441 -0.6861  0.1548
  102OSM    H4G10277   4.928   2.877   5.651  1.3926  0.3483  0.8393
  102OSM    C5F10278   4.744   2.788   5.667 -0.4135  0.3138  0.8224
  102OSM    H5F10279   4.721   2.787   5.559 -0.4128 -3.4129  0.7883
  102OSM    H5G10280   4.710   2.881   5.720 -2.5353 -0.4231  0.8232
  102OSM    C6F10281   4.669   2.674   5.728 -0.4276  0.4027 -0.6670
  102OSM    H6F10282   4.672   2.681   5.839 -0.7406 -0.0521 -0.6301
  102OSM    H6G10283   4.712   2.578   5.692 -0.3065  0.5070 -0.8038
  102OSM    C7F10284   4.520   2.664   5.687 -0.0586  0.0711  0.0593
  102OSM    H7F10285   4.487   2.564   5.722 -0.2053  0.2598  0.4552
  102OSM    H7G10286   4.525   2.658   5.576  1.9125  0.0455  0.1285
  102OSM    C8F10287   4.426   2.773   5.736 -0.0871 -0.2814  0.3237
  102OSM    H8F10288   4.470   2.872   5.711 -1.5704  0.7030  1.5518
  102OSM    H8G10289   4.429   2.766   5.847 -0.1146  0.8050  0.3901
  102OSM    C9F10290   4.285   2.755   5.684 -0.2404  0.0405 -0.3014
  102OSM    H9F10291   4.224   2.677   5.731  3.2462 -2.5541  0.1025
  102OSM   C10F10292   4.229   2.822   5.582  0.2722 -0.3140 -0.1226
  102OSM   H10F10293   4.128   2.788   5.554  1.1673 -2.4961 -0.8044
  102OSM   C11F10294   4.302   2.926   5.511  0.2317  0.1174  0.5348
  102OSM   H11F10295   4.404   2.940   5.553  0.5355 -1.4127  0.3156
  102OSM   H11G10296   4.255   3.026   5.526 -1.3225 -0.6049  0.5706
  102OSM   C12F10297   4.329   2.884   5.364 -0.7034 -0.4231 -0.1794
  102OSM   H12F10298   4.387   2.789   5.372 -0.6208 -0.5168 -1.7782
  102OSM   H12G10299   4.401   2.949   5.309 -0.4986 -1.2549 -0.9072
  102OSM   C13F10300   4.211   2.857   5.271  0.7196 -0.2456 -0.2684
  102OSM   H13F10301   4.141   2.942   5.260 -1.0856 -1.5420  0.9820
  102OSM   H13G10302   4.155   2.767   5.304 -1.8164  1.7163  0.9847
  102OSM   C14F10303   4.265   2.839   5.126 -0.1873  0.0751 -0.6171
  102OSM   H14F10304   4.339   2.757   5.132 -0.3468 -0.0033  0.3009
  102OSM   H14G10305   4.320   2.930   5.093  0.4592 -0.6395 -1.5358
  102OSM   C15F10306   4.157   2.804   5.025  0.4411  0.1573 -0.4454
  102OSM   H15F10307   4.086   2.889   5.019 -2.0369 -1.4036  4.0504
  102OSM   H15G10308   4.090   2.725   5.065  2.2489 -1.0377  0.2972
  102OSM   C16F10309   4.199   2.750   4.883 -0.8793 -0.3055 -0.1969
  102OSM   H16F10310   4.236   2.645   4.891 -1.1870 -0.3234  1.1338
  102OSM   H16G10311   4.276   2.824   4.855 -2.1581  1.1087 -0.0093
  102OSM   C17F10312   4.086   2.748   4.785  0.1548  0.1740 -0.2349
  102OSM   H17F10313   4.023   2.839   4.777  0.1996  0.4601  2.2868
  102OSM   H17G10314   4.018   2.661   4.796 -0.7856  0.6054 -2.2585
  102OSM   C18F10315   4.132   2.722   4.641 -0.8309 -0.0117 -0.2290
  102OSM   H18F10316   4.048   2.709   4.570  0.3573 -0.1706 -1.6225
  102OSM   H18G10317   4.185   2.624   4.636  0.7211  0.6703  1.9322
  102OSM   H18H10318   4.203   2.802   4.609 -0.1164  0.2345  1.8762
  103OSM      N10319   4.526   4.719   6.219  0.4197  0.2449 -0.5194
  103OSM    C1510320   4.573   4.855   6.269  1.0784  0.0972  0.6061
  103OSM   H15A10321   4.680   4.871   6.263  0.7740  2.6750  1.3622
  103OSM   H15B10322   4.536   4.869   6.369 -0.0694  0.7902  0.0826
  103OSM   H15C10323   4.528   4.936   6.215 -2.2628 -2.7878 -1.0974
  103OSM    C1410324   4.503   4.710   6.071  0.4049 -0.1773 -0.2353
  103OSM   H14A10325   4.592   4.751   6.026  0.4030  1.1518  0.9230
  103OSM   H14B10326   4.421   4.770   6.036  1.4894  1.9881  0.7836
  103OSM   H14C10327   4.478   4.612   6.033  0.1460 -0.6908  1.2463
  103OSM    C1310328   4.645   4.626   6.250  0.5054  0.2326 -0.1025
  103OSM   H13A10329   4.685   4.642   6.348 -0.4837 -1.8323  0.6648
  103OSM   H13B10330   4.727   4.652   6.184 -0.0363  0.9122 -0.5170
  103OSM   H13C10331   4.624   4.521   6.239 -0.4313  0.2682  1.2852
  103OSM    C1210332   4.394   4.687   6.287  0.7613  0.1131  0.3805
  103OSM   H12A10333   4.318   4.764   6.277  0.2933 -0.1644  1.6811
  103OSM   H12B10334   4.408   4.701   6.393  0.2024  0.4670  0.4135
  103OSM    C1110335   4.334   4.551   6.268 -0.1795  0.1104 -0.4838
  103OSM   H11A10336   4.393   4.472   6.318 -0.8089  0.7815  1.3432
  103OSM   H11B10337   4.320   4.529   6.160  0.7570 -0.3922 -0.5066
  103OSM      P10338   4.075   4.610   6.280 -0.2754  0.2392  0.1338
  103OSM    O1310339   3.977   4.572   6.379  0.7245  0.2884 -0.4797
  103OSM    O1410340   4.092   4.756   6.255 -0.3152  0.7148 -0.2723
  103OSM    O1110341   4.056   4.522   6.147 -0.5549 -0.0966  0.1832
  103OSM    O1210342   4.207   4.560   6.338  0.2604  0.1608 -0.0677
  103OSM    C1S10343   4.079   4.575   6.018 -0.1622 -0.3073  0.1672
  103OSM    H1S10344   4.171   4.638   6.014 -2.4702  3.0998 -1.2810
  103OSM    H1T10345   4.003   4.653   5.999  1.4240  1.7408  1.8900
  103OSM     NF10346   4.129   4.531   5.785 -0.2145  0.1782  0.7667
  103OSM    HNF10347   4.077   4.521   5.700  0.8505  2.5278 -0.1975
  103OSM    C2S10348   4.077   4.468   5.909  0.5367 -0.0579 -0.8927
  103OSM    H2S10349   4.153   4.392   5.934  0.7623  0.3725 -0.2731
  103OSM    C3S10350   3.928   4.419   5.899 -0.1784  0.1503 -0.6814
  103OSM    H3S10351   3.872   4.510   5.868 -0.6684  0.2512  0.4707
  103OSM     O310352   3.869   4.380   6.020 -0.2267  0.2373  0.3334
  103OSM    HO310353   3.920   4.431   6.083 -1.4887  2.3625 -0.3379
  103OSM    C4S10354   3.928   4.316   5.785  0.2129  0.4027 -0.1904
  103OSM    H4S10355   3.992   4.228   5.804  1.0772  1.6071  2.9127
  103OSM    C5S10356   3.858   4.325   5.669 -0.3073 -0.1185  0.3231
  103OSM    H5S10357   3.791   4.412   5.655 -1.2555 -1.1024 -1.4768
  103OSM    C6S10358   3.860   4.220   5.562 -0.2255  0.5395  0.5740
  103OSM    H6S10359   3.755   4.196   5.535  0.3076 -0.6597 -0.5116
  103OSM    H6T10360   3.911   4.129   5.598  1.3496  0.7370 -1.0566
  103OSM    C7S10361   3.930   4.257   5.429  0.3526  0.0555 -0.1862
  103OSM    H7S10362   4.034   4.289   5.452  0.8312 -0.1033 -2.0336
  103OSM    H7T10363   3.872   4.342   5.388  0.9332  1.1580  1.2567
  103OSM    C8S10364   3.918   4.144   5.330 -0.7978  0.1394 -0.0628
  103OSM    H8S10365   3.812   4.113   5.318 -0.2832 -2.1230  1.0471
  103OSM    H8T10366   3.977   4.061   5.374 -0.0726 -0.3699 -1.9540
  103OSM    C9S10367   3.962   4.194   5.187  0.0166 -0.0827  0.3032
  103OSM    H9S10368   3.885   4.271   5.168 -2.8219 -2.4212  1.7822
  103OSM    H9T10369   3.933   4.115   5.115  0.4775  0.9282 -0.9989
  103OSM   C10S10370   4.098   4.250   5.166 -0.1050 -0.0992 -0.4255
  103OSM   H10S10371   4.171   4.181   5.212 -0.5043 -0.7991 -0.8369
  103OSM   H10T10372   4.130   4.338   5.227  2.9934 -1.7647  0.4486
  103OSM   C11S10373   4.119   4.280   5.021 -0.9675 -0.1561  0.1608
  103OSM   H11S10374   4.064   4.368   4.983  2.2616  1.1637 -1.6822
  103OSM   H11T10375   4.085   4.194   4.958  1.4032 -0.7215 -0.4113
  103OSM   C12S10376   4.272   4.323   5.000 -0.2148 -0.3029 -0.7948
  103OSM   H12S10377   4.331   4.229   5.003 -0.4122 -0.3730  1.1839
  103OSM   H12T10378   4.307   4.385   5.085 -1.1491 -0.4415 -0.3040
  103OSM   C13S10379   4.289   4.399   4.864 -0.1382 -0.2583 -0.1621
  103OSM   H13S10380   4.227   4.490   4.880 -0.9048 -1.0934  1.6708
  103OSM   H13T10381   4.248   4.334   4.784  0.5006 -1.4425  0.4729
  103OSM   C14S10382   4.430   4.440   4.836 -0.6867  0.0875  0.5070
  103OSM   H14S10383   4.500   4.353   4.831  0.5560  1.1648 -1.2717
  103OSM   H14T10384   4.460   4.508   4.918  2.2669  1.4435 -1.6511
  103OSM   C15S10385   4.448   4.529   4.708 -0.1638  0.5697  0.1757
  103OSM   H15S10386   4.393   4.626   4.708  2.0635  1.8492  0.5264
  103OSM   H15T10387   4.412   4.478   4.616  0.9778  1.8031 -0.9698
  103OSM   C16S10388   4.593   4.566   4.675 -0.3467  0.4400 -0.5161
  103OSM   H16S10389   4.640   4.466   4.669  2.5697  1.6859  0.9049
  103OSM   H16T10390   4.641   4.619   4.760 -3.9139 -0.6767  2.3651
  103OSM   C17S10391   4.616   4.640   4.542  0.2075 -0.4534  0.3222
  103OSM   H17S10392   4.540   4.721   4.540  0.1741 -0.4764  0.6914
  103OSM   H17T10393   4.590   4.573   4.457 -0.1986  1.7773 -1.3824
  103OSM   C18S10394   4.761   4.693   4.509  0.1241  0.6424  0.5803
  103OSM   H18S10395   4.803   4.740   4.600 -0.0297 -2.0066  2.0932
  103OSM   H18T10396   4.748   4.775   4.436  1.1751  0.3908  0.1035
  103OSM   H18U10397   4.817   4.603   4.475 -0.4239  0.9364 -1.1219
  103OSM    C1F10398   4.259   4.556   5.774 -0.6340 -0.1335  0.0467
  103OSM     OF10399   4.342   4.527   5.860  0.4548  0.2142 -0.2086
  103OSM    C2F10400   4.299   4.632   5.651  0.2040 -0.0964 -0.0796
  103OSM    H2F10401   4.390   4.688   5.679  0.9038 -1.6009  0.7192
  103OSM    H2G10402   4.216   4.702   5.627  1.5819  1.7075  0.3200
  103OSM    C3F10403   4.341   4.531   5.541  0.6745  0.2378 -0.1041
  103OSM    H3F10404   4.251   4.480   5.499 -0.1232  0.7085  1.0018
  103OSM    H3G10405   4.395   4.447   5.589  1.5073  0.7536 -0.1412
  103OSM    C4F10406   4.436   4.584   5.436  0.3517  0.3137 -0.4676
  103OSM    H4F10407   4.466   4.491   5.383 -1.2522  0.5900 -1.9066
  103OSM    H4G10408   4.525   4.630   5.483 -1.0757  0.7137  1.9506
  103OSM    C5F10409   4.380   4.677   5.334 -0.7218 -0.0498  0.3974
  103OSM    H5F10410   4.278   4.654   5.298 -0.0142 -0.5435 -1.3699
  103OSM    H5G10411   4.443   4.646   5.248 -0.2915 -0.1342  0.7418
  103OSM    C6F10412   4.406   4.821   5.360  0.1774 -0.1029  0.0417
  103OSM    H6F10413   4.506   4.851   5.397 -0.6324  0.7160  1.6242
  103OSM    H6G10414   4.324   4.849   5.430 -0.7676  1.6780 -1.7333
  103OSM    C7F10415   4.396   4.912   5.236 -0.6171  0.4660  0.7574
  103OSM    H7F10416   4.466   4.856   5.170 -1.5610  0.8830 -0.6119
  103OSM    H7G10417   4.435   5.014   5.256 -0.4721  1.3115 -3.3498
  103OSM    C8F10418   4.263   4.916   5.168  0.0217 -0.4517  0.5256
  103OSM    H8F10419   4.183   4.983   5.207  1.7170  2.3394 -0.6637
  103OSM    H8G10420   4.215   4.818   5.187 -0.4292  0.3457  3.7561
  103OSM    C9F10421   4.279   4.936   5.022  0.6770  1.1461 -0.3054
  103OSM    H9F10422   4.315   4.839   4.985  1.1239  0.7189  1.2100
  103OSM   C10F10423   4.247   5.030   4.931 -0.2129 -0.4720  0.1711
  103OSM   H10F10424   4.292   5.023   4.831  2.2577  1.5546  1.0665
  103OSM   C11F10425   4.171   5.154   4.968  1.6098  0.1749  0.3819
  103OSM   H11F10426   4.237   5.242   4.984 -0.1334  1.8665 -1.3556
  103OSM   H11G10427   4.112   5.145   5.062 -1.2939 -1.4402 -1.5277
  103OSM   C12F10428   4.074   5.176   4.851  0.3503  0.0198 -0.7202
  103OSM   H12F10429   4.013   5.085   4.837 -0.4081  0.1527  1.5523
  103OSM   H12G10430   4.119   5.197   4.751  0.9095  0.5809 -0.3547
  103OSM   C13F10431   3.977   5.296   4.880  0.4217  0.5091  0.4471
  103OSM   H13F10432   4.027   5.395   4.892  1.1758  0.8755 -4.6146
  103OSM   H13G10433   3.927   5.290   4.979 -0.7930  1.1423 -0.1188
  103OSM   C14F10434   3.872   5.304   4.771 -0.3844  0.1522  0.3340
  103OSM   H14F10435   3.772   5.332   4.811 -0.0967  0.3575  0.9210
  103OSM   H14G10436   3.867   5.201   4.731 -0.8725  0.2085  0.2554
  103OSM   C15F10437   3.907   5.392   4.655  0.0155 -0.1978 -0.2743
  103OSM   H15F10438   3.835   5.372   4.573 -0.0902  1.2068 -0.5428
  103OSM   H15G10439   4.011   5.373   4.621 -0.4426  0.4896 -2.1437
  103OSM   C16F10440   3.900   5.543   4.691  0.0999 -0.5665  0.0473
  103OSM   H16F10441   3.972   5.560   4.774  1.8519 -0.4150 -1.4633
  103OSM   H16G10442   3.798   5.572   4.722  0.1441 -1.9174  1.5091
  103OSM   C17F10443   3.935   5.640   4.577 -0.0759  0.4047  0.4280
  103OSM   H17F10444   3.901   5.741   4.609  0.8145  1.1430 -0.9386
  103OSM   H17G10445   3.868   5.631   4.489  0.2640  1.3891  0.0577
  103OSM   C18F10446   4.083   5.640   4.543 -0.0397 -0.6608  0.5937
  103OSM   H18F10447   4.143   5.627   4.635 -0.4068  0.0106  0.9322
  103OSM   H18G10448   4.105   5.728   4.479 -0.3621 -1.3330 -0.4535
  103OSM   H18H10449   4.102   5.551   4.480  1.2767 -0.3030  0.4893
  104OSM      N10450   4.601   3.738   6.330 -0.8595 -0.4716 -0.6742
  104OSM    C1510451   4.470   3.699   6.395 -0.6590  0.4337 -0.6596
  104OSM   H15A10452   4.403   3.685   6.312  0.5846  0.1692 -1.6368
  104OSM   H15B10453   4.433   3.773   6.465 -0.1522  0.0426  0.0273
  104OSM   H15C10454   4.483   3.602   6.440 -1.7421  1.0177  0.9883
  104OSM    C1410455   4.580   3.884   6.273 -0.1525 -0.5961 -0.0843
  104OSM   H14A10456   4.668   3.923   6.224  0.2708 -3.7454 -1.9530
  104OSM   H14B10457   4.562   3.950   6.357 -2.0744 -2.3489  0.9165
  104OSM   H14C10458   4.500   3.891   6.201  2.2554  0.8953 -2.7237
  104OSM    C1310459   4.708   3.741   6.436  0.4223  0.4377  0.5385
  104OSM   H13A10460   4.709   3.834   6.492 -1.6384  0.5580  0.4056
  104OSM   H13B10461   4.806   3.740   6.390 -0.9191 -2.6555 -2.4397
  104OSM   H13C10462   4.693   3.664   6.509  1.0565  0.3108  0.5357
  104OSM    C1210463   4.643   3.648   6.210 -0.2669  1.1942 -0.0961
  104OSM   H12A10464   4.747   3.665   6.185 -0.5853  2.2337 -0.7089
  104OSM   H12B10465   4.592   3.672   6.118 -3.1676  2.1473  1.6892
  104OSM    C1110466   4.632   3.494   6.234  0.6683 -0.4268  0.0477
  104OSM   H11A10467   4.644   3.448   6.134  0.2059  2.3302 -1.3361
  104OSM   H11B10468   4.523   3.485   6.251  0.6676  1.8527  1.6150
  104OSM      P10469   4.868   3.432   6.329  0.3079 -0.1997  0.2637
  104OSM    O1310470   4.919   3.508   6.441  0.1471 -0.0628  0.1028
  104OSM    O1410471   4.898   3.288   6.321  0.0196 -0.5083 -0.5862
  104OSM    O1110472   4.909   3.498   6.192 -0.0753  0.6169 -1.0164
  104OSM    O1210473   4.709   3.449   6.339 -0.2645  0.2847  0.1296
  104OSM    C1S10474   5.047   3.545   6.162  0.6647 -0.0458  0.5174
  104OSM    H1S10475   5.104   3.552   6.257  1.1623 -0.0764  0.2220
  104OSM    H1T10476   5.044   3.645   6.112 -0.9976 -0.9531 -1.2813
  104OSM     NF10477   5.243   3.503   6.018 -0.2056  0.0082 -0.0103
  104OSM    HNF10478   5.228   3.572   5.947 -1.9860  0.6563  0.9574
  104OSM    C2S10479   5.122   3.443   6.071  0.3203  0.2552  0.5757
  104OSM    H2S10480   5.154   3.359   6.136  1.0341 -0.2039 -0.3570
  104OSM    C3S10481   5.029   3.388   5.952 -0.0630 -0.2242  0.0453
  104OSM    H3S10482   4.988   3.466   5.884 -0.2094 -0.3301  0.0133
  104OSM     O310483   4.910   3.312   5.984  0.1354  0.5015 -0.2155
  104OSM    HO310484   4.898   3.335   6.076 -2.7477  2.1388 -0.9518
  104OSM    C4S10485   5.104   3.290   5.866 -0.7177  0.4940  0.4288
  104OSM    H4S10486   5.097   3.185   5.899 -1.2798  0.5413  0.4662
  104OSM    C5S10487   5.156   3.319   5.746 -0.0312 -0.2335  0.3659
  104OSM    H5S10488   5.138   3.415   5.697 -1.3836  0.4183  2.0706
  104OSM    C6S10489   5.228   3.221   5.655  0.0600  0.1001  0.0736
  104OSM    H6S10490   5.241   3.125   5.709 -2.1977  0.5300  1.4698
  104OSM    H6T10491   5.331   3.254   5.630 -0.0668  0.2383 -0.2738
  104OSM    C7S10492   5.150   3.192   5.525 -0.3560  0.4313 -0.3944
  104OSM    H7S10493   5.118   3.289   5.481 -0.1595  0.9444  0.5678
  104OSM    H7T10494   5.053   3.142   5.547 -0.3586  1.6594  2.5866
  104OSM    C8S10495   5.230   3.108   5.416 -0.3911 -0.0739 -0.2977
  104OSM    H8S10496   5.252   3.014   5.471  0.7436  0.5904  0.4180
  104OSM    H8T10497   5.327   3.163   5.410  0.6026 -1.8175 -0.4995
  104OSM    C9S10498   5.159   3.082   5.287  0.3018  0.7050  0.2908
  104OSM    H9S10499   5.079   3.006   5.303  1.8917 -1.1596 -0.3959
  104OSM    H9T10500   5.228   3.036   5.213  2.0741  1.6242  1.3702
  104OSM   C10S10501   5.108   3.212   5.213  0.2245 -0.2484 -0.2576
  104OSM   H10S10502   5.048   3.266   5.289 -0.1200  2.9124 -2.6674
  104OSM   H10T10503   5.036   3.175   5.136  1.3744  0.8258 -1.8765
  104OSM   C11S10504   5.219   3.312   5.167 -0.3224  0.3141  0.3837
  104OSM   H11S10505   5.282   3.241   5.110 -0.3568 -0.3288  1.1295
  104OSM   H11T10506   5.273   3.364   5.249  1.3613 -0.9105  0.0736
  104OSM   C12S10507   5.160   3.424   5.077 -0.3775  0.2591  0.4976
  104OSM   H12S10508   5.235   3.505   5.063  0.4300 -0.7601 -1.2650
  104OSM   H12T10509   5.073   3.471   5.128 -2.3836 -1.6465 -1.0247
  104OSM   C13S10510   5.128   3.370   4.939 -0.0803 -0.0990 -0.0593
  104OSM   H13S10511   5.047   3.294   4.942 -0.1790  0.0129  0.0761
  104OSM   H13T10512   5.215   3.320   4.890 -0.7114  0.1842 -1.5024
  104OSM   C14S10513   5.089   3.486   4.840  0.0969 -0.4561 -0.0927
  104OSM   H14S10514   5.158   3.571   4.860 -0.4216  0.2547 -1.2757
  104OSM   H14T10515   4.984   3.510   4.869  0.1385  0.8458 -1.0050
  104OSM   C15S10516   5.087   3.454   4.688  0.0209  0.2394 -0.5885
  104OSM   H15S10517   5.002   3.393   4.652  1.2311 -0.9837 -1.4497
  104OSM   H15T10518   5.179   3.411   4.643  0.4273  0.3227  0.1655
  104OSM   C16S10519   5.068   3.592   4.618 -0.5414 -0.5141  0.4409
  104OSM   H16S10520   5.145   3.666   4.647 -0.8563  0.4991 -1.2600
  104OSM   H16T10521   4.973   3.633   4.658  0.3088  0.9880  0.9234
  104OSM   C17S10522   5.076   3.587   4.463 -0.0982  0.4994 -0.3055
  104OSM   H17S10523   5.012   3.499   4.440 -0.4701  0.2000  1.8073
  104OSM   H17T10524   5.180   3.570   4.429 -0.6738 -0.8215 -1.4570
  104OSM   C18S10525   5.016   3.709   4.389  0.6790  0.5948 -0.6359
  104OSM   H18S10526   5.068   3.805   4.409  0.9549  0.4139 -0.4861
  104OSM   H18T10527   4.911   3.722   4.424  0.6130  0.8678 -0.9294
  104OSM   H18U10528   5.016   3.696   4.279 -0.1945  1.7752 -0.7904
  104OSM    C1F10529   5.354   3.524   6.096  0.2212 -0.0214 -0.5146
  104OSM     OF10530   5.350   3.482   6.216  0.4218 -0.5757 -0.4747
  104OSM    C2F10531   5.467   3.615   6.047  0.5052  0.2104  0.6933
  104OSM    H2F10532   5.565   3.568   6.071 -0.2203 -0.0197  3.3518
  104OSM    H2G10533   5.467   3.714   6.098  1.9702 -0.2149  1.5566
  104OSM    C3F10534   5.472   3.630   5.895 -0.5827 -1.0840  0.7869
  104OSM    H3F10535   5.380   3.681   5.861  0.1529  1.2177  2.1139
  104OSM    H3G10536   5.493   3.534   5.843  2.8756 -0.8287  1.5869
  104OSM    C4F10537   5.595   3.713   5.849  0.0007  0.4043 -0.1072
  104OSM    H4F10538   5.690   3.678   5.894  1.4194  1.2906 -2.3201
  104OSM    H4G10539   5.583   3.814   5.894 -0.4166  0.5834 -0.6230
  104OSM    C5F10540   5.624   3.714   5.696  0.2937  0.1329  0.4541
  104OSM    H5F10541   5.689   3.802   5.681  0.2744  0.2055  0.7967
  104OSM    H5G10542   5.527   3.736   5.645  1.2706  0.2370 -1.4011
  104OSM    C6F10543   5.687   3.586   5.636  1.2249 -0.4953 -0.6107
  104OSM    H6F10544   5.605   3.511   5.643 -0.1583  1.2665  3.4145
  104OSM    H6G10545   5.771   3.563   5.705  0.8583 -0.1243 -0.0379
  104OSM    C7F10546   5.729   3.605   5.496  0.4100 -0.1858  0.1129
  104OSM    H7F10547   5.797   3.525   5.459 -0.7693 -0.8735 -0.6245
  104OSM    H7G10548   5.795   3.694   5.490 -0.3608  0.3766 -0.1009
  104OSM    C8F10549   5.612   3.620   5.386 -0.5813 -0.0145 -0.1544
  104OSM    H8F10550   5.654   3.668   5.295  1.6367 -0.5632  0.5597
  104OSM    H8G10551   5.541   3.696   5.425 -0.2108  1.0238 -1.4724
  104OSM    C9F10552   5.540   3.486   5.368 -0.4910 -1.3078  0.2786
  104OSM    H9F10553   5.483   3.455   5.457 -1.0185  3.3022  1.6656
  104OSM   C10F10554   5.549   3.401   5.261  0.4636  0.4302  0.4151
  104OSM   H10F10555   5.495   3.307   5.278 -0.7205  1.3963  2.2235
  104OSM   C11F10556   5.632   3.423   5.131  0.6579  0.7304  0.5225
  104OSM   H11F10557   5.693   3.331   5.118 -3.4603 -2.2725  1.0285
  104OSM   H11G10558   5.697   3.512   5.138 -1.2854  2.2380 -0.1358
  104OSM   C12F10559   5.541   3.444   5.015  0.7652 -0.1138  0.1021
  104OSM   H12F10560   5.475   3.528   5.046 -1.0585 -1.3865 -0.2190
  104OSM   H12G10561   5.468   3.360   5.008 -1.2204  1.3899  1.8322
  104OSM   C13F10562   5.615   3.475   4.888 -0.0122 -0.2567  0.0529
  104OSM   H13F10563   5.717   3.432   4.902 -0.0423 -1.0717 -2.1122
  104OSM   H13G10564   5.627   3.585   4.887  0.0208 -0.2715 -1.3283
  104OSM   C14F10565   5.545   3.426   4.759  0.6084 -0.5337 -0.7411
  104OSM   H14F10566   5.448   3.480   4.766  1.5214  0.9126  1.4234
  104OSM   H14G10567   5.525   3.317   4.762  1.4947 -0.6637  1.1867
  104OSM   C15F10568   5.615   3.463   4.630  0.2615  0.4355  0.2210
  104OSM   H15F10569   5.705   3.399   4.617  0.0173  0.2023 -0.3359
  104OSM   H15G10570   5.647   3.570   4.636 -0.5221  0.6345  0.8902
  104OSM   C16F10571   5.533   3.457   4.506 -0.3834 -0.2148 -0.1228
  104OSM   H16F10572   5.449   3.528   4.524 -0.1717  0.6969 -2.4692
  104OSM   H16G10573   5.508   3.351   4.486 -3.1538  0.4751 -0.4928
  104OSM   C17F10574   5.621   3.501   4.391  0.2626  0.4495 -0.3093
  104OSM   H17F10575   5.703   3.427   4.376  0.6740  0.7594  0.4293
  104OSM   H17G10576   5.668   3.600   4.408 -0.2678  0.5208  0.7720
  104OSM   C18F10577   5.536   3.516   4.264 -0.1948 -0.5091 -0.2423
  104OSM   H18F10578   5.534   3.421   4.207  2.3846 -0.6016 -0.2457
  104OSM   H18G10579   5.594   3.587   4.202  1.2547 -1.7572 -0.3345
  104OSM   H18H10580   5.433   3.555   4.281 -0.3328 -1.3559  0.9164
  105OSM      N10581   5.115   3.842   6.420  0.1337  0.2934  0.6167
  105OSM    C1510582   5.241   3.779   6.366  0.4613 -0.1976  0.3365
  105OSM   H15A10583   5.317   3.783   6.442 -0.2009  2.2442  0.9004
  105OSM   H15B10584   5.271   3.845   6.286  0.3630 -0.3693  0.1550
  105OSM   H15C10585   5.229   3.674   6.340  2.9944 -1.1912  2.9660
  105OSM    C1410586   5.002   3.819   6.330 -0.0648 -0.1077 -0.3251
  105OSM   H14A10587   4.987   3.712   6.322  1.1503 -0.1091 -3.0151
  105OSM   H14B10588   5.022   3.853   6.230  1.4165 -1.4560 -0.5098
  105OSM   H14C10589   4.910   3.869   6.357 -1.2611 -1.0525 -2.4950
  105OSM    C1310590   5.096   3.766   6.543  0.1384 -0.1345  0.1839
  105OSM   H13A10591   5.073   3.662   6.527 -2.0449  0.5403 -1.3401
  105OSM   H13B10592   5.010   3.816   6.585  0.2588  1.5471 -1.5428
  105OSM   H13C10593   5.170   3.776   6.622  0.0438  1.4784  0.0891
  105OSM    C1210594   5.131   3.995   6.439  0.8949  0.0227  0.2717
  105OSM   H12A10595   5.131   4.039   6.340 -1.2990  0.1910  0.3174
  105OSM   H12B10596   5.224   4.020   6.487  0.7684  0.1193  0.4646
  105OSM    C1110597   5.021   4.075   6.521  0.1908  0.3320 -0.1024
  105OSM   H11A10598   5.050   4.181   6.503 -0.8046  1.1042  2.5099
  105OSM   H11B10599   5.039   4.058   6.630 -2.4303  0.1327  0.3325
  105OSM      P10600   4.774   4.136   6.459  0.3646 -0.0993 -0.2200
  105OSM    O1310601   4.648   4.072   6.498 -0.3948  0.3874  0.4437
  105OSM    O1410602   4.803   4.262   6.526 -0.2340  0.1982  0.0212
  105OSM    O1110603   4.759   4.149   6.293 -0.6923  0.0334 -0.4063
  105OSM    O1210604   4.894   4.034   6.490  0.0343  0.4059  0.0044
  105OSM    C1S10605   4.892   4.159   6.236 -0.1759 -0.3944  0.3288
  105OSM    H1S10606   4.956   4.073   6.263  0.7252  0.4177  0.7874
  105OSM    H1T10607   4.937   4.257   6.261 -0.5935 -0.1115 -0.0118
  105OSM     NF10608   5.013   4.182   6.035 -0.7416  0.2859  0.3171
  105OSM    HNF10609   5.044   4.272   6.006  0.8694 -0.1727  0.6011
  105OSM    C2S10610   4.879   4.170   6.083  0.1228 -0.2753 -0.2776
  105OSM    H2S10611   4.825   4.084   6.038  1.4313 -0.9239 -0.6152
  105OSM    C3S10612   4.789   4.292   6.055 -0.6883  0.3942  0.5752
  105OSM    H3S10613   4.836   4.378   6.107  0.9251  1.0469 -1.9076
  105OSM     O310614   4.658   4.266   6.098 -0.3805 -0.7950 -0.1743
  105OSM    HO310615   4.675   4.197   6.161  1.4226 -0.5821 -0.4044
  105OSM    C4S10616   4.790   4.327   5.908  0.3145 -0.3990 -0.4303
  105OSM    H4S10617   4.758   4.246   5.841 -1.5629 -0.1852  0.1736
  105OSM    C5S10618   4.791   4.448   5.852 -0.0169 -0.5571 -0.2566
  105OSM    H5S10619   4.804   4.540   5.912 -1.9611 -0.6178  0.2892
  105OSM    C6S10620   4.801   4.469   5.705  0.3515  0.5807  0.2839
  105OSM    H6S10621   4.879   4.544   5.678 -0.9293  2.3295  1.3458
  105OSM    H6T10622   4.699   4.503   5.678  0.0686 -1.0254 -0.7449
  105OSM    C7S10623   4.828   4.360   5.607 -0.3574  0.2328  0.1826
  105OSM    H7S10624   4.749   4.282   5.604  1.7941 -2.1108  2.2255
  105OSM    H7T10625   4.928   4.320   5.634 -0.6289 -0.9910 -0.5969
  105OSM    C8S10626   4.829   4.411   5.458 -0.5011 -0.1040 -0.8577
  105OSM    H8S10627   4.890   4.504   5.461 -1.3134  0.4235 -0.4741
  105OSM    H8T10628   4.724   4.435   5.431 -1.4823  0.7094  3.2746
  105OSM    C9S10629   4.906   4.316   5.371 -1.2735 -0.2941  0.6074
  105OSM    H9S10630   4.852   4.220   5.385 -1.6559 -0.2401 -0.4504
  105OSM    H9T10631   5.006   4.311   5.419  0.2920  0.0130 -2.4971
  105OSM   C10S10632   4.899   4.364   5.228  0.9127 -0.8895 -0.6291
  105OSM   H10S10633   4.951   4.462   5.221 -3.1476  1.5188  1.2413
  105OSM   H10T10634   4.793   4.386   5.200 -0.3399 -1.9745  2.9470
  105OSM   C11S10635   4.986   4.264   5.135 -0.6923  0.1548  0.6420
  105OSM   H11S10636   5.082   4.240   5.185 -1.3775 -0.6159  1.6098
  105OSM   H11T10637   5.010   4.337   5.055  1.0125 -0.1366  0.8792
  105OSM   C12S10638   4.914   4.139   5.091 -0.2275  0.0389  0.3870
  105OSM   H12S10639   4.880   4.086   5.183 -1.1536  0.3277  0.2174
  105OSM   H12T10640   4.979   4.063   5.043  2.9634  0.3642  3.9775
  105OSM   C13S10641   4.785   4.166   5.005  0.7702  0.8635 -0.0038
  105OSM   H13S10642   4.708   4.218   5.065  0.8181 -0.8271  1.5423
  105OSM   H13T10643   4.743   4.070   4.968  2.0966 -0.0009  0.6912
  105OSM   C14S10644   4.808   4.255   4.886  0.9239  0.0096  0.0297
  105OSM   H14S10645   4.872   4.344   4.903  0.1185  0.5103  0.5241
  105OSM   H14T10646   4.708   4.303   4.870  0.4707 -0.7657  0.5054
  105OSM   C15S10647   4.871   4.204   4.758  0.2136  0.3403 -0.2852
  105OSM   H15S10648   4.812   4.235   4.669  0.9485  0.3616 -0.7608
  105OSM   H15T10649   4.865   4.093   4.763  0.5243  0.2287 -2.1416
  105OSM   C16S10650   5.017   4.247   4.754 -0.2575 -0.3550  0.5506
  105OSM   H16S10651   5.071   4.195   4.836  0.0959  0.7351  1.0211
  105OSM   H16T10652   5.018   4.358   4.765 -0.3406 -0.4691  1.8021
  105OSM   C17S10653   5.076   4.221   4.614  0.2759 -0.0720  0.2436
  105OSM   H17S10654   5.037   4.121   4.588 -0.3428 -0.0082  0.9217
  105OSM   H17T10655   5.187   4.223   4.623  0.2577  2.8532  0.3274
  105OSM   C18S10656   5.036   4.334   4.514 -0.2686  0.5307 -0.0726
  105OSM   H18S10657   5.094   4.428   4.530 -0.8348  0.7462  0.7708
  105OSM   H18T10658   4.930   4.366   4.524 -0.4559  0.3431 -1.3693
  105OSM   H18U10659   5.050   4.278   4.419 -1.5361 -1.4918  0.8964
  105OSM    C1F10660   5.092   4.076   6.022 -0.4671 -0.6000  0.4855
  105OSM     OF10661   5.040   3.966   6.040 -0.6353 -0.2918 -0.2504
  105OSM    C2F10662   5.239   4.098   5.992  0.3530 -0.1218  0.2140
  105OSM    H2F10663   5.289   4.000   6.002 -0.1128 -0.4905 -1.0382
  105OSM    H2G10664   5.274   4.178   6.061  0.8803 -0.1266 -0.0515
  105OSM    C3F10665   5.261   4.159   5.856  0.1640 -0.0482  0.1180
  105OSM    H3F10666   5.369   4.185   5.856  0.7875 -2.5027  0.2297
  105OSM    H3G10667   5.211   4.258   5.848 -0.4906 -0.4381 -0.6198
  105OSM    C4F10668   5.215   4.064   5.736 -0.6265 -0.1664 -0.5464
  105OSM    H4F10669   5.105   4.063   5.723 -0.5862 -1.7439 -0.8679
  105OSM    H4G10670   5.247   3.961   5.763  2.6828  0.8086 -0.5680
  105OSM    C5F10671   5.297   4.097   5.608 -0.4903 -0.4017  0.1343
  105OSM    H5F10672   5.403   4.097   5.644 -0.4309  0.1927 -0.0274
  105OSM    H5G10673   5.281   4.202   5.574  1.6798  0.2409  0.9392
  105OSM    C6F10674   5.290   3.999   5.493 -0.5176  0.0750  0.3078
  105OSM    H6F10675   5.316   3.900   5.535  0.1700  0.5403  0.9980
  105OSM    H6G10676   5.374   4.039   5.433 -0.1353  0.6814  1.2262
  105OSM    C7F10677   5.168   3.982   5.391 -0.2147  0.8280  0.4447
  105OSM    H7F10678   5.124   4.080   5.363 -0.5850  0.2267 -1.0931
  105OSM    H7G10679   5.090   3.921   5.443 -1.3036  2.0883  0.3066
  105OSM    C8F10680   5.206   3.911   5.266  0.9631  0.4641 -0.1397
  105OSM    H8F10681   5.115   3.916   5.204 -0.4801 -4.5725  1.3671
  105OSM    H8G10682   5.236   3.805   5.282  2.2613  1.0614  1.5960
  105OSM    C9F10683   5.323   3.981   5.197  0.1771 -0.9541  0.4709
  105OSM    H9F10684   5.338   4.083   5.236 -2.9282 -0.5429  0.7599
  105OSM   C10F10685   5.394   3.938   5.089 -0.4429  0.3674  0.6918
  105OSM   H10F10686   5.487   3.989   5.062  1.3027 -2.2840  1.4765
  105OSM   C11F10687   5.376   3.809   5.007 -0.2601  0.5645 -0.4730
  105OSM   H11F10688   5.291   3.749   5.045  1.5128 -2.1299 -0.6630
  105OSM   H11G10689   5.470   3.753   5.022 -1.5000 -1.5798 -0.5349
  105OSM   C12F10690   5.347   3.831   4.852  0.0253 -0.3370 -0.5619
  105OSM   H12F10691   5.245   3.875   4.842  0.2986  0.2064 -0.9599
  105OSM   H12G10692   5.357   3.737   4.793 -3.1095 -0.4628 -1.0008
  105OSM   C13F10693   5.455   3.928   4.793 -0.5062 -0.7874 -0.0234
  105OSM   H13F10694   5.559   3.911   4.831  0.0098  0.5869 -0.7962
  105OSM   H13G10695   5.425   4.029   4.829 -0.0674 -0.3909 -0.7475
  105OSM   C14F10696   5.469   3.911   4.638 -0.0663  0.0751 -0.3066
  105OSM   H14F10697   5.466   3.808   4.598  0.1562  0.2474 -0.7859
  105OSM   H14G10698   5.567   3.958   4.611 -0.1339  0.6830  0.4906
  105OSM   C15F10699   5.356   3.994   4.571  0.2131 -0.7075  0.2005
  105OSM   H15F10700   5.365   4.104   4.572 -2.3102 -0.4629 -0.3292
  105OSM   H15G10701   5.259   3.974   4.623  0.4026 -0.5282  0.6221
  105OSM   C16F10702   5.325   3.945   4.427 -0.5900  0.0929 -0.1521
  105OSM   H16F10703   5.239   4.003   4.387  0.1962  2.4881  1.5389
  105OSM   H16G10704   5.296   3.840   4.448  3.2524 -0.4694  2.9039
  105OSM   C17F10705   5.436   3.971   4.319  0.7440  0.0043  0.2179
  105OSM   H17F10706   5.387   3.971   4.219  2.0189 -1.7641 -0.4340
  105OSM   H17G10707   5.524   3.906   4.301  0.5735 -0.4936  1.1585
  105OSM   C18F10708   5.485   4.118   4.329 -0.3026  0.0701  0.1575
  105OSM   H18F10709   5.403   4.191   4.340  1.1612  1.5484  1.6516
  105OSM   H18G10710   5.553   4.138   4.243 -1.4582  1.7181 -0.3914
  105OSM   H18H10711   5.547   4.127   4.421 -3.3577 -1.1474  2.3969
  106OSM      N10712   4.361   0.850   6.663  0.2664 -1.2379  0.1934
  106OSM    C1510713   4.420   0.715   6.635  0.5646 -0.3485 -0.5827
  106OSM   H15A10714   4.430   0.696   6.529 -0.3275  1.3447 -0.9780
  106OSM   H15B10715   4.357   0.639   6.678  2.3726 -0.2567  2.3361
  106OSM   H15C10716   4.512   0.708   6.692  0.5241  1.4171 -0.2903
  106OSM    C1410717   4.335   0.853   6.814  0.5733  0.1655  0.3092
  106OSM   H14A10718   4.419   0.813   6.869  0.8479  0.1095 -0.1543
  106OSM   H14B10719   4.245   0.795   6.831 -0.3448  1.3302 -0.5166
  106OSM   H14C10720   4.323   0.952   6.855  0.5835  1.4826 -2.7805
  106OSM    C1310721   4.469   0.955   6.633  0.0364  0.3873 -0.1528
  106OSM   H13A10722   4.553   0.940   6.699  0.0550  2.2893  0.2920
  106OSM   H13B10723   4.420   1.050   6.651 -1.8651 -0.7326  0.7085
  106OSM   H13C10724   4.483   0.952   6.526 -1.5309  0.3774 -0.3787
  106OSM    C1210725   4.233   0.875   6.581 -0.3268  0.3597  0.3627
  106OSM   H12A10726   4.204   0.972   6.619 -0.5021  0.3118  0.3521
  106OSM   H12B10727   4.169   0.800   6.626  2.4408 -1.4152  1.4636
  106OSM    C1110728   4.238   0.866   6.430 -0.2336 -0.8534  0.5312
  106OSM   H11A10729   4.133   0.862   6.392 -0.5301  0.5910  1.1658
  106OSM   H11B10730   4.291   0.773   6.400  1.3320 -0.0617  0.7880
  106OSM      P10731   4.335   0.962   6.219 -0.2636  0.1732  0.0803
  106OSM    O1310732   4.390   1.087   6.164  0.3369  0.0857 -0.3552
  106OSM    O1410733   4.413   0.845   6.202 -0.2260  0.0961 -0.2970
  106OSM    O1110734   4.192   0.942   6.164 -0.0188  0.6297 -1.0714
  106OSM    O1210735   4.306   0.978   6.377  0.2879  0.4538  0.3191
  106OSM    C1S10736   4.143   0.980   6.035  0.6985  0.0258  0.0800
  106OSM    H1S10737   4.212   0.938   5.959  0.0746 -0.4761 -0.2122
  106OSM    H1T10738   4.146   1.091   6.033  2.7587 -0.0008  0.5855
  106OSM     NF10739   3.972   0.933   5.866  0.9345 -0.2904 -0.3931
  106OSM    HNF10740   3.903   0.995   5.831  1.3996  0.7458  0.5090
  106OSM    C2S10741   4.000   0.924   6.010  0.2261 -0.3397  0.6760
  106OSM    H2S10742   3.997   0.818   6.045  0.3715  0.0416  1.8602
  106OSM    C3S10743   3.898   1.010   6.095 -0.0211  0.1365 -0.4771
  106OSM    H3S10744   3.914   1.117   6.068 -2.1441  0.7731  0.7390
  106OSM     O310745   3.925   1.009   6.237  0.4280 -0.2662  0.7106
  106OSM    HO310746   4.015   0.976   6.247  1.1433  1.6026  0.6401
  106OSM    C4S10747   3.762   0.969   6.066 -0.2822  0.3306 -0.2572
  106OSM    H4S10748   3.733   0.865   6.088  0.3131  0.7432  2.6469
  106OSM    C5S10749   3.660   1.052   6.025  0.4615  0.3790  0.4220
  106OSM    H5S10750   3.676   1.160   6.019 -0.5957  0.6410  2.1135
  106OSM    C6S10751   3.520   1.015   5.998  0.4316  0.3171  0.1161
  106OSM    H6S10752   3.461   1.016   6.093 -0.2055  0.5416 -0.2796
  106OSM    H6T10753   3.520   0.909   5.964 -1.5718  0.3435 -0.0146
  106OSM    C7S10754   3.460   1.102   5.881 -0.7932 -0.4128  0.5504
  106OSM    H7S10755   3.444   1.205   5.918 -0.0051 -0.2527  0.4475
  106OSM    H7T10756   3.356   1.068   5.858 -2.1842  2.3886  2.3547
  106OSM    C8S10757   3.546   1.102   5.753  0.5620 -0.1720  0.5800
  106OSM    H8S10758   3.647   1.148   5.761  0.9837 -0.7422 -1.2675
  106OSM    H8T10759   3.489   1.164   5.681 -0.0221 -2.7086 -1.1873
  106OSM    C9S10760   3.570   0.962   5.701  0.6396  0.7592 -0.6893
  106OSM    H9S10761   3.474   0.906   5.697  1.4085 -0.4341 -2.8948
  106OSM    H9T10762   3.633   0.903   5.771  1.7898  2.7379 -0.0161
  106OSM   C10S10763   3.637   0.958   5.568  0.5657 -0.2110  0.0468
  106OSM   H10S10764   3.690   0.861   5.559 -0.2702 -0.8729  2.0168
  106OSM   H10T10765   3.711   1.041   5.569  1.6939 -1.1674 -1.2793
  106OSM   C11S10766   3.544   0.961   5.444  0.4730 -0.2214 -0.2259
  106OSM   H11S10767   3.538   1.066   5.409  0.1521  0.1668  0.9708
  106OSM   H11T10768   3.441   0.940   5.481  0.3057  2.0337  0.6663
  106OSM   C12S10769   3.579   0.852   5.341  0.0958 -0.2487 -0.0376
  106OSM   H12S10770   3.546   0.754   5.382 -2.2149  0.2178 -0.6964
  106OSM   H12T10771   3.689   0.842   5.327  0.1059 -1.3498  0.7869
  106OSM   C13S10772   3.529   0.881   5.195 -0.0124 -0.3578 -0.6607
  106OSM   H13S10773   3.564   0.978   5.155  1.3004  0.6628  2.8130
  106OSM   H13T10774   3.420   0.902   5.190 -0.0191 -0.4297 -0.8206
  106OSM   C14S10775   3.564   0.757   5.104  0.1250 -0.0948  0.1996
  106OSM   H14S10776   3.513   0.662   5.132  2.4098 -0.9569  1.5223
  106OSM   H14T10777   3.672   0.733   5.114  0.7120  2.5701  0.7630
  106OSM   C15S10778   3.537   0.783   4.954 -0.9929 -0.1132 -0.6367
  106OSM   H15S10779   3.624   0.739   4.901 -0.8807  1.6300 -1.9441
  106OSM   H15T10780   3.553   0.892   4.942  2.4754 -0.2095  2.2607
  106OSM   C16S10781   3.411   0.724   4.895 -0.1341 -0.4961 -0.0702
  106OSM   H16S10782   3.401   0.763   4.791 -1.7022 -1.4932 -0.3150
  106OSM   H16T10783   3.320   0.754   4.952 -1.0325 -0.0105 -1.7265
  106OSM   C17S10784   3.415   0.571   4.886 -0.3750 -0.6830  0.0566
  106OSM   H17S10785   3.418   0.531   4.989 -1.8076  0.2034  0.4611
  106OSM   H17T10786   3.506   0.546   4.827 -0.9124  0.7079 -1.4264
  106OSM   C18S10787   3.298   0.508   4.805 -0.5396 -0.1177  0.3899
  106OSM   H18S10788   3.274   0.407   4.844 -1.0842  0.3492  1.2893
  106OSM   H18T10789   3.316   0.497   4.696 -1.6703  0.1242  0.1721
  106OSM   H18U10790   3.213   0.578   4.822  0.2067  0.8633  0.1718
  106OSM    C1F10791   4.029   0.844   5.785  0.0061 -0.4881  0.6754
  106OSM     OF10792   4.098   0.756   5.829 -0.8038  0.5853 -0.2991
  106OSM    C2F10793   3.989   0.857   5.637  0.0618 -0.1697 -0.9189
  106OSM    H2F10794   4.010   0.962   5.606 -2.0085  0.7935  0.8621
  106OSM    H2G10795   3.879   0.845   5.641  0.1058 -0.2502  0.0910
  106OSM    C3F10796   4.061   0.758   5.547 -0.1907 -0.4271  0.2321
  106OSM    H3F10797   4.024   0.655   5.567  1.2972 -1.0121  0.0622
  106OSM    H3G10798   4.170   0.762   5.571 -0.2721  0.6636  0.4355
  106OSM    C4F10799   4.030   0.793   5.402 -0.4357  0.0525 -0.1406
  106OSM    H4F10800   4.047   0.902   5.389  2.6976 -0.2036  1.1571
  106OSM    H4G10801   3.926   0.769   5.372 -0.8262  0.5386  0.7982
  106OSM    C5F10802   4.126   0.730   5.306 -0.5814 -0.1007  0.4574
  106OSM    H5F10803   4.118   0.619   5.306 -0.5594 -0.1211  1.9430
  106OSM    H5G10804   4.234   0.756   5.313 -0.6517  0.3023  0.0786
  106OSM    C6F10805   4.098   0.785   5.163  0.1648  0.3003 -0.2632
  106OSM    H6F10806   4.187   0.784   5.098  0.0712 -0.2766 -0.3888
  106OSM    H6G10807   4.067   0.890   5.182 -1.1903 -0.5533  2.5242
  106OSM    C7F10808   3.995   0.690   5.088 -0.2397  0.0823  0.4936
  106OSM    H7F10809   3.904   0.671   5.148  0.6677 -1.7955  1.3215
  106OSM    H7G10810   4.039   0.589   5.070  0.4826  0.3885  0.5086
  106OSM    C8F10811   3.950   0.748   4.954 -0.4894  0.2191  0.5140
  106OSM    H8F10812   3.883   0.835   4.965 -1.6984 -0.2664 -2.5473
  106OSM    H8G10813   3.887   0.667   4.912 -0.2123 -0.1394  0.7885
  106OSM    C9F10814   4.065   0.793   4.864 -0.7439  0.2756 -0.1426
  106OSM    H9F10815   4.132   0.873   4.898 -0.8994 -0.5949  2.3771
  106OSM   C10F10816   4.102   0.743   4.747  0.0613  0.6556  0.0069
  106OSM   H10F10817   4.176   0.798   4.688 -0.3122  0.4233 -0.6773
  106OSM   C11F10818   4.042   0.626   4.677 -0.5210 -0.1751  0.0901
  106OSM   H11F10819   4.011   0.545   4.747 -0.5996  1.1594  1.6207
  106OSM   H11G10820   4.117   0.589   4.604 -1.3742  0.6488 -1.2310
  106OSM   C12F10821   3.914   0.667   4.594 -0.2799  0.6870  0.5671
  106OSM   H12F10822   3.840   0.699   4.671 -0.3239  2.2129 -0.0772
  106OSM   H12G10823   3.883   0.583   4.528 -0.2169  0.7691  0.4327
  106OSM   C13F10824   3.943   0.795   4.506 -0.5880  0.2553  0.3762
  106OSM   H13F10825   4.020   0.771   4.429 -1.1482 -1.6191  0.3640
  106OSM   H13G10826   3.974   0.884   4.565 -2.8390  0.4466  1.3138
  106OSM   C14F10827   3.807   0.832   4.445  0.3006  0.4015 -0.1656
  106OSM   H14F10828   3.816   0.923   4.381 -0.2090  1.6232  1.4900
  106OSM   H14G10829   3.733   0.856   4.524  0.8839  0.9856  0.2083
  106OSM   C15F10830   3.737   0.726   4.354  0.2710 -0.8337 -0.2149
  106OSM   H15F10831   3.714   0.630   4.404  0.9638 -0.3471  1.0484
  106OSM   H15G10832   3.815   0.693   4.282  2.1068 -0.8400  1.7305
  106OSM   C16F10833   3.613   0.792   4.285  0.5687  0.6120  0.4014
  106OSM   H16F10834   3.642   0.883   4.227  0.8058 -0.3410 -0.9996
  106OSM   H16G10835   3.536   0.815   4.361 -0.5856 -1.1657 -0.2065
  106OSM   C17F10836   3.551   0.703   4.172 -0.1704 -0.3892  0.6710
  106OSM   H17F10837   3.622   0.636   4.119  0.6180 -0.6250  2.0002
  106OSM   H17G10838   3.505   0.767   4.094 -0.6886 -1.5318  0.0294
  106OSM   C18F10839   3.426   0.612   4.207  0.2790  0.1665 -0.0194
  106OSM   H18F10840   3.383   0.575   4.111  1.1030  0.4155 -0.4922
  106OSM   H18G10841   3.345   0.655   4.269  0.5098  1.2490 -0.4664
  106OSM   H18H10842   3.465   0.525   4.264  0.3743  1.0800  1.3250
  107OSM      N10843   4.344   5.946   6.475  0.6953 -0.1946 -0.1006
  107OSM    C1510844   4.433   6.055   6.543 -0.1763 -0.7947  0.0809
  107OSM   H15A10845   4.392   6.153   6.528 -0.4511 -0.4942  2.6170
  107OSM   H15B10846   4.537   6.045   6.515  0.2686  2.6037  0.4001
  107OSM   H15C10847   4.430   6.037   6.650  2.6663  0.0825  0.3620
  107OSM    C1410848   4.317   5.975   6.338  0.1690  0.0523  0.7766
  107OSM   H14A10849   4.265   5.891   6.294 -0.9033  0.5906  1.0150
  107OSM   H14B10850   4.407   5.997   6.282 -0.4514  1.2102  0.2278
  107OSM   H14C10851   4.241   6.051   6.337  0.0557 -0.0524  1.7567
  107OSM    C1310852   4.421   5.818   6.482 -0.2332 -0.4726  0.2651
  107OSM   H13A10853   4.378   5.733   6.431 -0.5605  0.7614 -1.5886
  107OSM   H13B10854   4.444   5.788   6.583 -0.6541  0.0722  0.5280
  107OSM   H13C10855   4.511   5.838   6.425 -0.4721  0.8707  0.3410
  107OSM    C1210856   4.215   5.925   6.561  0.1403 -1.3870 -0.2717
  107OSM   H12A10857   4.244   5.875   6.653 -1.7805 -0.3713  0.9261
  107OSM   H12B10858   4.144   5.865   6.506 -1.0851  0.9111 -1.2579
  107OSM    C1110859   4.147   6.058   6.603 -0.1497 -0.5647 -0.4259
  107OSM   H11A10860   4.212   6.116   6.671  0.9107  0.8393 -2.5746
  107OSM   H11B10861   4.064   6.016   6.664 -0.3821  1.5895  0.7577
  107OSM      P10862   3.971   6.123   6.418 -0.1921 -0.0762  0.0481
  107OSM    O1310863   3.977   6.004   6.333 -0.0940  0.1555  0.0500
  107OSM    O1410864   3.858   6.130   6.514 -0.1263 -0.1474  0.0239
  107OSM    O1110865   3.961   6.253   6.329 -0.2443  0.2695  0.3468
  107OSM    O1210866   4.110   6.143   6.492 -0.5151  0.5282  0.1184
  107OSM    C1S10867   4.088   6.304   6.267 -0.1237  0.1729 -0.5707
  107OSM    H1S10868   4.184   6.278   6.316 -1.8433 -2.9140  1.2494
  107OSM    H1T10869   4.083   6.414   6.284 -0.2259  0.1087 -0.1982
  107OSM     NF10870   4.223   6.350   6.077  0.3398  0.4947  0.2700
  107OSM    HNF10871   4.222   6.441   6.036 -2.5750 -0.9055 -3.0493
  107OSM    C2S10872   4.098   6.287   6.118 -0.1381 -0.0629 -0.0504
  107OSM    H2S10873   4.095   6.180   6.092  0.4035  0.0968 -0.7975
  107OSM    C3S10874   3.977   6.357   6.054  0.1027  0.0164  0.9154
  107OSM    H3S10875   3.979   6.464   6.082  0.1757  0.3716 -0.3846
  107OSM     O310876   3.853   6.309   6.106  0.5388 -0.6639  0.2311
  107OSM    HO310877   3.883   6.246   6.172 -0.6284 -0.3522  1.0800
  107OSM    C4S10878   3.981   6.341   5.905 -0.3779  0.5043 -0.1216
  107OSM    H4S10879   3.999   6.431   5.844 -0.4047  1.3492  1.1144
  107OSM    C5S10880   3.965   6.226   5.837  0.3720  0.2903  0.0234
  107OSM    H5S10881   3.969   6.128   5.888  1.5103 -0.4819 -1.4988
  107OSM    C6S10882   3.966   6.214   5.688 -0.7936 -0.6535 -0.7000
  107OSM    H6S10883   3.898   6.136   5.648  2.4299 -1.3356 -5.1624
  107OSM    H6T10884   4.067   6.181   5.657 -0.9675 -0.2281 -1.7503
  107OSM    C7S10885   3.935   6.344   5.606  0.0287 -0.4359  0.2639
  107OSM    H7S10886   4.028   6.398   5.633 -0.3783  0.9017 -0.9930
  107OSM    H7T10887   3.846   6.400   5.644  0.8414  0.2466  1.1936
  107OSM    C8S10888   3.934   6.330   5.456  0.2108 -0.4873  0.4737
  107OSM    H8S10889   3.841   6.288   5.413  0.1918  1.0777 -1.0483
  107OSM    H8T10890   4.019   6.263   5.431  0.9010  0.7388 -0.5184
  107OSM    C9S10891   3.965   6.463   5.379  0.1385 -0.4836 -0.1651
  107OSM    H9S10892   4.050   6.510   5.433 -0.6266  0.3215  0.3677
  107OSM    H9T10893   3.878   6.529   5.401  0.7230 -0.4026  2.0739
  107OSM   C10S10894   3.985   6.435   5.228 -0.3976  0.0803 -0.0025
  107OSM   H10S10895   4.050   6.345   5.223  0.3063  0.6489 -1.3874
  107OSM   H10T10896   4.049   6.521   5.197  1.0587 -0.6210  1.0053
  107OSM   C11S10897   3.853   6.431   5.143 -0.0617  0.0710  0.6558
  107OSM   H11S10898   3.787   6.515   5.174  0.4833  1.6274 -2.1731
  107OSM   H11T10899   3.794   6.338   5.157 -1.2310  0.4956 -1.2649
  107OSM   C12S10900   3.877   6.440   4.994 -0.0608  0.0013  0.3878
  107OSM   H12S10901   3.919   6.542   4.979 -0.7810  0.2913  0.2924
  107OSM   H12T10902   3.789   6.424   4.928  0.3354  0.4793 -0.2623
  107OSM   C13S10903   3.981   6.334   4.952  0.0751  0.7459  0.3736
  107OSM   H13S10904   3.957   6.228   4.979  0.4249  0.5937  0.0924
  107OSM   H13T10905   4.072   6.379   4.997 -0.1178 -0.0873  1.6458
  107OSM   C14S10906   3.999   6.325   4.795  0.3867 -0.0077 -0.3408
  107OSM   H14S10907   4.030   6.423   4.751  0.9921  0.1137  0.3406
  107OSM   H14T10908   3.900   6.293   4.757 -0.1276 -0.0526  0.9877
  107OSM   C15S10909   4.098   6.223   4.755 -0.9922  0.2390 -0.1794
  107OSM   H15S10910   4.096   6.125   4.808 -0.5952  0.1949 -0.2467
  107OSM   H15T10911   4.196   6.270   4.777 -0.5067  0.3269 -2.3576
  107OSM   C16S10912   4.091   6.182   4.605  0.6543  0.2882 -0.0149
  107OSM   H16S10913   4.068   6.264   4.533  2.6081  1.0920  0.2503
  107OSM   H16T10914   4.004   6.114   4.597  1.7567 -1.0757 -0.5706
  107OSM   C17S10915   4.208   6.103   4.550 -0.1464  0.1003  0.7094
  107OSM   H17S10916   4.287   6.180   4.542  1.0154 -1.2887 -1.7550
  107OSM   H17T10917   4.185   6.071   4.446  4.0406 -2.9853  0.5870
  107OSM   C18S10918   4.249   5.985   4.638 -0.5084  0.0789  0.0538
  107OSM   H18S10919   4.342   5.942   4.595 -0.4089 -0.0992  0.4418
  107OSM   H18T10920   4.165   5.912   4.646 -1.2924  0.9647  0.0160
  107OSM   H18U10921   4.281   6.008   4.742  0.2046  3.4646 -0.8776
  107OSM    C1F10922   4.334   6.291   6.080 -0.5230 -0.0762  0.5837
  107OSM     OF10923   4.347   6.184   6.141 -0.0236 -0.8210 -0.4190
  107OSM    C2F10924   4.444   6.359   6.006  0.4416  0.4812  0.3520
  107OSM    H2F10925   4.540   6.369   6.062  0.8716 -0.3908 -0.2212
  107OSM    H2G10926   4.408   6.462   5.984 -0.5341 -0.0660 -0.6733
  107OSM    C3F10927   4.479   6.285   5.877 -0.5636  0.0876  0.2324
  107OSM    H3F10928   4.484   6.177   5.902  4.6272 -0.0555 -0.8636
  107OSM    H3G10929   4.580   6.323   5.850 -1.8313  2.9339 -0.7676
  107OSM    C4F10930   4.375   6.304   5.769 -0.7518  0.2474  0.1951
  107OSM    H4F10931   4.332   6.406   5.774 -0.4691  0.4534 -1.2473
  107OSM    H4G10932   4.289   6.235   5.783  1.1205 -1.9560  0.9628
  107OSM    C5F10933   4.415   6.287   5.625 -0.0724  0.6013  0.8435
  107OSM    H5F10934   4.487   6.203   5.622 -0.4179  0.3567 -0.9521
  107OSM    H5G10935   4.481   6.363   5.577  0.4172 -0.6649 -0.5083
  107OSM    C6F10936   4.295   6.251   5.544  0.0242 -0.7835  0.1949
  107OSM    H6F10937   4.213   6.325   5.557 -0.1423 -0.8743 -0.3586
  107OSM    H6G10938   4.249   6.157   5.579 -1.7183 -0.2264 -0.5720
  107OSM    C7F10939   4.332   6.239   5.392  0.9601  0.1869 -0.2657
  107OSM    H7F10940   4.244   6.190   5.346  0.8080 -2.1488  2.3681
  107OSM    H7G10941   4.422   6.173   5.387  0.7360 -0.1844  0.5499
  107OSM    C8F10942   4.374   6.365   5.319 -0.5214 -0.0593  0.0410
  107OSM    H8F10943   4.434   6.419   5.396  0.0182  0.5574 -0.8064
  107OSM    H8G10944   4.278   6.415   5.295  0.2498  0.7544 -1.3958
  107OSM    C9F10945   4.460   6.340   5.198 -0.2349  0.4156 -0.2513
  107OSM    H9F10946   4.538   6.263   5.208  0.8944  1.6561  0.4953
  107OSM   C10F10947   4.447   6.386   5.073 -0.2369 -0.1530 -0.4747
  107OSM   H10F10948   4.508   6.339   4.995  0.8680  2.3398 -1.1428
  107OSM   C11F10949   4.338   6.484   5.026  0.4402 -0.2183  0.5886
  107OSM   H11F10950   4.242   6.469   5.080 -0.0081  0.9177  0.1249
  107OSM   H11G10951   4.310   6.462   4.921 -0.9167  2.5962  0.3081
  107OSM   C12F10952   4.361   6.633   5.033 -0.7835  0.2853 -0.1599
  107OSM   H12F10953   4.462   6.648   4.990 -0.5938 -3.2223 -1.0975
  107OSM   H12G10954   4.354   6.674   5.136  2.0893 -0.4788  0.3710
  107OSM   C13F10955   4.256   6.717   4.956  0.1201  0.1286 -0.1457
  107OSM   H13F10956   4.293   6.821   4.968  2.3787 -0.5541 -0.8225
  107OSM   H13G10957   4.165   6.701   5.017  1.1557  0.1930  1.4485
  107OSM   C14F10958   4.225   6.683   4.810 -0.0619  0.4870 -0.1545
  107OSM   H14F10959   4.140   6.744   4.775 -0.6574 -1.4492 -2.2409
  107OSM   H14G10960   4.180   6.582   4.823 -0.8620  1.1398  2.3433
  107OSM   C15F10961   4.351   6.700   4.720  0.2011 -0.7612  0.5964
  107OSM   H15F10962   4.421   6.627   4.768  3.4697  0.3450 -2.3187
  107OSM   H15G10963   4.404   6.796   4.738 -1.6905  0.9680 -2.7907
  107OSM   C16F10964   4.319   6.677   4.572  0.4179  0.1690 -0.5723
  107OSM   H16F10965   4.232   6.739   4.540 -1.2299 -1.4220  0.6908
  107OSM   H16G10966   4.287   6.571   4.560  3.0581 -0.6366 -0.6645
  107OSM   C17F10967   4.425   6.697   4.471 -0.2445  0.0858 -0.3745
  107OSM   H17F10968   4.466   6.800   4.481  1.8560 -1.0804  3.8922
  107OSM   H17G10969   4.378   6.708   4.371  0.3285  2.7302 -0.3922
  107OSM   C18F10970   4.530   6.588   4.462  0.0878 -0.0388 -0.4108
  107OSM   H18F10971   4.596   6.582   4.551 -1.5915 -0.7320  0.8117
  107OSM   H18G10972   4.591   6.590   4.369 -1.3863 -1.8535 -1.4433
  107OSM   H18H10973   4.488   6.485   4.456  0.6255 -0.1572 -2.5535
  108OSM      N10974   5.460   2.258   6.497  0.1642 -0.3413 -0.2772
  108OSM    C1510975   5.340   2.336   6.551  0.0214  0.7879  0.6339
  108OSM   H15A10976   5.314   2.420   6.489 -3.1276 -1.1499 -0.7959
  108OSM   H15B10977   5.357   2.387   6.645  2.2588 -2.4110  2.0414
  108OSM   H15C10978   5.253   2.272   6.559  1.2133 -0.9584 -0.0675
  108OSM    C1410979   5.516   2.167   6.605 -0.4784  0.6139  0.0467
  108OSM   H14A10980   5.599   2.107   6.570 -0.2450 -0.0651  1.7240
  108OSM   H14B10981   5.441   2.110   6.658  0.4619  0.2630  1.0229
  108OSM   H14C10982   5.564   2.231   6.678  0.4535 -1.2026  1.0708
  108OSM    C1310983   5.398   2.179   6.394 -0.2499  0.0164 -0.1639
  108OSM   H13A10984   5.323   2.112   6.432 -0.3906 -0.2448 -0.9020
  108OSM   H13B10985   5.470   2.120   6.340 -0.1631  0.1328 -0.1768
  108OSM   H13C10986   5.350   2.244   6.323  0.7646 -0.3600 -1.2078
  108OSM    C1210987   5.573   2.342   6.435  0.2881  0.5616  0.0428
  108OSM   H12A10988   5.536   2.407   6.357  3.8769  2.9742  0.2769
  108OSM   H12B10989   5.651   2.279   6.396 -1.7273 -0.9357 -1.6946
  108OSM    C1110990   5.635   2.444   6.535  0.2448  0.4072 -0.0568
  108OSM   H11A10991   5.666   2.397   6.631  3.6015  3.9949  0.7439
  108OSM   H11B10992   5.557   2.519   6.564  0.5796  0.6208  0.3017
  108OSM      P10993   5.743   2.617   6.367 -0.0419 -0.3888 -0.3982
  108OSM    O1310994   5.612   2.606   6.298  0.2559  0.4153  0.9320
  108OSM    O1410995   5.800   2.751   6.405  0.8113 -0.0398  0.8613
  108OSM    O1110996   5.850   2.547   6.270  0.2319  0.3731  0.4688
  108OSM    O1210997   5.748   2.521   6.486 -0.2353  0.1154 -0.2601
  108OSM    C1S10998   5.852   2.417   6.214  0.3114  0.0197  0.7789
  108OSM    H1S10999   5.846   2.336   6.289 -0.9236 -0.1936  0.4567
  108OSM    H1T11000   5.949   2.408   6.162 -0.4621 -0.4447 -0.6181
  108OSM     NF11001   5.755   2.273   6.050 -0.2472  0.1022 -0.6172
  108OSM    HNF11002   5.768   2.264   5.951 -2.3745 -0.5768 -0.8588
  108OSM    C2S11003   5.754   2.411   6.100  0.0845  0.5649  0.3668
  108OSM    H2S11004   5.648   2.418   6.132 -0.8513  0.7118 -2.6273
  108OSM    C3S11005   5.792   2.516   5.991  0.4404  0.1408  0.4277
  108OSM    H3S11006   5.903   2.519   5.978  0.1920  0.2846 -1.9023
  108OSM     O311007   5.749   2.652   6.022 -0.3360 -0.0832  0.0821
  108OSM    HO311008   5.761   2.655   6.117 -0.2738  0.5902  0.0543
  108OSM    C4S11009   5.714   2.481   5.865  0.1734 -0.7687 -0.1117
  108OSM    H4S11010   5.608   2.510   5.857  0.3438 -0.1180 -0.0989
  108OSM    C5S11011   5.773   2.414   5.758  0.5369  0.5379 -0.3418
  108OSM    H5S11012   5.881   2.391   5.758  0.0732 -1.7945 -0.1594
  108OSM    C6S11013   5.706   2.371   5.630 -0.0112 -0.2470  0.5013
  108OSM    H6S11014   5.777   2.381   5.546 -0.6933 -0.9309 -0.1714
  108OSM    H6T11015   5.621   2.437   5.601  1.5713  2.4962  1.9296
  108OSM    C7S11016   5.637   2.227   5.640  0.4059  0.4182  0.4795
  108OSM    H7S11017   5.550   2.243   5.707 -0.2969  2.0073 -0.7938
  108OSM    H7T11018   5.712   2.149   5.667 -3.1300 -2.0318  3.8946
  108OSM    C8S11019   5.567   2.186   5.503  1.0951  0.0144  0.2879
  108OSM    H8S11020   5.517   2.273   5.455  0.7179  0.0391  0.7192
  108OSM    H8T11021   5.492   2.105   5.515  1.3659 -0.2324  0.2975
  108OSM    C9S11022   5.677   2.140   5.399  0.0716 -0.7020  0.4200
  108OSM    H9S11023   5.695   2.037   5.437 -2.1334 -0.9847  0.7609
  108OSM    H9T11024   5.770   2.200   5.407  0.0050 -0.3311 -1.5109
  108OSM   C10S11025   5.630   2.141   5.253  0.4426  0.4271 -0.0212
  108OSM   H10S11026   5.587   2.241   5.228 -0.8612  0.1036  0.8862
  108OSM   H10T11027   5.547   2.069   5.236  0.7961 -0.0680  0.3390
  108OSM   C11S11028   5.755   2.106   5.164  0.3460 -0.1773  0.1433
  108OSM   H11S11029   5.815   2.021   5.205 -0.3180 -1.0204 -0.6080
  108OSM   H11T11030   5.815   2.198   5.153 -0.7815  0.7575  1.5935
  108OSM   C12S11031   5.732   2.062   5.021 -0.5499  0.5938  0.0660
  108OSM   H12S11032   5.704   1.954   5.029  3.0319 -0.4503 -0.5741
  108OSM   H12T11033   5.835   2.057   4.981 -0.5000  1.5621  0.0806
  108OSM   C13S11034   5.628   2.149   4.945  0.2689 -0.4232 -0.1065
  108OSM   H13S11035   5.658   2.256   4.937  1.0559 -0.5573  1.0573
  108OSM   H13T11036   5.537   2.138   5.008 -0.4707  1.2854 -0.8228
  108OSM   C14S11037   5.604   2.083   4.807  0.6288 -0.0865 -0.3442
  108OSM   H14S11038   5.695   2.047   4.755  0.1847  0.4812 -1.5486
  108OSM   H14T11039   5.559   2.165   4.747  0.1419 -0.1253 -0.0376
  108OSM   C15S11040   5.504   1.957   4.817  0.0059  0.1879 -0.3379
  108OSM   H15S11041   5.423   1.993   4.883  0.4782 -1.2363  1.0547
  108OSM   H15T11042   5.554   1.879   4.878 -0.2235  0.4771  0.2247
  108OSM   C16S11043   5.439   1.894   4.693  0.0095  0.0639  0.2516
  108OSM   H16S11044   5.377   1.973   4.646 -0.5929 -0.1012  0.7588
  108OSM   H16T11045   5.363   1.816   4.716 -1.3704  1.6685  1.3384
  108OSM   C17S11046   5.534   1.839   4.590 -0.4117 -0.3150  0.3341
  108OSM   H17S11047   5.588   1.753   4.635  1.9635  1.6449  1.3291
  108OSM   H17T11048   5.615   1.909   4.561 -0.3744 -0.2211  0.6586
  108OSM   C18S11049   5.457   1.805   4.457 -0.1462  0.7377 -0.2626
  108OSM   H18S11050   5.527   1.797   4.371  0.7935  3.1762  0.2296
  108OSM   H18T11051   5.387   1.887   4.429 -0.7578  0.2220 -0.2393
  108OSM   H18U11052   5.395   1.715   4.473  1.7742 -0.2542  1.8516
  108OSM    C1F11053   5.717   2.161   6.118  0.2314 -0.2357 -0.7624
  108OSM     OF11054   5.683   2.160   6.236  0.5549  0.3148  0.0502
  108OSM    C2F11055   5.704   2.034   6.034  0.1486 -0.2185  0.5323
  108OSM    H2F11056   5.756   2.051   5.938 -0.7766 -1.9899 -0.3180
  108OSM    H2G11057   5.594   2.029   6.020  0.2801 -2.4924  0.1586
  108OSM    C3F11058   5.747   1.899   6.106  1.0657 -0.6806 -0.5136
  108OSM    H3F11059   5.743   1.809   6.041  0.6809  0.2060 -1.7311
  108OSM    H3G11060   5.676   1.875   6.188  1.5477  0.2106  0.1652
  108OSM    C4F11061   5.895   1.897   6.140  0.4521  0.5794 -0.2214
  108OSM    H4F11062   5.906   1.812   6.211  1.8073  0.0633 -1.0304
  108OSM    H4G11063   5.908   1.988   6.203  1.1452  1.4788 -1.6319
  108OSM    C5F11064   5.995   1.892   6.027 -1.0203  0.2422 -0.4349
  108OSM    H5F11065   6.098   1.910   6.064 -0.7582  0.6008 -1.3096
  108OSM    H5G11066   5.965   1.974   5.957 -3.9289 -0.6405 -0.3123
  108OSM    C6F11067   5.990   1.760   5.946 -0.7074  0.2197  0.5792
  108OSM    H6F11068   5.897   1.765   5.885  1.4644  2.1657 -2.7053
  108OSM    H6G11069   5.979   1.673   6.014 -4.1214  0.4786  0.4461
  108OSM    C7F11070   6.115   1.729   5.864  0.7460 -0.4782 -0.1242
  108OSM    H7F11071   6.205   1.718   5.928 -0.2805 -0.7533  1.2920
  108OSM    H7G11072   6.127   1.812   5.790  2.1970 -0.0401  0.5844
  108OSM    C8F11073   6.109   1.594   5.782  1.4056  0.2677 -0.5143
  108OSM    H8F11074   6.024   1.595   5.710  0.8561  1.9994  0.1258
  108OSM    H8G11075   6.083   1.515   5.856  3.2171  0.7079  0.6081
  108OSM    C9F11076   6.250   1.564   5.723 -0.1318  0.6251  0.2376
  108OSM    H9F11077   6.302   1.483   5.776 -2.9087 -0.6357  1.1249
  108OSM   C10F11078   6.305   1.617   5.612  0.5031 -0.1681  0.6746
  108OSM   H10F11079   6.413   1.601   5.603  0.3292 -0.6954 -0.6732
  108OSM   C11F11080   6.243   1.714   5.514 -0.6787  0.2761  0.2759
  108OSM   H11F11081   6.315   1.790   5.477  1.3733 -2.9037 -2.6079
  108OSM   H11G11082   6.160   1.771   5.563  0.0401  0.9097  0.7735
  108OSM   C12F11083   6.193   1.638   5.385  0.4683  0.6828  0.5939
  108OSM   H12F11084   6.105   1.574   5.403  0.5843 -0.2161 -1.8844
  108OSM   H12G11085   6.277   1.580   5.341  2.0021  2.7925  0.6220
  108OSM   C13F11086   6.158   1.741   5.275  0.1709  0.4037  0.0979
  108OSM   H13F11087   6.248   1.797   5.241  0.6282 -1.6708 -2.2142
  108OSM   H13G11088   6.088   1.811   5.327  1.6805  1.5784  0.5902
  108OSM   C14F11089   6.097   1.676   5.148 -0.2644 -0.3573  0.4470
  108OSM   H14F11090   6.002   1.629   5.184 -0.2214  0.6766  1.9952
  108OSM   H14G11091   6.157   1.592   5.110 -0.4971  0.5312 -1.9333
  108OSM   C15F11092   6.059   1.770   5.042  1.1713 -0.6915 -0.3514
  108OSM   H15F11093   6.143   1.806   4.979  0.4434  0.3194 -0.7672
  108OSM   H15G11094   6.003   1.857   5.084 -0.0205 -0.9876 -1.2875
  108OSM   C16F11095   5.956   1.710   4.949 -0.4031 -0.3937 -0.1500
  108OSM   H16F11096   5.867   1.664   4.997  0.1640 -1.7408 -0.3577
  108OSM   H16G11097   6.015   1.627   4.905 -1.0789 -0.8423 -0.2247
  108OSM   C17F11098   5.920   1.794   4.827  0.7115  0.1311  0.5447
  108OSM   H17F11099   6.012   1.811   4.767 -0.6311  1.0682 -1.3114
  108OSM   H17G11100   5.868   1.887   4.855  0.2450 -0.7341  2.6098
  108OSM   C18F11101   5.825   1.709   4.732  0.3276 -0.4340 -0.3347
  108OSM   H18F11102   5.808   1.768   4.640 -0.4448 -1.4588 -0.8681
  108OSM   H18G11103   5.738   1.674   4.791  0.1945 -0.7648 -0.7188
  108OSM   H18H11104   5.883   1.618   4.708 -0.7308 -1.5473  1.2000
  109OSM      N11105   2.200   1.703   6.391 -0.3710 -0.9868 -0.4929
  109OSM    C1511106   2.167   1.851   6.390 -0.0668  0.0231  0.2205
  109OSM   H15A11107   2.237   1.906   6.329 -2.5415  0.1769 -2.6036
  109OSM   H15B11108   2.160   1.887   6.492  0.8933 -1.2814  0.7541
  109OSM   H15C11109   2.071   1.866   6.342 -0.7833  0.7740  1.8456
  109OSM    C1411110   2.313   1.683   6.490 -0.2256  1.3392 -0.1083
  109OSM   H14A11111   2.350   1.583   6.470  1.2573  2.2981 -2.3707
  109OSM   H14B11112   2.277   1.691   6.591 -1.4312  0.3942 -0.4447
  109OSM   H14C11113   2.397   1.751   6.485  1.9243 -1.2562 -1.1008
  109OSM    C1311114   2.073   1.628   6.435 -0.4527  0.5662 -0.0217
  109OSM   H13A11115   2.004   1.647   6.354 -0.7889  1.1992  0.4074
  109OSM   H13B11116   2.044   1.659   6.534  2.0046  1.2157  0.5251
  109OSM   H13C11117   2.096   1.523   6.437 -0.1118  0.6334 -0.3312
  109OSM    C1211118   2.259   1.652   6.261  0.3142  0.2651  0.2144
  109OSM   H12A11119   2.360   1.688   6.248  1.1427 -1.3928  1.7895
  109OSM   H12B11120   2.202   1.698   6.182  2.6324 -1.5036 -2.5882
  109OSM    C1111121   2.270   1.494   6.253  0.4703  0.3053 -0.3442
  109OSM   H11A11122   2.286   1.465   6.147 -1.7310 -3.5676  0.2523
  109OSM   H11B11123   2.176   1.449   6.293  0.0132  3.0785  1.8707
  109OSM      P11124   2.518   1.458   6.309 -0.1274 -0.4423 -0.4786
  109OSM    O1311125   2.568   1.588   6.352 -0.3569  0.0403 -0.3053
  109OSM    O1411126   2.596   1.340   6.352 -0.1444  0.3415  0.3343
  109OSM    O1111127   2.522   1.457   6.156  0.3969 -0.1188 -0.3837
  109OSM    O1211128   2.365   1.446   6.346 -0.8395  0.4213 -0.4620
  109OSM    C1S11129   2.643   1.484   6.090  0.1662 -0.8929 -0.2444
  109OSM    H1S11130   2.735   1.470   6.151  1.6483 -1.3308 -2.5052
  109OSM    H1T11131   2.646   1.589   6.053  4.8611 -0.3563  1.4202
  109OSM     NF11132   2.782   1.439   5.896 -0.7346  0.2375 -0.0906
  109OSM    HNF11133   2.774   1.516   5.833 -0.6408 -0.1584 -0.5899
  109OSM    C2S11134   2.660   1.394   5.969  0.2469 -0.4213 -0.2863
  109OSM    H2S11135   2.673   1.293   6.015  3.8635 -0.7528 -1.8869
  109OSM    C3S11136   2.529   1.396   5.874 -0.9081 -0.1147 -0.7383
  109OSM    H3S11137   2.512   1.500   5.839 -1.8321  0.5708  1.6949
  109OSM     O311138   2.403   1.361   5.937 -0.3343 -0.1760  0.4767
  109OSM    HO311139   2.420   1.379   6.030 -2.2138  2.3299  0.3850
  109OSM    C4S11140   2.555   1.297   5.758  1.0066  0.0148 -0.0242
  109OSM    H4S11141   2.525   1.192   5.773 -1.6092  0.8412  0.9091
  109OSM    C5S11142   2.589   1.340   5.637 -0.1333 -0.3284  0.0345
  109OSM    H5S11143   2.596   1.448   5.618 -0.1751 -0.0159  1.7164
  109OSM    C6S11144   2.608   1.250   5.519 -0.0854 -0.7303 -0.0563
  109OSM    H6S11145   2.570   1.149   5.546  0.2650 -1.2978 -1.6231
  109OSM    H6T11146   2.714   1.236   5.488 -0.3762 -2.2032 -0.4395
  109OSM    C7S11147   2.518   1.300   5.406 -0.5664 -0.6795 -0.1742
  109OSM    H7S11148   2.562   1.390   5.359 -0.0964 -0.7836  0.0619
  109OSM    H7T11149   2.415   1.330   5.435 -0.6876 -0.6058 -0.6677
  109OSM    C8S11150   2.504   1.200   5.294  0.1226  0.1421 -0.1559
  109OSM    H8S11151   2.421   1.131   5.318 -0.6720  0.0833 -2.9050
  109OSM    H8T11152   2.597   1.141   5.305  0.1524  0.4197  1.1184
  109OSM    C9S11153   2.490   1.263   5.158  0.1471  0.7624  0.3489
  109OSM    H9S11154   2.493   1.169   5.098  0.3961  1.3050 -0.5081
  109OSM    H9T11155   2.582   1.323   5.138  0.2986  1.0403  1.8116
  109OSM   C10S11156   2.372   1.351   5.131 -0.1780  0.0355 -0.3859
  109OSM   H10S11157   2.392   1.453   5.169  2.7609 -0.5913 -0.0895
  109OSM   H10T11158   2.289   1.302   5.186 -0.7667 -0.6228 -1.8398
  109OSM   C11S11159   2.334   1.363   4.984  0.1031 -0.2943  0.0952
  109OSM   H11S11160   2.413   1.426   4.939  0.1595 -0.7568 -0.4632
  109OSM   H11T11161   2.246   1.431   4.980  0.6766  0.5321  1.4789
  109OSM   C12S11162   2.318   1.226   4.916 -0.9656 -0.1258  0.0026
  109OSM   H12S11163   2.269   1.155   4.986  3.1378 -0.4593  2.7320
  109OSM   H12T11164   2.418   1.188   4.885 -0.6029 -0.5786  1.6945
  109OSM   C13S11165   2.225   1.230   4.795  0.5221  0.1671  0.0908
  109OSM   H13S11166   2.260   1.309   4.726  1.1863  0.5869  0.8974
  109OSM   H13T11167   2.125   1.263   4.831 -0.3201 -1.9298 -0.2567
  109OSM   C14S11168   2.197   1.091   4.733 -0.3918  0.4903 -0.4225
  109OSM   H14S11169   2.168   1.015   4.809  0.0302 -0.0262 -0.7701
  109OSM   H14T11170   2.284   1.051   4.676 -1.0350  0.3401 -1.3218
  109OSM   C15S11171   2.075   1.100   4.636  0.1350 -0.1052  0.1729
  109OSM   H15S11172   2.091   1.167   4.548 -1.0763 -1.4672 -1.1235
  109OSM   H15T11173   1.981   1.124   4.689 -0.0600 -2.8794  1.1636
  109OSM   C16S11174   2.056   0.952   4.585  0.8249 -0.8205  0.1659
  109OSM   H16S11175   2.050   0.875   4.666  2.2391  0.3713  1.4438
  109OSM   H16T11176   2.141   0.923   4.520  1.2803  0.4728  0.1713
  109OSM   C17S11177   1.940   0.933   4.481 -0.0251  0.8537 -0.5058
  109OSM   H17S11178   1.948   1.017   4.409 -1.3214  1.0883 -0.3977
  109OSM   H17T11179   1.840   0.947   4.527  0.6729  0.0738  1.2738
  109OSM   C18S11180   1.943   0.797   4.400 -0.6604  0.0890  0.5264
  109OSM   H18S11181   1.870   0.801   4.316  0.4351  2.3043 -0.3590
  109OSM   H18T11182   1.913   0.713   4.466 -1.2961  0.4837  0.7439
  109OSM   H18U11183   2.038   0.786   4.343 -1.4199 -0.7052 -0.6034
  109OSM    C1F11184   2.900   1.382   5.930  0.4678 -0.3272 -0.8539
  109OSM     OF11185   2.909   1.300   6.023  0.3087 -0.2571 -0.4185
  109OSM    C2F11186   3.021   1.421   5.854  0.1929  0.3988 -0.1934
  109OSM    H2F11187   3.101   1.474   5.909 -0.1553 -1.6312  2.3790
  109OSM    H2G11188   2.980   1.479   5.768  0.1926  1.6131  0.6275
  109OSM    C3F11189   3.096   1.292   5.795  0.0165  0.4758  0.5684
  109OSM    H3F11190   3.115   1.214   5.873  2.7870 -0.7253 -1.2271
  109OSM    H3G11191   3.201   1.324   5.776 -0.8456  2.7131 -0.6316
  109OSM    C4F11192   3.016   1.236   5.678  0.4707 -0.6742 -0.2754
  109OSM    H4F11193   2.990   1.315   5.604  1.1010 -1.0697 -0.9229
  109OSM    H4G11194   2.915   1.204   5.711 -0.4213  2.1340 -0.1130
  109OSM    C5F11195   3.086   1.114   5.615 -0.6455 -0.6309  0.5783
  109OSM    H5F11196   3.002   1.063   5.563  0.7700 -1.0749 -1.3040
  109OSM    H5G11197   3.117   1.051   5.701  0.2615 -2.7275 -1.2192
  109OSM    C6F11198   3.218   1.134   5.524  0.1373 -0.2947  0.0999
  109OSM    H6F11199   3.267   1.035   5.519  1.2169  0.3018 -1.1905
  109OSM    H6G11200   3.293   1.197   5.576  0.4532  1.2918 -2.1884
  109OSM    C7F11201   3.198   1.180   5.386  0.6157  0.0569  0.1232
  109OSM    H7F11202   3.149   1.280   5.384 -0.2985 -0.4003 -2.6138
  109OSM    H7G11203   3.128   1.114   5.331  1.1803  0.8267 -1.5701
  109OSM    C8F11204   3.329   1.188   5.302  0.3320  0.5740  0.5040
  109OSM    H8F11205   3.374   1.086   5.307 -0.9424  0.0365  1.0486
  109OSM    H8G11206   3.407   1.255   5.345 -0.7986 -0.5648  4.5234
  109OSM    C9F11207   3.311   1.208   5.151  0.8302  0.0553  0.0079
  109OSM    H9F11208   3.283   1.122   5.088 -0.3640 -0.0391  0.6524
  109OSM   C10F11209   3.314   1.333   5.096  0.0577 -0.3517  0.3143
  109OSM   H10F11210   3.301   1.332   4.987 -1.2716  0.0248  0.4558
  109OSM   C11F11211   3.349   1.465   5.173  0.1188  0.9524 -0.2907
  109OSM   H11F11212   3.395   1.447   5.272 -1.7928 -0.6311  0.3209
  109OSM   H11G11213   3.258   1.525   5.192 -0.6526  0.9096 -3.5285
  109OSM   C12F11214   3.446   1.553   5.091 -0.0454  0.1025  0.1614
  109OSM   H12F11215   3.410   1.587   4.992  2.6976 -0.3658 -1.0419
  109OSM   H12G11216   3.538   1.492   5.071  0.1487  1.2782 -2.7381
  109OSM   C13F11217   3.479   1.677   5.158 -0.0964  0.0125  0.0541
  109OSM   H13F11218   3.566   1.718   5.103 -1.1421  2.7273  0.3247
  109OSM   H13G11219   3.505   1.649   5.263  1.9862 -0.0714 -0.4715
  109OSM   C14F11220   3.370   1.785   5.150  0.2027  0.3270  0.9857
  109OSM   H14F11221   3.268   1.745   5.167  0.5019 -0.7724  0.2458
  109OSM   H14G11222   3.364   1.829   5.048  1.6333 -3.0951 -0.6668
  109OSM   C15F11223   3.390   1.917   5.235  0.0744 -0.2822  0.7071
  109OSM   H15F11224   3.325   1.999   5.198 -1.2916 -0.4052  2.7505
  109OSM   H15G11225   3.498   1.942   5.230  0.1979 -1.2089 -1.9243
  109OSM   C16F11226   3.364   1.904   5.386  0.0018  1.1172  0.7489
  109OSM   H16F11227   3.427   1.817   5.418 -0.8681  0.8754  1.8274
  109OSM   H16G11228   3.258   1.877   5.401  0.5901 -1.5120  0.5307
  109OSM   C17F11229   3.405   2.018   5.471  0.7045 -0.0506  0.3101
  109OSM   H17F11230   3.326   2.094   5.454  0.6926  0.2665  1.6625
  109OSM   H17G11231   3.503   2.064   5.446  0.5325  0.1325 -0.0197
  109OSM   C18F11232   3.391   1.994   5.623 -0.0501 -0.1447  0.6265
  109OSM   H18F11233   3.409   2.083   5.687  1.3651 -0.5136  0.7665
  109OSM   H18G11234   3.461   1.912   5.650  0.5225 -0.4135 -1.5416
  109OSM   H18H11235   3.287   1.971   5.655 -0.5848 -1.3427 -1.8185
  110OSM      N11236   6.089   5.208   6.405 -0.3528  1.1649  0.1886
  110OSM    C1511237   6.217   5.283   6.419 -0.0346  0.2690 -0.3651
  110OSM   H15A11238   6.305   5.226   6.393  1.2109  1.8064  0.4241
  110OSM   H15B11239   6.228   5.317   6.521 -0.7722 -0.7530  0.0696
  110OSM   H15C11240   6.221   5.368   6.353 -0.3314 -0.5093 -1.4024
  110OSM    C1411241   6.062   5.162   6.261  0.3405  0.3952  0.2415
  110OSM   H14A11242   5.966   5.116   6.246  1.7152 -2.6254  0.1210
  110OSM   H14B11243   6.138   5.091   6.230 -2.1245 -2.7400  1.1051
  110OSM   H14C11244   6.092   5.232   6.185  0.0305 -0.2472 -0.4704
  110OSM    C1311245   6.110   5.082   6.477 -0.1839  0.1283 -0.1744
  110OSM   H13A11246   6.113   5.101   6.583  0.3599 -1.0472  0.0273
  110OSM   H13B11247   6.200   5.032   6.444 -1.2723 -2.6140  0.9081
  110OSM   H13C11248   6.029   5.013   6.463  0.5407 -0.6776 -0.4443
  110OSM    C1211249   5.971   5.290   6.462 -0.2478  0.3545 -0.1588
  110OSM   H12A11250   6.001   5.393   6.468  1.2824  0.1143 -3.0574
  110OSM   H12B11251   5.945   5.259   6.562 -0.9197 -0.0440 -0.4435
  110OSM    C1111252   5.839   5.267   6.377  0.1635  0.6271  0.0884
  110OSM   H11A11253   5.847   5.316   6.278 -2.7613  1.6513  0.3089
  110OSM   H11B11254   5.759   5.320   6.433  2.2307  3.8359  0.1049
  110OSM      P11255   5.658   5.097   6.317  0.1062 -0.0523  0.2601
  110OSM    O1311256   5.658   4.956   6.277  0.1196 -0.6929  0.0220
  110OSM    O1411257   5.569   5.139   6.428  0.1493  0.3080  0.0331
  110OSM    O1111258   5.621   5.190   6.190 -0.2157  0.0310 -0.3940
  110OSM    O1211259   5.807   5.127   6.352  0.1780  0.1299 -0.8395
  110OSM    C1S11260   5.695   5.181   6.068 -0.0045  0.3660  0.3456
  110OSM    H1S11261   5.773   5.102   6.063 -1.3826 -0.9721 -0.4109
  110OSM    H1T11262   5.754   5.271   6.041 -1.5901  1.6835  1.1608
  110OSM     NF11263   5.675   5.113   5.828 -0.6775  0.3717  0.6448
  110OSM    HNF11264   5.652   5.157   5.741 -0.0840  0.2831  0.4425
  110OSM    C2S11265   5.599   5.145   5.947  0.8763 -0.7066  0.1472
  110OSM    H2S11266   5.551   5.049   5.975 -0.0772 -0.3099 -0.1029
  110OSM    C3S11267   5.495   5.265   5.921 -0.9244 -0.4293 -0.0029
  110OSM    H3S11268   5.551   5.354   5.886 -0.4230 -1.3781 -1.6882
  110OSM     O311269   5.431   5.299   6.039  0.9776 -0.1311 -0.2228
  110OSM    HO311270   5.459   5.239   6.109  1.2929  2.2780  1.8091
  110OSM    C4S11271   5.388   5.228   5.826 -0.1943  0.1176 -0.3064
  110OSM    H4S11272   5.294   5.184   5.863  0.0265  0.8302  1.1528
  110OSM    C5S11273   5.397   5.273   5.697 -0.3550 -0.2039 -0.4459
  110OSM    H5S11274   5.487   5.325   5.660 -0.5137  0.6282  0.3211
  110OSM    C6S11275   5.288   5.246   5.597  0.1652 -0.0831 -0.3546
  110OSM    H6S11276   5.230   5.341   5.585 -2.5597 -1.6403 -0.0375
  110OSM    H6T11277   5.206   5.182   5.636 -0.2213  0.5574 -0.1112
  110OSM    C7S11278   5.331   5.171   5.470  0.2175  0.5650 -0.1564
  110OSM    H7S11279   5.395   5.081   5.468 -1.2897 -0.5556  0.7512
  110OSM    H7T11280   5.372   5.249   5.402 -0.0716  1.0213  0.1901
  110OSM    C8S11281   5.201   5.126   5.389  0.1208  0.1749 -0.1996
  110OSM    H8S11282   5.123   5.204   5.393 -0.5892 -0.3433 -2.9017
  110OSM    H8T11283   5.165   5.028   5.424 -0.0165  0.1251 -0.4790
  110OSM    C9S11284   5.235   5.104   5.238 -0.4513  0.1120 -0.9214
  110OSM    H9S11285   5.298   5.014   5.225  1.0709  1.0952 -0.4537
  110OSM    H9T11286   5.300   5.187   5.203  1.0188 -0.9888 -0.8185
  110OSM   C10S11287   5.105   5.114   5.152 -0.0019  0.5718 -0.6140
  110OSM   H10S11288   5.047   5.190   5.209 -0.6959  0.9071 -1.7463
  110OSM   H10T11289   5.054   5.015   5.152  1.1651 -0.0367 -0.2329
  110OSM   C11S11290   5.147   5.147   5.009  0.8199  0.5026 -0.3354
  110OSM   H11S11291   5.151   5.055   4.947 -1.1071  1.0922 -1.3855
  110OSM   H11T11292   5.240   5.207   5.013  0.4632  1.0157  0.4812
  110OSM   C12S11293   5.035   5.234   4.945  0.7202 -0.9001  0.0913
  110OSM   H12S11294   5.033   5.337   4.988  2.7753 -1.4385  1.5394
  110OSM   H12T11295   4.939   5.183   4.967 -0.1853  1.0829  0.8922
  110OSM   C13S11296   5.052   5.257   4.791 -0.2361 -0.3576  0.3755
  110OSM   H13S11297   5.162   5.249   4.780 -0.2794 -0.0450 -0.2919
  110OSM   H13T11298   5.004   5.356   4.775  0.0668 -0.3465 -0.4918
  110OSM   C14S11299   4.973   5.147   4.706  0.7649  0.1101 -0.0022
  110OSM   H14S11300   4.875   5.133   4.755  1.9020 -0.9180  2.0442
  110OSM   H14T11301   5.031   5.054   4.721  0.8500  0.0098 -0.9030
  110OSM   C15S11302   4.951   5.194   4.568  0.1297 -0.3422  0.4577
  110OSM   H15S11303   5.042   5.245   4.530  1.3884 -1.3110  2.0841
  110OSM   H15T11304   4.881   5.279   4.574 -1.8911 -1.7020 -2.7624
  110OSM   C16S11305   4.907   5.080   4.475  0.7176 -0.3254  0.2094
  110OSM   H16S11306   4.825   5.021   4.521 -1.1533  0.6543 -1.7983
  110OSM   H16T11307   4.994   5.012   4.464  0.8634  0.0389 -0.8527
  110OSM   C17S11308   4.841   5.134   4.344  0.2513  0.6091 -0.2835
  110OSM   H17S11309   4.910   5.212   4.306  1.7331 -0.6994 -0.3465
  110OSM   H17T11310   4.750   5.192   4.371 -0.0889  0.2389 -0.6184
  110OSM   C18S11311   4.811   5.025   4.242  0.3672 -0.3260 -0.4028
  110OSM   H18S11312   4.902   4.964   4.230 -0.7042 -1.7314 -1.5799
  110OSM   H18T11313   4.786   5.072   4.144 -0.4735 -0.0689 -0.0700
  110OSM   H18U11314   4.727   4.960   4.275 -0.5517  0.5293 -1.0104
  110OSM    C1F11315   5.744   4.996   5.810 -0.2662  0.2366 -0.6175
  110OSM     OF11316   5.745   4.906   5.898 -0.1448  0.1631  0.0923
  110OSM    C2F11317   5.811   4.971   5.679  1.2682  0.7045  0.0056
  110OSM    H2F11318   5.881   4.887   5.699 -0.3238 -1.5961 -3.5419
  110OSM    H2G11319   5.873   5.059   5.655 -0.1016  1.1923 -1.8247
  110OSM    C3F11320   5.722   4.946   5.560 -0.3732  0.3534 -0.7514
  110OSM    H3F11321   5.641   5.022   5.556 -0.5971  0.2169  0.8216
  110OSM    H3G11322   5.660   4.855   5.575  0.5278 -0.2859 -0.8338
  110OSM    C4F11323   5.797   4.915   5.437  0.1501 -0.4142  0.7513
  110OSM    H4F11324   5.877   4.839   5.454  1.4408  0.6097 -0.6134
  110OSM    H4G11325   5.858   5.003   5.409 -2.5739  1.5178  0.7717
  110OSM    C5F11326   5.705   4.865   5.326  0.3375 -0.3929  0.2105
  110OSM    H5F11327   5.625   4.942   5.323  0.8198  0.0676 -1.8117
  110OSM    H5G11328   5.647   4.773   5.349 -0.1186  0.1087  1.0858
  110OSM    C6F11329   5.761   4.858   5.191  0.1732 -0.0709 -0.4987
  110OSM    H6F11330   5.847   4.788   5.194  0.7611  0.6854  3.3949
  110OSM    H6G11331   5.795   4.961   5.170  1.0744 -0.7010 -2.2081
  110OSM    C7F11332   5.657   4.811   5.088 -0.5122  0.1508 -0.2536
  110OSM    H7F11333   5.559   4.857   5.114 -0.8297 -0.5782 -0.1447
  110OSM    H7G11334   5.648   4.700   5.096 -1.5998  0.2757  0.3923
  110OSM    C8F11335   5.689   4.862   4.942  0.0708  0.7561 -1.0225
  110OSM    H8F11336   5.697   4.973   4.936  2.4650  0.8186  1.9593
  110OSM    H8G11337   5.596   4.838   4.886  0.0946 -0.7400 -0.4286
  110OSM    C9F11338   5.805   4.796   4.876 -0.4488 -0.2341  0.1509
  110OSM    H9F11339   5.786   4.688   4.884 -0.8075 -0.0979  1.2056
  110OSM   C10F11340   5.917   4.856   4.820 -1.0279  0.4993 -0.6015
  110OSM   H10F11341   6.005   4.810   4.772 -0.3752  0.1019  0.9495
  110OSM   C11F11342   5.940   5.008   4.830 -0.3724  0.6364 -0.1131
  110OSM   H11F11343   6.039   5.040   4.870 -1.1718  2.6856  0.2948
  110OSM   H11G11344   5.858   5.055   4.888  0.4785  2.9400 -0.7126
  110OSM   C12F11345   5.930   5.087   4.697 -0.4227 -0.2546  0.3706
  110OSM   H12F11346   5.824   5.077   4.663  0.2399 -1.5788 -1.3569
  110OSM   H12G11347   6.003   5.049   4.622 -0.3510 -0.6134  0.6186
  110OSM   C13F11348   5.950   5.239   4.720  0.5545 -0.8805  0.5722
  110OSM   H13F11349   6.056   5.256   4.749 -0.1877  2.8672  1.2403
  110OSM   H13G11350   5.895   5.262   4.814  3.7615 -1.0368  2.5800
  110OSM   C14F11351   5.915   5.312   4.592 -0.6258 -0.1444  0.4898
  110OSM   H14F11352   5.818   5.281   4.548 -0.8367  1.3796 -0.1519
  110OSM   H14G11353   5.994   5.289   4.517 -1.5853 -0.4088 -0.4489
  110OSM   C15F11354   5.906   5.471   4.619 -0.2356  0.6986 -0.7888
  110OSM   H15F11355   5.999   5.499   4.672 -1.6808  0.4223  2.0160
  110OSM   H15G11356   5.822   5.483   4.691  1.8232 -1.2312  2.0101
  110OSM   C16F11357   5.886   5.544   4.489  0.0069 -0.6086 -0.2195
  110OSM   H16F11358   5.836   5.473   4.420 -1.0881 -0.4576  0.4034
  110OSM   H16G11359   5.989   5.548   4.448  1.3570 -2.7170  2.7178
  110OSM   C17F11360   5.810   5.680   4.492  0.3421 -0.4346  0.1698
  110OSM   H17F11361   5.700   5.667   4.487  0.2789 -0.0360  0.4227
  110OSM   H17G11362   5.840   5.731   4.398 -2.0193 -1.5255 -1.2169
  110OSM   C18F11363   5.863   5.776   4.603  0.1552 -0.0643 -0.4728
  110OSM   H18F11364   5.798   5.864   4.621  0.4021  0.3505 -1.5772
  110OSM   H18G11365   5.966   5.812   4.583  0.1582  0.4396  0.4396
  110OSM   H18H11366   5.874   5.715   4.695  1.3410  1.1024  0.1665
  111OSM      N11367   0.765   4.691   6.864 -0.3275 -0.2607  0.4175
  111OSM    C1511368   0.781   4.590   6.754 -0.4478  0.1442  0.3934
  111OSM   H15A11369   0.784   4.490   6.796 -1.5024 -0.0445  0.0509
  111OSM   H15B11370   0.868   4.606   6.693 -0.3354  1.0383  0.7835
  111OSM   H15C11371   0.699   4.596   6.684  0.2225  0.3435 -0.3877
  111OSM    C1411372   0.621   4.687   6.915 -0.1175 -0.7691  0.4192
  111OSM   H14A11373   0.581   4.589   6.935 -3.5712  0.9708  2.5675
  111OSM   H14B11374   0.548   4.722   6.844 -0.3385 -0.2999  0.8715
  111OSM   H14C11375   0.602   4.740   7.007 -1.9005 -0.6578  0.0070
  111OSM    C1311376   0.851   4.646   6.974 -0.2027  0.2710  0.6099
  111OSM   H13A11377   0.840   4.541   6.999  1.8338 -0.1609 -0.2131
  111OSM   H13B11378   0.828   4.684   7.072  0.5713 -0.5432  1.1182
  111OSM   H13C11379   0.955   4.665   6.954 -0.0350 -0.5986  0.6283
  111OSM    C1211380   0.801   4.838   6.819  0.1300  0.8546 -0.0798
  111OSM   H12A11381   0.909   4.838   6.823  0.1617 -1.2007 -0.2203
  111OSM   H12B11382   0.763   4.896   6.902 -1.6655  2.9013 -2.2954
  111OSM    C1111383   0.750   4.900   6.688  1.9686 -0.8732  0.1489
  111OSM   H11A11384   0.801   4.998   6.676 -0.2212  0.5798  2.3478
  111OSM   H11B11385   0.640   4.913   6.699  1.3085 -3.0765 -2.9545
  111OSM      P11386   0.691   4.808   6.453 -0.1454  0.3309  0.3239
  111OSM    O1311387   0.778   4.778   6.339  0.1980 -0.5638 -0.2287
  111OSM    O1411388   0.587   4.710   6.487  0.1520  0.1220 -0.2607
  111OSM    O1111389   0.632   4.959   6.442 -0.0848  0.3668 -0.6484
  111OSM    O1211390   0.785   4.807   6.582  0.0923 -0.0921  0.2088
  111OSM    C1S11391   0.719   5.078   6.418  0.3026  0.6167 -0.7626
  111OSM    H1S11392   0.829   5.065   6.431  0.2746  0.4994 -0.6415
  111OSM    H1T11393   0.683   5.156   6.489 -0.0233 -0.3134  0.1134
  111OSM     NF11394   0.796   5.228   6.249  0.6515  0.2449 -0.1454
  111OSM    HNF11395   0.778   5.323   6.275 -2.6696 -1.1946  3.3521
  111OSM    C2S11396   0.695   5.125   6.273 -0.4321 -0.0053  0.7769
  111OSM    H2S11397   0.712   5.031   6.215  1.7357  0.2809  0.8958
  111OSM    C3S11398   0.552   5.167   6.245 -0.4121  0.1484 -0.1538
  111OSM    H3S11399   0.530   5.265   6.292  1.6943  0.2453  0.6726
  111OSM     O311400   0.455   5.075   6.288  0.5977  0.2327 -0.0861
  111OSM    HO311401   0.497   5.025   6.358  1.4389 -0.1859 -0.8813
  111OSM    C4S11402   0.549   5.194   6.095  0.1944  0.1792  0.1481
  111OSM    H4S11403   0.601   5.123   6.029  2.4728  3.1051 -1.3323
  111OSM    C5S11404   0.486   5.288   6.025  0.1633  0.6040  0.2981
  111OSM    H5S11405   0.432   5.370   6.073 -1.6179 -0.2730 -0.1510
  111OSM    C6S11406   0.490   5.295   5.877  0.0629 -0.0036 -0.0057
  111OSM    H6S11407   0.589   5.315   5.830  0.2660 -1.8250 -0.3929
  111OSM    H6T11408   0.439   5.389   5.847 -0.7771 -1.1985 -2.4488
  111OSM    C7S11409   0.407   5.176   5.814 -0.5638 -1.0529 -0.0103
  111OSM    H7S11410   0.312   5.170   5.872  0.0434 -2.0938  0.8889
  111OSM    H7T11411   0.472   5.088   5.830 -3.2185 -2.4490  4.0547
  111OSM    C8S11412   0.390   5.187   5.658 -0.2342 -0.8606  0.0036
  111OSM    H8S11413   0.354   5.290   5.637  0.5481 -1.1463 -3.1261
  111OSM    H8T11414   0.314   5.113   5.627  0.5607 -1.0180 -1.6493
  111OSM    C9S11415   0.515   5.163   5.585 -0.1349 -0.2165  0.1661
  111OSM    H9S11416   0.539   5.057   5.608 -0.4578  0.2062  2.5931
  111OSM    H9T11417   0.598   5.228   5.621 -0.0116  1.2428 -2.6206
  111OSM   C10S11418   0.513   5.173   5.423  0.2684  0.5321  0.0630
  111OSM   H10S11419   0.494   5.278   5.396 -0.8072  0.8163  1.8409
  111OSM   H10T11420   0.435   5.108   5.378 -0.7294  2.5288 -1.1445
  111OSM   C11S11421   0.650   5.130   5.358  1.1558 -0.0606  0.0451
  111OSM   H11S11422   0.673   5.027   5.392  1.4966  0.3283  0.9836
  111OSM   H11T11423   0.734   5.197   5.384  0.4467  0.6751  0.4457
  111OSM   C12S11424   0.630   5.155   5.206 -0.1205  0.8642 -0.0792
  111OSM   H12S11425   0.610   5.262   5.189 -1.0993  0.6802 -0.1165
  111OSM   H12T11426   0.536   5.100   5.186 -0.0584  0.7033  0.0619
  111OSM   C13S11427   0.737   5.091   5.124 -0.1544  0.4016  0.3594
  111OSM   H13S11428   0.730   4.982   5.139 -2.0559  0.5305  0.4854
  111OSM   H13T11429   0.840   5.123   5.152  0.5728  0.6910 -2.4713
  111OSM   C14S11430   0.723   5.120   4.975  0.3214  0.1726  0.4788
  111OSM   H14S11431   0.715   5.230   4.958  3.1670  0.5139  1.0342
  111OSM   H14T11432   0.632   5.072   4.933 -1.0761  1.0646  2.3816
  111OSM   C15S11433   0.842   5.058   4.896 -0.2873  0.1983  0.5880
  111OSM   H15S11434   0.836   4.947   4.904  4.8799 -0.2185  0.1021
  111OSM   H15T11435   0.937   5.087   4.946  0.2255 -1.4286  0.5887
  111OSM   C16S11436   0.858   5.089   4.750 -0.2021 -0.4137 -0.2367
  111OSM   H16S11437   0.763   5.055   4.703  0.6239 -2.0811 -0.7540
  111OSM   H16T11438   0.946   5.029   4.719 -1.6011 -2.2814 -0.6808
  111OSM   C17S11439   0.872   5.238   4.716 -0.2014 -0.3876 -0.1812
  111OSM   H17S11440   0.935   5.241   4.625 -1.1426 -0.0054 -0.8309
  111OSM   H17T11441   0.933   5.281   4.799  1.6529 -0.7350 -1.3473
  111OSM   C18S11442   0.744   5.320   4.698 -0.3003  0.1932 -0.6143
  111OSM   H18S11443   0.658   5.281   4.756 -0.2353  0.5080 -0.3049
  111OSM   H18T11444   0.720   5.316   4.589  0.0474  0.5690 -0.7057
  111OSM   H18U11445   0.761   5.426   4.726 -0.9257  0.2491 -0.4277
  111OSM    C1F11446   0.921   5.205   6.215 -0.0094 -0.5190 -0.2120
  111OSM     OF11447   0.969   5.095   6.202  0.0184 -0.8207  0.2936
  111OSM    C2F11448   1.009   5.323   6.208  0.0304  0.3233  0.8052
  111OSM    H2F11449   1.080   5.309   6.292  1.7780  2.7600 -0.2121
  111OSM    H2G11450   0.957   5.418   6.235 -1.7724 -0.0685 -1.0977
  111OSM    C3F11451   1.077   5.329   6.070  1.0073 -0.0318  0.4837
  111OSM    H3F11452   1.133   5.236   6.046 -0.2967 -0.7152  0.0983
  111OSM    H3G11453   1.160   5.403   6.075  0.1611  1.0781 -1.1186
  111OSM    C4F11454   0.981   5.370   5.954 -0.2095 -0.4986  0.7390
  111OSM    H4F11455   1.005   5.472   5.916 -3.4899 -0.3209 -1.0972
  111OSM    H4G11456   0.874   5.375   5.986 -1.1136  0.8875 -2.2796
  111OSM    C5F11457   0.974   5.270   5.830 -0.5639 -0.0074 -0.6032
  111OSM    H5F11458   1.076   5.256   5.790 -1.0652  0.5115 -2.0670
  111OSM    H5G11459   0.906   5.328   5.765  0.5025  1.3827 -0.4900
  111OSM    C6F11460   0.907   5.135   5.869 -0.5533  0.2177  0.1527
  111OSM    H6F11461   0.800   5.161   5.886 -1.2563 -1.7216 -1.0182
  111OSM    H6G11462   0.943   5.093   5.965 -1.1507 -2.7961 -0.8818
  111OSM    C7F11463   0.916   5.033   5.762 -0.1520 -0.3164  0.1278
  111OSM    H7F11464   0.912   5.065   5.656  0.6788 -2.4609 -0.5799
  111OSM    H7G11465   0.831   4.964   5.779  0.0830 -0.2961  1.4242
  111OSM    C8F11466   1.044   4.954   5.772 -0.4468  0.3811 -0.2197
  111OSM    H8F11467   1.078   4.943   5.878 -0.9320  0.5276 -0.0502
  111OSM    H8G11468   1.121   5.022   5.731  0.9853 -1.5204 -0.7642
  111OSM    C9F11469   1.032   4.818   5.707 -0.2882 -0.5129  0.6758
  111OSM    H9F11470   1.022   4.730   5.772 -0.3954 -1.4612 -0.6066
  111OSM   C10F11471   1.037   4.786   5.573  0.7911 -0.0372  0.9013
  111OSM   H10F11472   1.033   4.684   5.532  0.8652  0.2539  0.1561
  111OSM   C11F11473   1.059   4.885   5.464  0.1204  0.2474  0.0760
  111OSM   H11F11474   1.038   4.988   5.501 -2.1078  0.3984 -1.5486
  111OSM   H11G11475   0.988   4.870   5.380  0.6538  1.6138 -0.6388
  111OSM   C12F11476   1.199   4.892   5.409 -0.2517 -0.5034 -0.0998
  111OSM   H12F11477   1.246   4.794   5.385  0.7016  0.2125 -1.2253
  111OSM   H12G11478   1.271   4.942   5.479 -0.2602  0.1961 -0.5840
  111OSM   C13F11479   1.198   4.975   5.269 -0.2272 -0.1492 -0.0615
  111OSM   H13F11480   1.302   5.011   5.252 -0.1299 -0.2993  0.2114
  111OSM   H13G11481   1.117   5.049   5.257  1.3694  1.5501 -0.5643
  111OSM   C14F11482   1.173   4.877   5.147  0.3664 -0.9355  0.9839
  111OSM   H14F11483   1.156   4.941   5.058 -0.8946 -0.6343  1.4323
  111OSM   H14G11484   1.073   4.830   5.159 -0.6637  1.0519  0.3644
  111OSM   C15F11485   1.283   4.773   5.107 -0.5438  0.5040  0.4788
  111OSM   H15F11486   1.311   4.705   5.190  2.8869 -0.1063 -1.0506
  111OSM   H15G11487   1.379   4.821   5.078 -0.4192  0.2046  0.3876
  111OSM   C16F11488   1.240   4.697   4.981  0.0130 -0.0860 -0.5898
  111OSM   H16F11489   1.140   4.656   5.007  0.9469 -2.2384 -0.2923
  111OSM   H16G11490   1.312   4.612   4.977  2.5163  1.8002  2.0090
  111OSM   C17F11491   1.248   4.782   4.852 -0.4013  0.3058 -0.0209
  111OSM   H17F11492   1.350   4.825   4.850 -0.1138 -0.2903  1.4065
  111OSM   H17G11493   1.178   4.868   4.858 -1.4679 -0.5275 -0.3896
  111OSM   C18F11494   1.220   4.719   4.719  0.5120  0.4529 -0.8072
  111OSM   H18F11495   1.290   4.634   4.702  0.3535  0.1479  0.0771
  111OSM   H18G11496   1.229   4.795   4.638 -2.2913  1.0810 -0.5595
  111OSM   H18H11497   1.124   4.666   4.733 -0.6523  1.7618 -3.5059
  112OSM      N11498   4.778   1.085   6.177  0.1212 -0.1581  0.6363
  112OSM    C1511499   4.733   1.112   6.315  0.4498  0.1965  0.9472
  112OSM   H15A11500   4.780   1.205   6.343  0.6596  0.5691 -0.5916
  112OSM   H15B11501   4.767   1.038   6.386 -0.7053 -1.8309 -0.5600
  112OSM   H15C11502   4.625   1.117   6.311  0.4149 -0.7101  0.7264
  112OSM    C1411503   4.681   0.998   6.112  0.7003  0.5144  0.1833
  112OSM   H14A11504   4.703   0.988   6.007  1.0238 -1.3568  0.4051
  112OSM   H14B11505   4.583   1.044   6.120  2.1506  3.4435  1.7249
  112OSM   H14C11506   4.663   0.899   6.153 -1.5822  0.8405  0.0679
  112OSM    C1311507   4.785   1.221   6.106  0.0156 -0.6141 -0.0703
  112OSM   H13A11508   4.691   1.274   6.115 -0.6737 -1.8812  0.3127
  112OSM   H13B11509   4.797   1.219   5.999  0.3739 -1.0145 -0.0208
  112OSM   H13C11510   4.867   1.285   6.136  1.0460 -2.0452  0.2009
  112OSM    C1211511   4.918   1.019   6.185  0.5616  0.3494  0.0939
  112OSM   H12A11512   4.979   1.083   6.246  0.1521 -0.1944  1.0865
  112OSM   H12B11513   4.968   1.027   6.090  0.8018 -1.1279  0.0900
  112OSM    C1111514   4.917   0.871   6.235 -0.1863 -0.0424 -0.4546
  112OSM   H11A11515   4.879   0.798   6.161  0.8499 -0.2299 -0.8075
  112OSM   H11B11516   4.857   0.860   6.328 -1.7868  1.3172 -1.3102
  112OSM      P11517   5.155   0.796   6.173 -0.3309 -0.0966 -0.3268
  112OSM    O1311518   5.284   0.849   6.225 -0.1473  0.3088 -0.0744
  112OSM    O1411519   5.154   0.643   6.152 -0.6978  0.1576  0.0192
  112OSM    O1111520   5.117   0.880   6.044  0.3021 -0.1379 -0.0901
  112OSM    O1211521   5.053   0.842   6.276 -0.2985  0.0916 -0.0442
  112OSM    C1S11522   5.191   0.879   5.923  0.2098  0.4420  0.7924
  112OSM    H1S11523   5.269   0.801   5.927 -0.0916  0.1035  0.2038
  112OSM    H1T11524   5.225   0.983   5.908 -0.2439  0.4422 -0.2779
  112OSM     NF11525   5.197   0.810   5.694 -0.4482 -0.3132  0.0222
  112OSM    HNF11526   5.229   0.891   5.646  1.0077  1.5215  3.8795
  112OSM    C2S11527   5.104   0.840   5.801 -0.0297  0.2163  0.5440
  112OSM    H2S11528   5.051   0.746   5.828  0.6070  0.2748  2.0716
  112OSM    C3S11529   5.004   0.949   5.773 -0.1514 -0.1902 -0.0148
  112OSM    H3S11530   5.044   1.052   5.758  3.0860 -1.8616 -3.5696
  112OSM     O311531   4.906   0.963   5.872  0.2987  0.0916  0.1556
  112OSM    HO311532   4.930   0.907   5.946  0.7723 -0.9490 -0.7583
  112OSM    C4S11533   4.923   0.923   5.650 -0.4309  0.2786 -0.3764
  112OSM    H4S11534   4.819   0.886   5.657  0.1812 -1.6010 -1.0334
  112OSM    C5S11535   4.976   0.950   5.529  0.0470 -0.3631  0.2314
  112OSM    H5S11536   5.076   0.994   5.519  0.1936 -1.0621 -1.4043
  112OSM    C6S11537   4.893   0.921   5.401 -0.3931  0.5569 -0.3929
  112OSM    H6S11538   4.900   1.003   5.326 -0.8504  0.6629 -0.3192
  112OSM    H6T11539   4.786   0.903   5.426 -0.1603 -0.2151  0.0491
  112OSM    C7S11540   4.954   0.808   5.322 -0.2580 -0.0151 -0.4912
  112OSM    H7S11541   4.931   0.708   5.364 -1.1423  0.3334 -0.1444
  112OSM    H7T11542   5.065   0.807   5.323 -0.2511  1.0947 -0.3135
  112OSM    C8S11543   4.897   0.809   5.179  0.1786 -0.2620 -0.0913
  112OSM    H8S11544   4.915   0.909   5.135 -2.1952  0.0745 -0.3505
  112OSM    H8T11545   4.787   0.798   5.182  0.1235  0.4554  0.5828
  112OSM    C9S11546   4.957   0.704   5.086 -0.5186 -0.1123 -0.3317
  112OSM    H9S11547   4.947   0.607   5.139 -0.1719  1.4500  2.6994
  112OSM    H9T11548   5.064   0.720   5.059 -0.7036  2.6004  0.4121
  112OSM   C10S11549   4.859   0.671   4.969  0.3675 -0.7474 -0.3656
  112OSM   H10S11550   4.758   0.644   5.007  1.0199 -0.6998  1.4536
  112OSM   H10T11551   4.886   0.586   4.903  1.3540 -1.4673  0.9220
  112OSM   C11S11552   4.858   0.795   4.870  0.5559  0.2002 -0.2812
  112OSM   H11S11553   4.957   0.790   4.819  0.4042  0.7036 -0.6285
  112OSM   H11T11554   4.854   0.888   4.929 -1.2900  0.4303 -0.7227
  112OSM   C12S11555   4.742   0.790   4.774  0.0692 -0.2167 -0.1785
  112OSM   H12S11556   4.731   0.893   4.734 -0.3872  0.2577  1.1183
  112OSM   H12T11557   4.653   0.759   4.833 -1.6895  0.1617 -2.5499
  112OSM   C13S11558   4.767   0.688   4.666 -0.4524 -0.3082 -0.8292
  112OSM   H13S11559   4.740   0.585   4.698  1.8086 -0.5622  0.3479
  112OSM   H13T11560   4.876   0.684   4.646 -0.5300 -1.4492 -1.0459
  112OSM   C14S11561   4.698   0.729   4.536 -0.5662 -0.3489 -0.8643
  112OSM   H14S11562   4.606   0.784   4.563 -1.7129 -0.4590 -4.2935
  112OSM   H14T11563   4.652   0.637   4.493  0.2999 -1.0276 -0.3615
  112OSM   C15S11564   4.788   0.802   4.432  0.2769 -0.2146  0.4136
  112OSM   H15S11565   4.871   0.734   4.402 -0.1612  0.4932 -2.5631
  112OSM   H15T11566   4.834   0.893   4.476 -0.6801 -0.0897  1.1868
  112OSM   C16S11567   4.719   0.815   4.295 -0.6189  0.6121 -0.7457
  112OSM   H16S11568   4.624   0.870   4.310  0.4338  1.8798  1.5411
  112OSM   H16T11569   4.705   0.710   4.261  1.4863 -0.2754  0.9905
  112OSM   C17S11570   4.808   0.891   4.194 -0.2129  0.0620 -0.1657
  112OSM   H17S11571   4.751   0.902   4.100  0.7157 -0.3504 -0.7833
  112OSM   H17T11572   4.893   0.821   4.177  1.6743  2.9270 -3.0007
  112OSM   C18S11573   4.859   1.034   4.230  0.4053  0.1734  0.2484
  112OSM   H18S11574   4.903   1.083   4.141 -1.0369  1.7545  0.3781
  112OSM   H18T11575   4.942   1.023   4.304  0.7853  0.3812 -0.1460
  112OSM   H18U11576   4.777   1.098   4.270 -0.4046 -0.1464 -0.8917
  112OSM    C1F11577   5.267   0.693   5.684 -0.2362 -0.1061 -0.0272
  112OSM     OF11578   5.268   0.614   5.779 -0.5496  0.4312  0.1945
  112OSM    C2F11579   5.330   0.673   5.549  0.1239 -0.0616 -0.5052
  112OSM    H2F11580   5.428   0.725   5.541 -0.0289  0.0944 -1.4511
  112OSM    H2G11581   5.265   0.715   5.470 -0.7150 -0.9398 -0.2878
  112OSM    C3F11582   5.333   0.520   5.523  0.6743  0.1516 -0.1950
  112OSM    H3F11583   5.235   0.476   5.551  0.7131 -0.8570 -1.5681
  112OSM    H3G11584   5.415   0.471   5.580  1.2239 -0.5270 -1.5293
  112OSM    C4F11585   5.356   0.488   5.373 -0.2227 -0.2467  0.4242
  112OSM    H4F11586   5.389   0.384   5.357 -0.6232 -0.3356  0.1601
  112OSM    H4G11587   5.438   0.547   5.326 -1.0529  0.4552 -0.1641
  112OSM    C5F11588   5.232   0.509   5.287 -0.4055 -0.2348  0.1656
  112OSM    H5F11589   5.232   0.611   5.244 -0.1125 -0.0241  0.6591
  112OSM    H5G11590   5.141   0.500   5.350 -1.4152 -1.8895 -1.4822
  112OSM    C6F11591   5.212   0.410   5.166  0.0452 -0.2947 -0.3297
  112OSM    H6F11592   5.121   0.450   5.116  0.3809 -0.0090 -0.7156
  112OSM    H6G11593   5.194   0.305   5.196  1.7881 -0.3454  0.6230
  112OSM    C7F11594   5.337   0.398   5.072 -0.5897 -0.0264 -0.0052
  112OSM    H7F11595   5.316   0.311   5.006 -0.1223  1.2079 -1.8275
  112OSM    H7G11596   5.435   0.384   5.123  0.7640  0.2305 -2.4438
  112OSM    C8F11597   5.350   0.522   4.977 -0.3316 -0.3370 -0.8002
  112OSM    H8F11598   5.350   0.613   5.040 -0.6418 -1.2626  0.5651
  112OSM    H8G11599   5.270   0.533   4.900  0.5088 -0.9054 -1.7604
  112OSM    C9F11600   5.482   0.524   4.904 -0.0159  0.1770  0.7718
  112OSM    H9F11601   5.565   0.542   4.974  1.3574 -0.7965 -0.5981
  112OSM   C10F11602   5.526   0.496   4.777 -0.0923 -0.3713  0.0004
  112OSM   H10F11603   5.631   0.508   4.747  0.0445 -1.1199  0.1775
  112OSM   C11F11604   5.432   0.449   4.666 -0.0924  0.4698 -0.6952
  112OSM   H11F11605   5.332   0.434   4.712  0.4606  1.3362  0.8354
  112OSM   H11G11606   5.477   0.356   4.625 -0.5450  0.3458 -0.9080
  112OSM   C12F11607   5.403   0.550   4.558 -0.2540  0.1115  0.1693
  112OSM   H12F11608   5.499   0.592   4.520 -0.5332 -0.3943 -1.1499
  112OSM   H12G11609   5.352   0.637   4.604 -2.4636 -1.6309  1.1401
  112OSM   C13F11610   5.317   0.500   4.446 -0.1723 -0.4032 -0.3721
  112OSM   H13F11611   5.214   0.487   4.486  0.5925  0.5756  2.0552
  112OSM   H13G11612   5.330   0.399   4.403 -2.5127 -0.9196  0.0478
  112OSM   C14F11613   5.310   0.598   4.326  0.4820  0.1989  0.5468
  112OSM   H14F11614   5.303   0.705   4.356 -0.7355 -0.1251  1.4968
  112OSM   H14G11615   5.215   0.561   4.282  0.2001  1.5475  0.0016
  112OSM   C15F11616   5.433   0.588   4.233 -0.2210 -0.2143  0.1755
  112OSM   H15F11617   5.445   0.480   4.206 -2.4090  0.1448 -2.4585
  112OSM   H15G11618   5.518   0.631   4.290 -0.2368  0.2322 -0.1348
  112OSM   C16F11619   5.412   0.645   4.095 -0.8310  0.1776  0.5976
  112OSM   H16F11620   5.328   0.583   4.057  1.6762 -1.8482 -1.9029
  112OSM   H16G11621   5.499   0.620   4.029 -1.3968 -0.1466 -0.0312
  112OSM   C17F11622   5.395   0.799   4.090  1.0274  0.3302 -1.0957
  112OSM   H17F11623   5.485   0.850   4.132 -0.3582  2.5594 -0.7825
  112OSM   H17G11624   5.319   0.831   4.164  0.0301  0.1676 -2.0494
  112OSM   C18F11625   5.350   0.844   3.946 -0.0114 -0.1326 -0.8860
  112OSM   H18F11626   5.363   0.954   3.944  0.5588 -0.1514  1.0256
  112OSM   H18G11627   5.251   0.799   3.924  0.6700 -2.0858 -0.1406
  112OSM   H18H11628   5.422   0.802   3.872  0.7972  0.9833 -0.7443
  113OSM      N11629   0.345   3.449   6.643  0.3541  0.2288  0.4179
  113OSM    C1511630   0.490   3.456   6.590 -0.0088  0.3205  0.1242
  113OSM   H15A11631   0.519   3.559   6.578 -0.1399  0.0948 -2.5091
  113OSM   H15B11632   0.499   3.419   6.489 -1.4896 -0.1103  0.1393
  113OSM   H15C11633   0.557   3.403   6.657  1.7903 -0.7050 -2.4176
  113OSM    C1411634   0.300   3.305   6.652 -0.1406  0.0253  0.2692
  113OSM   H14A11635   0.203   3.313   6.701  1.2676 -0.0176  3.1648
  113OSM   H14B11636   0.357   3.236   6.712  0.0156  1.3506  1.6886
  113OSM   H14C11637   0.288   3.271   6.550 -0.2506 -1.3672  0.7382
  113OSM    C1311638   0.343   3.502   6.779 -0.3726 -0.5101 -0.8209
  113OSM   H13A11639   0.398   3.439   6.847  0.5001  2.4759  1.3511
  113OSM   H13B11640   0.247   3.504   6.829  0.1118 -1.5458  0.1701
  113OSM   H13C11641   0.372   3.605   6.792  2.4578 -1.4843  1.1421
  113OSM    C1211642   0.243   3.524   6.561 -0.3012  0.2184  0.3001
  113OSM   H12A11643   0.265   3.629   6.567 -0.3102  0.3270 -1.3686
  113OSM   H12B11644   0.148   3.512   6.611 -0.6000  0.1655 -0.2760
  113OSM    C1111645   0.232   3.473   6.417 -0.0732  0.8081 -0.2979
  113OSM   H11A11646   0.154   3.533   6.364 -0.7069  1.8859  1.7713
  113OSM   H11B11647   0.191   3.370   6.411  0.2618  0.6467  0.1768
  113OSM      P11648   0.409   3.609   6.292  0.1637 -0.4007 -0.2548
  113OSM    O1311649   0.348   3.727   6.353  0.0286  0.1525  0.0497
  113OSM    O1411650   0.557   3.601   6.295  0.0865 -0.1591 -0.6359
  113OSM    O1111651   0.359   3.614   6.142  0.0992  0.5134 -1.0099
  113OSM    O1211652   0.349   3.468   6.341  0.1601 -0.3542  0.2689
  113OSM    C1S11653   0.353   3.497   6.051 -0.1942 -0.0529 -0.2525
  113OSM    H1S11654   0.253   3.450   6.064  0.4885 -1.2784  0.6421
  113OSM    H1T11655   0.420   3.413   6.081 -0.7530 -0.4054  0.0121
  113OSM     NF11656   0.389   3.418   5.825  0.3171  0.4160 -0.3129
  113OSM    HNF11657   0.473   3.368   5.840  0.0640 -0.0100 -0.3264
  113OSM    C2S11658   0.380   3.539   5.907 -0.3904  0.0232 -0.7510
  113OSM    H2S11659   0.294   3.603   5.879 -0.4116  0.9106  1.2871
  113OSM    C3S11660   0.514   3.622   5.909  0.8263 -0.6879  0.9705
  113OSM    H3S11661   0.590   3.566   5.967  0.8170 -0.8609  0.8173
  113OSM     O311662   0.493   3.752   5.973 -0.3854  0.4551 -0.8015
  113OSM    HO311663   0.418   3.740   6.031  0.8207  1.2705  1.0001
  113OSM    C4S11664   0.565   3.652   5.770 -0.7087 -0.0314  0.1841
  113OSM    H4S11665   0.499   3.713   5.706  0.0744 -0.5852 -1.1613
  113OSM    C5S11666   0.686   3.606   5.726 -0.9069  0.1480  0.2383
  113OSM    H5S11667   0.748   3.556   5.802 -2.7008 -1.1897  0.8654
  113OSM    C6S11668   0.756   3.625   5.598 -0.0055  0.8129  0.6225
  113OSM    H6S11669   0.839   3.552   5.583 -1.1669 -0.5310  0.7148
  113OSM    H6T11670   0.812   3.720   5.616  1.6852 -0.2246  0.9898
  113OSM    C7S11671   0.679   3.623   5.463 -0.6491  0.2591 -0.6580
  113OSM    H7S11672   0.753   3.655   5.385  0.9446 -1.0032  0.3047
  113OSM    H7T11673   0.600   3.701   5.469  1.0993  2.0881 -0.8337
  113OSM    C8S11674   0.641   3.480   5.418  0.2045 -0.1200 -0.0053
  113OSM    H8S11675   0.561   3.487   5.342 -0.4348  0.2302  0.6866
  113OSM    H8T11676   0.594   3.417   5.497 -0.7867 -0.7366 -1.0716
  113OSM    C9S11677   0.762   3.406   5.349 -0.4793 -0.1791  0.1210
  113OSM    H9S11678   0.827   3.371   5.432 -0.2567 -4.0544 -1.5795
  113OSM    H9T11679   0.814   3.478   5.281 -1.7958 -1.1948 -2.0047
  113OSM   C10S11680   0.721   3.284   5.265  0.6452  0.3253 -0.1347
  113OSM   H10S11681   0.643   3.308   5.189  0.1056 -0.3258  0.2052
  113OSM   H10T11682   0.682   3.210   5.338  1.3408  0.6343  0.5613
  113OSM   C11S11683   0.828   3.229   5.184 -0.2029 -0.3091  0.4570
  113OSM   H11S11684   0.794   3.130   5.145  1.4371  0.2637 -2.5483
  113OSM   H11T11685   0.926   3.226   5.237  0.6643  1.1505 -1.0160
  113OSM   C12S11686   0.855   3.313   5.059 -0.2335  0.9565 -0.0976
  113OSM   H12S11687   0.870   3.419   5.087 -1.2179  1.1294 -0.2284
  113OSM   H12T11688   0.761   3.313   5.001 -1.0470  0.1966  1.1949
  113OSM   C13S11689   0.977   3.260   4.983 -0.0975  1.3216  0.4457
  113OSM   H13S11690   1.077   3.280   5.026  0.1455  1.9601 -0.4038
  113OSM   H13T11691   0.978   3.327   4.894 -1.0565  0.6713 -0.0609
  113OSM   C14S11692   0.974   3.117   4.934  0.6273 -0.2421  0.6074
  113OSM   H14S11693   0.872   3.096   4.897  1.4298  1.4287 -2.7734
  113OSM   H14T11694   0.985   3.055   5.026 -1.1150 -2.2494 -0.5037
  113OSM   C15S11695   1.078   3.089   4.821 -0.5863  0.0437  0.2858
  113OSM   H15S11696   1.180   3.093   4.866 -0.6796 -1.2934  0.6350
  113OSM   H15T11697   1.071   3.181   4.760  1.4599  0.6474  0.9014
  113OSM   C16S11698   1.052   2.961   4.743 -0.2854 -0.3679  0.5447
  113OSM   H16S11699   1.050   2.978   4.633 -0.4735 -0.8501  0.4696
  113OSM   H16T11700   0.951   2.927   4.776 -1.1891 -0.9274 -2.6186
  113OSM   C17S11701   1.149   2.848   4.770 -0.0382  0.1213 -0.3798
  113OSM   H17S11702   1.249   2.883   4.801  0.1802 -0.5602 -0.3173
  113OSM   H17T11703   1.170   2.798   4.673  1.1998 -0.7993  0.3594
  113OSM   C18S11704   1.095   2.746   4.872  0.3908 -0.7788  0.0877
  113OSM   H18S11705   1.096   2.783   4.977 -0.5241  0.5734 -0.3742
  113OSM   H18T11706   1.151   2.650   4.868  0.2032 -0.8550 -0.6786
  113OSM   H18U11707   0.988   2.722   4.857 -0.0013  1.9247 -1.6432
  113OSM    C1F11708   0.280   3.360   5.775  0.7535  0.4221  0.2832
  113OSM     OF11709   0.177   3.428   5.768  0.6646  0.0091 -0.3543
  113OSM    C2F11710   0.295   3.219   5.733  0.8238 -0.1092 -0.7139
  113OSM    H2F11711   0.218   3.154   5.780  1.0464 -1.6627 -2.4579
  113OSM    H2G11712   0.391   3.193   5.783 -1.4656 -1.5213  3.1775
  113OSM    C3F11713   0.312   3.217   5.582 -0.2156  0.2622 -0.1387
  113OSM    H3F11714   0.335   3.111   5.557  1.1338  0.5647 -0.2115
  113OSM    H3G11715   0.401   3.269   5.542 -0.1351 -0.4760 -0.9376
  113OSM    C4F11716   0.192   3.254   5.498  0.4031 -0.0593  0.5363
  113OSM    H4F11717   0.156   3.359   5.506 -3.3897 -1.1199 -1.5408
  113OSM    H4G11718   0.111   3.184   5.528  0.6947 -1.0731 -0.9875
  113OSM    C5F11719   0.213   3.216   5.350 -0.2401  0.4853  0.4025
  113OSM    H5F11720   0.119   3.194   5.293 -0.3936  1.9457  0.0785
  113OSM    H5G11721   0.286   3.135   5.332  0.4938  1.6602 -2.3011
  113OSM    C6F11722   0.267   3.327   5.262  0.0784 -0.4267  0.1712
  113OSM    H6F11723   0.376   3.329   5.284  0.2634 -1.8935 -0.5624
  113OSM    H6G11724   0.216   3.420   5.295 -0.7216 -0.4781 -0.8842
  113OSM    C7F11725   0.240   3.294   5.117  0.1443  0.8221 -0.0953
  113OSM    H7F11726   0.137   3.261   5.094 -0.2603  2.8506 -1.3267
  113OSM    H7G11727   0.312   3.215   5.088  0.4296  1.5413 -1.3533
  113OSM    C8F11728   0.265   3.420   5.031 -0.0657 -0.5509 -0.0783
  113OSM    H8F11729   0.374   3.437   5.033 -0.0355 -0.8718  1.2446
  113OSM    H8G11730   0.216   3.503   5.087 -2.0212  0.2240 -2.8034
  113OSM    C9F11731   0.209   3.390   4.898  0.2554 -0.1047 -0.3793
  113OSM    H9F11732   0.103   3.405   4.875 -0.0267 -0.1158  0.8388
  113OSM   C10F11733   0.288   3.351   4.796 -0.1311  0.6830 -0.1583
  113OSM   H10F11734   0.237   3.337   4.700 -1.0749  2.8822 -0.0259
  113OSM   C11F11735   0.433   3.329   4.797  0.1779 -0.6109  0.2690
  113OSM   H11F11736   0.477   3.361   4.894  0.7089  0.1301 -0.2109
  113OSM   H11G11737   0.481   3.388   4.716 -0.1839  0.0579  0.5395
  113OSM   C12F11738   0.463   3.182   4.760  0.2893  0.2402  1.3108
  113OSM   H12F11739   0.420   3.109   4.833  2.1392 -1.6150  0.6185
  113OSM   H12G11740   0.574   3.171   4.753 -0.1725 -3.9552 -1.4622
  113OSM   C13F11741   0.398   3.143   4.624 -0.3606 -0.6616 -0.2691
  113OSM   H13F11742   0.435   3.204   4.539 -0.0788 -2.3095 -1.3487
  113OSM   H13G11743   0.287   3.134   4.625 -0.3729 -0.7012 -1.2626
  113OSM   C14F11744   0.442   3.000   4.572  0.3516 -0.4380  0.1232
  113OSM   H14F11745   0.397   2.914   4.626  0.5981  0.5026  1.8805
  113OSM   H14G11746   0.552   3.000   4.585  0.3550 -0.1364  0.1081
  113OSM   C15F11747   0.414   2.977   4.428 -0.7080 -0.0442  0.4293
  113OSM   H15F11748   0.468   3.053   4.367 -2.0058  1.1281  0.7120
  113OSM   H15G11749   0.308   2.982   4.394 -0.8820 -0.5072  0.9059
  113OSM   C16F11750   0.463   2.840   4.390 -0.4944  0.3672  0.3686
  113OSM   H16F11751   0.415   2.762   4.454 -1.1884 -0.0950 -0.7130
  113OSM   H16G11752   0.573   2.847   4.406 -0.6648  2.0374  0.8746
  113OSM   C17F11753   0.452   2.822   4.240  0.7407  0.1499  0.4874
  113OSM   H17F11754   0.488   2.915   4.191 -0.7608  1.3361  1.5982
  113OSM   H17G11755   0.347   2.810   4.208  1.1344  0.3275 -0.9209
  113OSM   C18F11756   0.532   2.695   4.176 -0.4899  0.5797  0.3654
  113OSM   H18F11757   0.560   2.704   4.070 -0.6514  0.3044  0.2973
  113OSM   H18G11758   0.476   2.604   4.207  0.4105 -0.2197 -0.3352
  113OSM   H18H11759   0.628   2.679   4.230 -0.1771  0.4378 -0.2276
  114OSM      N11760   6.194   2.707   6.190  0.2658  0.4628 -0.4718
  114OSM    C1511761   6.275   2.643   6.081 -0.4437  0.5423 -0.2614
  114OSM   H15A11762   6.282   2.717   6.003 -1.0469  1.6407  0.6966
  114OSM   H15B11763   6.245   2.544   6.052  2.3276 -0.5851  0.5480
  114OSM   H15C11764   6.376   2.634   6.119 -0.4768  0.3898 -0.2141
  114OSM    C1411765   6.246   2.845   6.224  0.4429  0.1846  0.8338
  114OSM   H14A11766   6.230   2.916   6.145  0.5177  1.5705  2.0399
  114OSM   H14B11767   6.350   2.845   6.254  0.5735 -0.2574  0.3987
  114OSM   H14C11768   6.197   2.893   6.308 -1.4843  1.2687 -0.8653
  114OSM    C1311769   6.057   2.724   6.139  0.0432  0.1878 -0.2059
  114OSM   H13A11770   6.013   2.627   6.119 -0.9727  0.1255  2.1931
  114OSM   H13B11771   6.055   2.791   6.055 -2.0555 -0.4764 -0.7258
  114OSM   H13C11772   5.992   2.774   6.209  1.6305  0.7544  0.8840
  114OSM    C1211773   6.196   2.615   6.315 -0.1950 -0.2085  0.3071
  114OSM   H12A11774   6.156   2.520   6.285  3.6445 -0.7253 -3.6592
  114OSM   H12B11775   6.129   2.660   6.386  0.0343 -0.0173  0.4043
  114OSM    C1111776   6.334   2.598   6.388  0.1016 -0.7727  0.1038
  114OSM   H11A11777   6.322   2.546   6.485 -2.9305 -0.9838 -0.3625
  114OSM   H11B11778   6.382   2.697   6.407 -0.6842 -0.5730  1.0613
  114OSM      P11779   6.572   2.539   6.283  0.0861 -0.0403  0.2460
  114OSM    O1311780   6.605   2.682   6.290  0.0189 -0.4524 -0.0746
  114OSM    O1411781   6.657   2.439   6.347  0.3904  0.7770  0.8447
  114OSM    O1111782   6.583   2.512   6.128  0.3829  0.4706  0.2308
  114OSM    O1211783   6.419   2.507   6.318  1.1688  0.4532  0.3605
  114OSM    C1S11784   6.513   2.395   6.072  0.8276  0.3680  0.1907
  114OSM    H1S11785   6.415   2.372   6.120  0.5374  0.8731 -0.1527
  114OSM    H1T11786   6.572   2.302   6.084  0.3027 -0.1640 -1.2391
  114OSM     NF11787   6.398   2.300   5.880 -0.1949  0.3549 -0.0652
  114OSM    HNF11788   6.431   2.211   5.849 -0.5191  0.2688 -0.1686
  114OSM    C2S11789   6.496   2.398   5.917  0.0224  0.4719  0.2473
  114OSM    H2S11790   6.457   2.499   5.894  1.8613  0.6709 -2.2574
  114OSM    C3S11791   6.633   2.378   5.847 -0.4045  0.1998 -0.2859
  114OSM    H3S11792   6.668   2.273   5.853 -1.6666 -0.2529 -0.6759
  114OSM     O311793   6.732   2.453   5.917  0.3273 -0.2062  0.2259
  114OSM    HO311794   6.686   2.475   5.998  2.6168  0.7446  1.3025
  114OSM    C4S11795   6.626   2.408   5.702  0.0271 -0.3299 -0.3417
  114OSM    H4S11796   6.595   2.513   5.690 -0.2827 -0.4966 -1.0170
  114OSM    C5S11797   6.628   2.330   5.602 -0.4818  0.1599  0.2753
  114OSM    H5S11798   6.649   2.223   5.617  0.6094  0.6647  2.5798
  114OSM    C6S11799   6.621   2.368   5.459 -0.4859 -0.3543 -0.1011
  114OSM    H6S11800   6.551   2.295   5.413 -1.6922  0.8911 -0.2665
  114OSM    H6T11801   6.725   2.350   5.425 -0.7508 -0.5857 -0.7929
  114OSM    C7S11802   6.563   2.506   5.431 -0.8971 -0.3949  0.2431
  114OSM    H7S11803   6.631   2.585   5.468 -1.1546 -0.7973  1.6120
  114OSM    H7T11804   6.459   2.519   5.469 -1.4401  0.1391 -1.3695
  114OSM    C8S11805   6.562   2.525   5.277 -0.7045 -0.0922 -0.6470
  114OSM    H8S11806   6.511   2.455   5.207 -1.4559  0.3768 -0.5816
  114OSM    H8T11807   6.665   2.535   5.237 -0.8751  0.9500 -0.8253
  114OSM    C9S11808   6.505   2.664   5.239 -0.7966  0.9252 -0.8211
  114OSM    H9S11809   6.552   2.688   5.141  0.3297 -0.4304 -0.6170
  114OSM    H9T11810   6.530   2.753   5.300  0.6064  0.5445 -0.8310
  114OSM   C10S11811   6.353   2.654   5.211  0.4175 -0.1780 -0.0113
  114OSM   H10S11812   6.305   2.603   5.297 -0.2442 -4.7026 -2.9079
  114OSM   H10T11813   6.342   2.576   5.133 -0.0045 -2.5057  2.2987
  114OSM   C11S11814   6.285   2.785   5.165 -0.6483 -0.1464  0.1843
  114OSM   H11S11815   6.342   2.821   5.077 -1.7982 -0.7970 -0.8423
  114OSM   H11T11816   6.314   2.865   5.236  1.8600 -0.4632 -0.4232
  114OSM   C12S11817   6.134   2.772   5.149 -0.4435  0.8816  0.0819
  114OSM   H12S11818   6.094   2.873   5.128 -0.3351  1.3952  2.1754
  114OSM   H12T11819   6.100   2.731   5.247  1.8727  1.9308  1.3665
  114OSM   C13S11820   6.084   2.676   5.041  0.0022 -0.5010 -0.8487
  114OSM   H13S11821   6.108   2.580   5.093 -0.0511  0.2712  0.6395
  114OSM   H13T11822   6.155   2.675   4.956 -0.8077 -1.5067 -1.5391
  114OSM   C14S11823   5.939   2.687   4.991 -0.0240 -0.6115 -0.8855
  114OSM   H14S11824   5.925   2.783   4.938  0.6076 -0.2738 -0.4402
  114OSM   H14T11825   5.867   2.702   5.074  0.0751 -1.5388 -0.6235
  114OSM   C15S11826   5.880   2.564   4.920  0.1212  0.6975 -0.1002
  114OSM   H15S11827   5.769   2.565   4.925  0.0137 -2.3757 -1.1602
  114OSM   H15T11828   5.901   2.469   4.975  0.5926  1.0026  0.2469
  114OSM   C16S11829   5.931   2.546   4.776  0.1545 -0.4208  1.3694
  114OSM   H16S11830   5.932   2.443   4.734  2.9935  0.9297 -2.0688
  114OSM   H16T11831   6.039   2.570   4.769  0.1231 -0.9233 -1.2334
  114OSM   C17S11832   5.845   2.635   4.676  0.0027  0.6255  0.0840
  114OSM   H17S11833   5.866   2.743   4.689  0.8006  0.5656 -0.6722
  114OSM   H17T11834   5.735   2.618   4.675  0.2058 -0.8368  0.1539
  114OSM   C18S11835   5.886   2.590   4.535  0.2197  0.1370  0.2955
  114OSM   H18S11836   5.825   2.644   4.459 -0.7763  1.2356  1.8262
  114OSM   H18T11837   5.869   2.482   4.517  0.6910  0.5878 -3.0087
  114OSM   H18U11838   5.992   2.615   4.515  0.1827  0.7320  0.8146
  114OSM    C1F11839   6.267   2.308   5.893  0.5479  0.8146  0.8677
  114OSM     OF11840   6.206   2.407   5.932 -0.1968 -0.0193  0.0365
  114OSM    C2F11841   6.189   2.182   5.872  0.2898  0.3414  0.1120
  114OSM    H2F11842   6.127   2.164   5.962 -0.9861 -0.5711 -0.9112
  114OSM    H2G11843   6.249   2.090   5.857  0.0083  0.0141  0.9703
  114OSM    C3F11844   6.094   2.192   5.755 -0.1410  0.0041  0.2342
  114OSM    H3F11845   6.025   2.272   5.789 -1.1089 -0.8298  0.2652
  114OSM    H3G11846   6.047   2.092   5.747  0.1070 -0.4530  3.8792
  114OSM    C4F11847   6.174   2.215   5.622  0.0837 -0.0408 -0.6788
  114OSM    H4F11848   6.256   2.141   5.620  0.5245  0.4309 -0.2026
  114OSM    H4G11849   6.199   2.323   5.613  0.8679 -0.1687 -0.0047
  114OSM    C5F11850   6.081   2.174   5.511 -0.2104 -0.2735  0.6226
  114OSM    H5F11851   5.980   2.212   5.540 -0.6440 -0.9069 -0.0454
  114OSM    H5G11852   6.083   2.063   5.501 -1.5247 -0.5612  3.1301
  114OSM    C6F11853   6.111   2.249   5.379 -0.4632  0.2607  0.3661
  114OSM    H6F11854   6.090   2.356   5.399  1.2119  0.4188  1.3819
  114OSM    H6G11855   6.052   2.212   5.292 -0.0294 -0.1117  0.2264
  114OSM    C7F11856   6.262   2.243   5.334  0.4728 -0.2232 -0.3228
  114OSM    H7F11857   6.329   2.276   5.415 -0.3140  2.7356 -0.8265
  114OSM    H7G11858   6.266   2.315   5.250 -0.6913  1.0848  0.7147
  114OSM    C8F11859   6.302   2.098   5.289  0.4224 -0.4776 -0.0079
  114OSM    H8F11860   6.220   2.063   5.223  0.1527  2.9058 -1.5630
  114OSM    H8G11861   6.299   2.031   5.377 -3.1978  1.4659  1.4708
  114OSM    C9F11862   6.436   2.106   5.214  0.2893 -0.4230  0.3100
  114OSM    H9F11863   6.516   2.102   5.290  0.7415 -1.8906 -0.2274
  114OSM   C10F11864   6.456   2.118   5.078 -0.0333  0.7307 -0.6875
  114OSM   H10F11865   6.554   2.115   5.028  1.2814  0.5620  1.8191
  114OSM   C11F11866   6.345   2.124   4.975  0.2226 -0.0442  0.5030
  114OSM   H11F11867   6.255   2.070   5.010  0.7080 -1.2241 -0.0335
  114OSM   H11G11868   6.374   2.063   4.887 -3.4119  0.6770 -1.2844
  114OSM   C12F11869   6.310   2.264   4.921  0.4235 -0.5397  0.0519
  114OSM   H12F11870   6.402   2.324   4.902 -0.4230  0.5733 -0.5964
  114OSM   H12G11871   6.245   2.315   4.995  0.5760 -1.0506  0.5464
  114OSM   C13F11872   6.223   2.252   4.788 -0.0760 -0.6729 -0.4953
  114OSM   H13F11873   6.288   2.213   4.707  0.2135  1.5745 -1.3909
  114OSM   H13G11874   6.182   2.348   4.751  0.8742 -0.7589 -1.7858
  114OSM   C14F11875   6.099   2.164   4.800  0.0040  0.4006  0.6324
  114OSM   H14F11876   6.039   2.205   4.884 -0.4586  2.2835 -0.5883
  114OSM   H14G11877   6.139   2.065   4.831  2.4591  1.8679  2.2430
  114OSM   C15F11878   6.008   2.147   4.675  0.3546  0.3110 -0.5733
  114OSM   H15F11879   5.933   2.229   4.681  0.3486  0.3989 -1.7831
  114OSM   H15G11880   5.961   2.046   4.676  1.0799 -0.0481 -1.5483
  114OSM   C16F11881   6.086   2.141   4.540  0.4525 -0.4705  0.1119
  114OSM   H16F11882   6.158   2.226   4.534  0.0245 -0.1988 -1.2229
  114OSM   H16G11883   6.010   2.151   4.460  1.8242  0.0476 -1.1609
  114OSM   C17F11884   6.160   2.005   4.517  0.1428  0.2237 -0.2242
  114OSM   H17F11885   6.081   1.930   4.538  0.5473  0.1491  1.0618
  114OSM   H17G11886   6.241   1.992   4.592  1.7745  0.7170 -1.8721
  114OSM   C18F11887   6.218   1.997   4.377 -0.2516 -1.0625 -0.8278
  114OSM   H18F11888   6.191   2.091   4.324  0.5624 -0.1315  0.3862
  114OSM   H18G11889   6.192   1.911   4.312 -1.6205 -1.4194  0.1727
  114OSM   H18H11890   6.328   2.003   4.394 -0.6630 -0.9787  2.1223
  115OSM      N11891   6.834   5.100   6.337  0.2328  0.2140 -0.3984
  115OSM    C1511892   6.959   5.135   6.407 -0.0125 -0.5521 -0.6732
  115OSM   H15A11893   6.933   5.167   6.507 -0.5751  1.9597 -1.5696
  115OSM   H15B11894   6.997   5.226   6.362 -0.1322 -0.7600 -1.1954
  115OSM   H15C11895   7.038   5.062   6.401  0.9063  0.5677 -2.6995
  115OSM    C1411896   6.868   5.125   6.185 -0.3183  1.0539 -0.5072
  115OSM   H14A11897   6.938   5.046   6.162 -0.6527  0.6969 -0.3207
  115OSM   H14B11898   6.924   5.216   6.175 -0.5143  1.1841 -0.4145
  115OSM   H14C11899   6.777   5.121   6.126  0.1579 -0.1209 -1.1929
  115OSM    C1311900   6.808   4.951   6.375  0.1095 -0.0315  0.7081
  115OSM   H13A11901   6.798   4.946   6.483 -0.0472  0.8985  0.7456
  115OSM   H13B11902   6.894   4.897   6.340  0.7693  2.4597 -1.6514
  115OSM   H13C11903   6.719   4.925   6.320  0.7075 -0.9942  0.1949
  115OSM    C1211904   6.720   5.186   6.378 -0.0792  0.2475 -0.6097
  115OSM   H12A11905   6.753   5.288   6.366 -1.5014  0.8712  0.5139
  115OSM   H12B11906   6.694   5.159   6.479  2.2303 -0.6261 -0.2182
  115OSM    C1111907   6.588   5.171   6.294  0.1514  0.2816 -0.8225
  115OSM   H11A11908   6.608   5.204   6.190 -0.3256 -0.3741 -1.1296
  115OSM   H11B11909   6.513   5.239   6.339 -0.4099 -1.4929  0.9685
  115OSM      P11910   6.461   4.956   6.200 -0.1324 -0.0539 -0.4595
  115OSM    O1311911   6.517   4.819   6.201 -0.3318 -0.5236  0.4647
  115OSM    O1411912   6.311   4.952   6.215  0.5578 -0.4522  0.0135
  115OSM    O1111913   6.502   5.032   6.067  0.5415  0.1984  1.1219
  115OSM    O1211914   6.527   5.043   6.311 -0.4371  0.2801  0.5409
  115OSM    C1S11915   6.456   4.979   5.948 -0.1821 -0.7596 -0.3527
  115OSM    H1S11916   6.346   4.967   5.946 -0.0022 -2.6504  0.5203
  115OSM    H1T11917   6.512   4.886   5.925  0.1865  0.0640 -2.9233
  115OSM     NF11918   6.441   5.026   5.704  0.2765  0.4449  0.2805
  115OSM    HNF11919   6.491   4.963   5.646 -1.7925 -0.6566 -0.3705
  115OSM    C2S11920   6.498   5.072   5.832 -0.3958 -0.2493  0.0621
  115OSM    H2S11921   6.454   5.172   5.848  1.0638  0.5363 -0.7014
  115OSM    C3S11922   6.651   5.090   5.816 -0.1778  0.2872  0.5881
  115OSM    H3S11923   6.695   4.992   5.789  0.4533 -0.1383  3.0347
  115OSM     O311924   6.713   5.137   5.936 -0.0862  0.2825  0.3619
  115OSM    HO311925   6.649   5.126   6.007  2.3277  0.6167  2.6687
  115OSM    C4S11926   6.678   5.194   5.709 -0.1697  0.0225  0.5032
  115OSM    H4S11927   6.679   5.300   5.739  1.7821 -0.3270  1.7212
  115OSM    C5S11928   6.711   5.163   5.581  0.4839  0.0155 -0.1256
  115OSM    H5S11929   6.697   5.060   5.544  1.7538 -0.3460  0.4021
  115OSM    C6S11930   6.726   5.259   5.471  0.0638  0.5937  0.4824
  115OSM    H6S11931   6.828   5.264   5.429 -0.6850  3.6236 -1.1427
  115OSM    H6T11932   6.708   5.361   5.513 -0.6806  0.4020  0.6516
  115OSM    C7S11933   6.635   5.240   5.345 -0.4534 -0.8667 -1.0002
  115OSM    H7S11934   6.636   5.341   5.299 -3.1716 -0.8737 -1.1431
  115OSM    H7T11935   6.526   5.223   5.359  0.1211 -2.5479  1.9097
  115OSM    C8S11936   6.690   5.133   5.247 -0.1432  0.1286 -0.2058
  115OSM    H8S11937   6.676   5.036   5.299 -2.4078  0.8800  0.6372
  115OSM    H8T11938   6.797   5.147   5.220 -0.3755  0.3425 -1.0396
  115OSM    C9S11939   6.616   5.122   5.121  0.3456  0.6110  0.2368
  115OSM    H9S11940   6.589   5.220   5.076 -1.8346 -0.3240 -0.5282
  115OSM    H9T11941   6.517   5.082   5.149  0.4753  1.6182  2.1424
  115OSM   C10S11942   6.702   5.045   5.022 -0.5849  0.5855  0.3620
  115OSM   H10S11943   6.731   4.944   5.059  2.2230  1.2548  0.0920
  115OSM   H10T11944   6.803   5.091   5.018  0.2721 -1.3601 -1.4235
  115OSM   C11S11945   6.652   5.059   4.875 -0.4542 -0.1785 -0.3762
  115OSM   H11S11946   6.651   5.169   4.857  2.6015  0.2538  1.8413
  115OSM   H11T11947   6.545   5.028   4.869 -0.5046 -0.4605  1.6440
  115OSM   C12S11948   6.737   4.979   4.781 -0.2102  0.5089 -0.0823
  115OSM   H12S11949   6.718   4.870   4.790  2.3463 -0.0482 -0.8759
  115OSM   H12T11950   6.843   4.999   4.809 -0.3727 -0.3142  1.1155
  115OSM   C13S11951   6.717   5.017   4.631 -0.0995  0.8736  0.0222
  115OSM   H13S11952   6.708   5.127   4.618  0.8322  0.6703 -2.3634
  115OSM   H13T11953   6.623   4.979   4.586 -0.3101 -0.1955  1.3129
  115OSM   C14S11954   6.828   4.962   4.526  0.0501 -0.4506 -0.6944
  115OSM   H14S11955   6.897   4.903   4.589 -1.5100  0.6737  2.1716
  115OSM   H14T11956   6.879   5.049   4.480  0.7254 -0.7425 -0.4979
  115OSM   C15S11957   6.775   4.876   4.417  0.6721  0.9720  0.0424
  115OSM   H15S11958   6.694   4.811   4.455  1.0704 -0.1183 -0.9202
  115OSM   H15T11959   6.853   4.806   4.380  0.1113 -0.6239  1.8084
  115OSM   C16S11960   6.724   4.963   4.305  0.1104  0.2104  0.3127
  115OSM   H16S11961   6.815   5.005   4.259 -0.2954  0.5991 -0.1405
  115OSM   H16T11962   6.649   5.043   4.327  0.0448  0.2660 -0.1075
  115OSM   C17S11963   6.662   4.891   4.190 -0.4195  1.1406 -0.6093
  115OSM   H17S11964   6.571   4.833   4.218 -0.0213  0.8990  0.2147
  115OSM   H17T11965   6.730   4.810   4.156 -0.3392  1.7873 -2.0380
  115OSM   C18S11966   6.620   4.981   4.077  0.2013  0.2712  0.0938
  115OSM   H18S11967   6.522   5.028   4.101  0.4129  0.6589  0.2001
  115OSM   H18T11968   6.606   4.919   3.986  0.8590 -0.6240  0.6022
  115OSM   H18U11969   6.704   5.050   4.057  0.4435  0.6478  2.2572
  115OSM    C1F11970   6.316   5.050   5.673 -0.3281  0.1608  0.4523
  115OSM     OF11971   6.243   5.113   5.743 -0.1069 -0.2015  0.4017
  115OSM    C2F11972   6.266   4.987   5.541 -0.3613  0.5097 -0.4507
  115OSM    H2F11973   6.204   4.900   5.572  0.8531 -0.4574 -0.7227
  115OSM    H2G11974   6.351   4.965   5.474 -1.2775 -0.5582 -1.2749
  115OSM    C3F11975   6.169   5.074   5.457  0.1028 -0.0250  0.0594
  115OSM    H3F11976   6.214   5.175   5.441 -1.3791  0.1926 -3.2846
  115OSM    H3G11977   6.076   5.088   5.516  0.2170 -0.0767  0.2523
  115OSM    C4F11978   6.152   5.018   5.315  0.1694  1.5322  0.1230
  115OSM    H4F11979   6.074   4.941   5.329 -2.9675  4.4667 -0.4932
  115OSM    H4G11980   6.249   4.981   5.277  0.0092 -0.4335  1.5923
  115OSM    C5F11981   6.096   5.118   5.213  0.2892  0.0874 -0.1366
  115OSM    H5F11982   6.027   5.195   5.253 -1.3327 -1.1472 -0.5159
  115OSM    H5G11983   6.041   5.068   5.130  0.7779 -2.8793  1.2608
  115OSM    C6F11984   6.220   5.191   5.161  0.8337  1.2388 -0.0510
  115OSM    H6F11985   6.282   5.116   5.107 -1.7149 -0.8573 -0.1682
  115OSM    H6G11986   6.277   5.247   5.238  0.3134  0.6343  0.7799
  115OSM    C7F11987   6.171   5.289   5.052 -0.9177 -0.1761  0.9587
  115OSM    H7F11988   6.116   5.376   5.094  0.8763  1.5431 -0.1435
  115OSM    H7G11989   6.105   5.232   4.983  0.2843 -0.0803 -0.2993
  115OSM    C8F11990   6.290   5.336   4.964  0.4498 -0.3086 -0.9852
  115OSM    H8F11991   6.342   5.248   4.920 -1.4600 -0.4899 -2.9423
  115OSM    H8G11992   6.355   5.387   5.039 -2.0338  0.4016  0.7320
  115OSM    C9F11993   6.273   5.442   4.857 -0.1157  0.3918 -0.9188
  115OSM    H9F11994   6.263   5.545   4.896 -0.4196  0.1427 -0.3309
  115OSM   C10F11995   6.276   5.420   4.722  0.2056 -0.6044  0.5740
  115OSM   H10F11996   6.242   5.496   4.650  0.3242  0.6739  1.8328
  115OSM   C11F11997   6.293   5.288   4.656 -0.7331 -0.4411 -0.6710
  115OSM   H11F11998   6.215   5.281   4.577  0.4459  1.0712 -2.0122
  115OSM   H11G11999   6.272   5.207   4.729 -2.7052 -1.6350 -2.4915
  115OSM   C12F12000   6.438   5.285   4.592  0.2648 -0.1427  0.6187
  115OSM   H12F12001   6.466   5.177   4.587 -0.6378 -0.4248  1.5479
  115OSM   H12G12002   6.516   5.340   4.648  1.5195 -1.7756  0.5079
  115OSM   C13F12003   6.435   5.341   4.448  0.2248  0.1918  0.5341
  115OSM   H13F12004   6.388   5.441   4.439 -1.0675 -0.1455  3.0614
  115OSM   H13G12005   6.367   5.271   4.395  0.8627  0.1417 -0.2293
  115OSM   C14F12006   6.576   5.330   4.385  0.1484 -0.2883  0.1586
  115OSM   H14F12007   6.615   5.228   4.404 -1.5740 -1.3078 -1.5673
  115OSM   H14G12008   6.644   5.400   4.437  0.2361  0.9859 -1.6283
  115OSM   C15F12009   6.569   5.355   4.232  0.4107 -0.8234 -0.7595
  115OSM   H15F12010   6.538   5.460   4.216  0.9095 -0.5118  0.2666
  115OSM   H15G12011   6.487   5.290   4.194 -1.3640  1.7504 -1.4534
  115OSM   C16F12012   6.706   5.332   4.174  0.0539 -0.3093 -0.6697
  115OSM   H16F12013   6.736   5.226   4.191 -0.5463 -0.2365  0.8959
  115OSM   H16G12014   6.782   5.401   4.218 -0.5181  0.7422 -1.3108
  115OSM   C17F12015   6.702   5.353   4.020 -0.2381 -0.4218  0.5968
  115OSM   H17F12016   6.656   5.451   3.995  0.9365  0.0289  0.1482
  115OSM   H17G12017   6.637   5.275   3.977 -0.8293  0.3091  0.1513
  115OSM   C18F12018   6.838   5.360   3.954 -0.2715 -0.4960  0.1799
  115OSM   H18F12019   6.895   5.265   3.959  1.6179  0.5482 -0.9694
  115OSM   H18G12020   6.909   5.434   3.997  2.0121 -1.6622 -1.4795
  115OSM   H18H12021   6.828   5.380   3.846 -1.3122 -4.1769 -0.4624
  116OSM      N12022   6.140   1.741   6.468  0.3373  0.0278  0.1979
  116OSM    C1512023   6.215   1.858   6.531  0.4688  0.3980  1.0962
  116OSM   H15A12024   6.165   1.954   6.522  0.4628  0.1969 -1.3612
  116OSM   H15B12025   6.296   1.883   6.464 -1.0448  2.6307  0.0223
  116OSM   H15C12026   6.244   1.842   6.633 -0.5631 -1.1601  1.1645
  116OSM    C1412027   6.212   1.617   6.521 -0.8140 -0.3938 -0.6427
  116OSM   H14A12028   6.178   1.524   6.478 -3.9195  0.2065  0.3277
  116OSM   H14B12029   6.199   1.610   6.628 -0.2224  1.8330 -0.3992
  116OSM   H14C12030   6.317   1.626   6.499 -0.6861  1.8680  0.6656
  116OSM    C1312031   6.002   1.734   6.523  0.6938 -0.5741  0.2615
  116OSM   H13A12032   5.954   1.828   6.500 -0.9633 -1.1934  1.1311
  116OSM   H13B12033   5.994   1.727   6.631  0.1958 -0.4988  0.2333
  116OSM   H13C12034   5.948   1.646   6.493 -1.5466  0.8358  0.0191
  116OSM    C1212035   6.140   1.754   6.313  0.0979 -0.2455  0.1306
  116OSM   H12A12036   6.093   1.850   6.297 -0.9569 -0.7164  0.3793
  116OSM   H12B12037   6.079   1.676   6.268  1.3788 -0.2604 -1.6263
  116OSM    C1112038   6.282   1.752   6.238  0.1925  0.1708 -0.1687
  116OSM   H11A12039   6.273   1.749   6.127  0.3369 -2.4235 -0.1563
  116OSM   H11B12040   6.325   1.652   6.261 -4.0994 -1.7705 -0.0270
  116OSM      P12041   6.386   1.984   6.196 -0.2546 -0.3353  0.0559
  116OSM    O1312042   6.256   2.054   6.177 -0.0873  0.1054 -0.7091
  116OSM    O1412043   6.490   2.072   6.254 -0.3418  0.4550  0.4044
  116OSM    O1112044   6.436   1.941   6.056  0.1539 -0.1203 -0.5245
  116OSM    O1212045   6.378   1.849   6.280 -0.0832 -0.4408 -1.2206
  116OSM    C1S12046   6.539   1.851   6.041 -0.0544  0.0097  0.8903
  116OSM    H1S12047   6.524   1.761   6.104  0.2209  0.2401  1.2914
  116OSM    H1T12048   6.627   1.908   6.077 -0.9102  1.9782 -0.0281
  116OSM     NF12049   6.665   1.713   5.900 -0.4018 -0.8749 -0.4202
  116OSM    HNF12050   6.756   1.750   5.914  0.5808 -4.0794  2.4195
  116OSM    C2S12051   6.556   1.806   5.894 -0.0194  0.3113 -0.6974
  116OSM    H2S12052   6.464   1.762   5.849  0.8870 -1.9952 -0.4076
  116OSM    C3S12053   6.586   1.931   5.814 -0.0712 -0.5781 -0.1303
  116OSM    H3S12054   6.666   1.990   5.864 -0.7700  0.4593 -0.2289
  116OSM     O312055   6.484   2.025   5.811 -0.1302  0.5500  0.7907
  116OSM    HO312056   6.425   1.987   5.877  0.8248 -0.1736  1.2458
  116OSM    C4S12057   6.618   1.909   5.666 -0.0509 -0.5109 -0.3573
  116OSM    H4S12058   6.537   1.892   5.594  0.6314  0.2316 -1.3211
  116OSM    C5S12059   6.742   1.929   5.617  0.0349  0.1059 -0.4860
  116OSM    H5S12060   6.826   1.950   5.685  0.8358  1.1846 -1.7619
  116OSM    C6S12061   6.782   1.917   5.472  0.1749 -0.3566  0.1876
  116OSM    H6S12062   6.882   1.870   5.465  0.5794  0.5284 -0.0315
  116OSM    H6T12063   6.804   2.019   5.434  2.0025 -1.9392 -3.1930
  116OSM    C7S12064   6.672   1.849   5.394 -0.0984  0.1771  0.0607
  116OSM    H7S12065   6.577   1.905   5.406 -0.0399  0.4720 -0.8877
  116OSM    H7T12066   6.664   1.749   5.444  0.6130  0.2210  0.2739
  116OSM    C8S12067   6.694   1.827   5.248 -1.1294  0.2640 -0.0326
  116OSM    H8S12068   6.781   1.770   5.208 -2.3950 -0.9777 -1.0796
  116OSM    H8T12069   6.694   1.921   5.188 -2.2915  0.6630  0.5806
  116OSM    C9S12070   6.578   1.735   5.198  0.1467 -0.3041 -0.4128
  116OSM    H9S12071   6.493   1.762   5.265  2.2560 -0.9034  2.6268
  116OSM    H9T12072   6.607   1.628   5.213  0.7867 -0.0268  0.3899
  116OSM   C10S12073   6.560   1.747   5.045  0.6833 -0.4068 -0.0101
  116OSM   H10S12074   6.653   1.714   4.994 -0.8098 -1.4468 -2.1292
  116OSM   H10T12075   6.554   1.855   5.020 -2.0057 -1.1190 -2.8238
  116OSM   C11S12076   6.450   1.663   4.990  0.1878  0.1082 -0.1675
  116OSM   H11S12077   6.355   1.677   5.046  0.3590 -0.3286  0.2387
  116OSM   H11T12078   6.478   1.555   4.985 -0.9349 -0.1794 -0.3537
  116OSM   C12S12079   6.401   1.720   4.853  0.0509  0.6737 -0.1589
  116OSM   H12S12080   6.500   1.736   4.806  1.4386 -2.8417  1.4264
  116OSM   H12T12081   6.355   1.821   4.864 -2.5520 -0.2559 -1.9340
  116OSM   C13S12082   6.329   1.620   4.774  0.1623  0.3488  0.5270
  116OSM   H13S12083   6.250   1.560   4.826  0.7258 -0.8988 -0.0414
  116OSM   H13T12084   6.402   1.544   4.740  1.3046  0.7506  1.9835
  116OSM   C14S12085   6.272   1.676   4.640  0.1263 -0.2645 -0.6517
  116OSM   H14S12086   6.361   1.712   4.585  1.1062  1.0691  1.7155
  116OSM   H14T12087   6.195   1.754   4.658 -1.8247 -1.8971 -1.7232
  116OSM   C15S12088   6.213   1.566   4.550 -0.3511 -0.3327  0.2501
  116OSM   H15S12089   6.109   1.543   4.582 -0.5754  0.0339 -0.2062
  116OSM   H15T12090   6.272   1.475   4.575 -1.4162 -1.1092 -0.0015
  116OSM   C16S12091   6.212   1.613   4.407 -0.1103  0.2561 -0.3052
  116OSM   H16S12092   6.304   1.660   4.367  1.2308 -2.3787 -0.3665
  116OSM   H16T12093   6.131   1.688   4.390 -1.7120 -1.8961 -2.5162
  116OSM   C17S12094   6.176   1.494   4.316  0.2058  0.0604  0.9280
  116OSM   H17S12095   6.096   1.433   4.364 -0.3646  0.0976  0.0359
  116OSM   H17T12096   6.260   1.422   4.325 -0.4560 -0.9305 -0.5933
  116OSM   C18S12097   6.140   1.530   4.175  0.2462  0.1746  0.0919
  116OSM   H18S12098   6.109   1.436   4.126 -2.3709  0.5242  0.9949
  116OSM   H18T12099   6.222   1.577   4.116  0.1564 -4.2180 -3.8672
  116OSM   H18U12100   6.063   1.610   4.167 -1.3178 -1.2629  0.3810
  116OSM    C1F12101   6.650   1.579   5.920 -0.2599  0.6941  0.1061
  116OSM     OF12102   6.542   1.524   5.916 -0.3832 -0.6057  0.2181
  116OSM    C2F12103   6.777   1.496   5.948  0.0491  0.6112  0.3113
  116OSM    H2F12104   6.758   1.438   6.042  0.4345  1.3381  0.8439
  116OSM    H2G12105   6.863   1.564   5.964  0.1908  0.4819  0.0949
  116OSM    C3F12106   6.809   1.406   5.829 -0.2586  0.5750  0.1760
  116OSM    H3F12107   6.835   1.461   5.736  1.9771 -1.0410 -0.1857
  116OSM    H3G12108   6.728   1.331   5.816  1.5821 -1.5565  0.6606
  116OSM    C4F12109   6.921   1.301   5.856  0.2418  0.2303  0.2277
  116OSM    H4F12110   6.907   1.251   5.954 -1.2463 -3.0664 -1.5762
  116OSM    H4G12111   7.010   1.367   5.858 -0.1003  0.7944 -1.8142
  116OSM    C5F12112   6.938   1.194   5.745 -0.4486 -0.3804 -0.2054
  116OSM    H5F12113   6.841   1.140   5.741 -0.8532  0.1808  1.4959
  116OSM    H5G12114   7.024   1.128   5.765 -1.1693 -1.3014 -0.0901
  116OSM    C6F12115   6.953   1.258   5.610  0.0840  0.1866 -0.1758
  116OSM    H6F12116   7.036   1.332   5.609  0.3752  0.1036  4.5807
  116OSM    H6G12117   6.864   1.318   5.581 -3.4547 -4.6784  0.0092
  116OSM    C7F12118   6.960   1.153   5.508  0.2754 -0.3158  0.0237
  116OSM    H7F12119   6.886   1.073   5.531 -0.7440 -0.1514 -2.5387
  116OSM    H7G12120   7.055   1.098   5.527  0.0867 -0.0042  2.0267
  116OSM    C8F12121   6.958   1.219   5.375  0.8789 -0.2530  0.6073
  116OSM    H8F12122   7.053   1.271   5.348  1.6342 -1.1800  1.4364
  116OSM    H8G12123   6.892   1.308   5.377  1.3385  0.1675 -1.8077
  116OSM    C9F12124   6.946   1.119   5.262 -0.4886  0.7050 -0.5894
  116OSM    H9F12125   7.036   1.063   5.234 -0.8541  0.0422 -0.4391
  116OSM   C10F12126   6.835   1.089   5.190  0.0679 -0.5754  0.4534
  116OSM   H10F12127   6.834   1.018   5.107 -1.3198  1.1378 -1.0327
  116OSM   C11F12128   6.702   1.157   5.207 -0.0886  0.0962  0.6152
  116OSM   H11F12129   6.706   1.256   5.259 -2.0521  1.3679 -1.5949
  116OSM   H11G12130   6.630   1.084   5.250  0.2297 -0.3158  0.4512
  116OSM   C12F12131   6.636   1.170   5.061  0.2272 -0.5285  0.6595
  116OSM   H12F12132   6.525   1.174   5.069  0.2794  2.7106  0.4210
  116OSM   H12G12133   6.656   1.077   5.003 -0.8103 -0.0133 -0.5531
  116OSM   C13F12134   6.690   1.298   4.990 -0.0324 -0.4259  0.2371
  116OSM   H13F12135   6.798   1.290   5.014 -0.5442 -3.5432  1.8177
  116OSM   H13G12136   6.659   1.386   5.049  1.2905  0.1584  0.0746
  116OSM   C14F12137   6.670   1.304   4.835  0.1753 -0.1971  0.1878
  116OSM   H14F12138   6.563   1.316   4.807  0.2548 -0.4545 -0.2227
  116OSM   H14G12139   6.710   1.213   4.786 -1.4673 -1.1630  0.6331
  116OSM   C15F12140   6.731   1.427   4.775  0.5670 -0.5439  0.6684
  116OSM   H15F12141   6.706   1.521   4.830 -0.3462 -1.6122  2.1368
  116OSM   H15G12142   6.693   1.427   4.671  1.1097  4.0190  0.3868
  116OSM   C16F12143   6.886   1.421   4.765  0.7184 -0.2743  0.0408
  116OSM   H16F12144   6.918   1.317   4.740 -1.1012 -1.1722  1.3727
  116OSM   H16G12145   6.928   1.428   4.868 -0.9006 -1.3185  0.7879
  116OSM   C17F12146   6.950   1.518   4.663  0.4945  0.9685  0.3493
  116OSM   H17F12147   6.867   1.543   4.593  0.9286 -1.3730 -1.0506
  116OSM   H17G12148   7.030   1.463   4.609 -0.2921  0.7833 -0.6365
  116OSM   C18F12149   7.000   1.651   4.712  0.0714  0.6782 -0.4341
  116OSM   H18F12150   7.087   1.636   4.781  0.9731  0.7508 -1.5462
  116OSM   H18G12151   6.930   1.707   4.777  1.5777  1.9118  0.1758
  116OSM   H18H12152   7.043   1.713   4.630  2.7027  2.1393  1.9271
  117OSM      N12153   0.511   5.863   6.638 -0.9046 -0.1408 -0.0933
  117OSM    C1512154   0.387   5.943   6.665 -0.5864  0.7451 -0.3755
  117OSM   H15A12155   0.328   5.901   6.745  2.3110 -0.5769  1.1348
  117OSM   H15B12156   0.313   5.937   6.586 -0.2896 -1.2753 -0.5380
  117OSM   H15C12157   0.415   6.046   6.678  0.0420  0.6763 -1.1644
  117OSM    C1412158   0.626   5.901   6.728  0.0644  0.3746  0.0483
  117OSM   H14A12159   0.685   5.972   6.672  0.3438  1.1232  1.2779
  117OSM   H14B12160   0.689   5.817   6.752 -0.8936 -0.1344  0.8036
  117OSM   H14C12161   0.596   5.948   6.820  0.5459 -0.4375  0.6276
  117OSM    C1312162   0.486   5.719   6.673 -0.0256 -0.5571  0.0860
  117OSM   H13A12163   0.555   5.651   6.625 -0.7774 -1.7079  0.6231
  117OSM   H13B12164   0.391   5.690   6.632  0.0889 -0.1102 -0.5024
  117OSM   H13C12165   0.483   5.709   6.781 -1.3012  2.8169  0.4230
  117OSM    C1212166   0.559   5.885   6.493  0.3531 -0.3499  0.1488
  117OSM   H12A12167   0.549   5.991   6.476 -1.8935 -0.5811 -0.0729
  117OSM   H12B12168   0.480   5.844   6.432  0.0940  0.0254  0.2309
  117OSM    C1112169   0.700   5.825   6.452  0.5574  0.1725  0.1687
  117OSM   H11A12170   0.786   5.854   6.517  0.9006 -0.3214 -0.0576
  117OSM   H11B12171   0.725   5.856   6.349  0.0863  0.4969  0.1523
  117OSM      P12172   0.640   5.599   6.324  0.1209 -0.2806 -0.5872
  117OSM    O1312173   0.682   5.459   6.350 -0.0083 -0.5184 -0.2855
  117OSM    O1412174   0.493   5.628   6.314  0.4744 -0.0204  0.3419
  117OSM    O1112175   0.716   5.661   6.206  0.3799  0.1772 -0.6465
  117OSM    O1212176   0.691   5.686   6.447  0.3305  0.3158 -0.0022
  117OSM    C1S12177   0.700   5.630   6.065 -0.8354 -0.2907  0.3021
  117OSM    H1S12178   0.597   5.592   6.047 -1.5044  1.0920  1.1542
  117OSM    H1T12179   0.768   5.544   6.048  2.1075  1.8941  0.6372
  117OSM     NF12180   0.729   5.688   5.825 -0.1599 -0.9054 -0.1249
  117OSM    HNF12181   0.809   5.660   5.772  0.8835 -0.4858  1.2008
  117OSM    C2S12182   0.735   5.745   5.958  0.2130  0.2175 -0.0510
  117OSM    H2S12183   0.659   5.826   5.962  0.7526  0.8908 -2.7924
  117OSM    C3S12184   0.876   5.801   6.003 -0.1631 -1.1849  0.7656
  117OSM    H3S12185   0.940   5.711   6.018 -0.6214 -1.6208  0.1422
  117OSM     O312186   0.871   5.851   6.139 -0.0408  0.3735  0.7836
  117OSM    HO312187   0.801   5.800   6.181 -0.8029 -0.1833 -1.0856
  117OSM    C4S12188   0.918   5.905   5.908 -0.2822 -0.2101  0.1302
  117OSM    H4S12189   0.972   5.861   5.823  0.7285 -1.9473  1.6469
  117OSM    C5S12190   0.910   6.037   5.915 -0.2199 -0.1562  0.3757
  117OSM    H5S12191   0.892   6.093   6.008  0.2694  1.1668 -0.3134
  117OSM    C6S12192   0.962   6.121   5.806 -0.0718 -0.1387  0.9933
  117OSM    H6S12193   1.048   6.180   5.842 -0.4115  0.6579  0.5129
  117OSM    H6T12194   0.880   6.188   5.773  2.4115  1.9106 -1.1669
  117OSM    C7S12195   1.006   6.051   5.674 -0.1032 -0.6673  0.2048
  117OSM    H7S12196   0.924   5.986   5.638 -1.7014  0.0290  2.4973
  117OSM    H7T12197   1.094   5.992   5.708  0.7047  1.9429  2.8036
  117OSM    C8S12198   1.042   6.150   5.565 -0.1719  0.1118 -0.2149
  117OSM    H8S12199   1.116   6.221   5.610  0.5705 -1.8716  1.8141
  117OSM    H8T12200   0.961   6.217   5.529 -1.5147 -0.5298  1.5432
  117OSM    C9S12201   1.118   6.085   5.452  0.6478  1.1754 -0.1717
  117OSM    H9S12202   1.208   6.025   5.477 -1.3889 -1.2822  1.5392
  117OSM    H9T12203   1.157   6.173   5.395  1.0831  1.2672  0.2684
  117OSM   C10S12204   1.020   5.997   5.364 -0.2743 -0.0581 -0.3257
  117OSM   H10S12205   0.922   6.049   5.364  0.9174  2.2643 -0.5358
  117OSM   H10T12206   1.002   5.903   5.420  0.5075  2.5587  4.6228
  117OSM   C11S12207   1.057   5.962   5.222  0.2431 -0.1905  0.4369
  117OSM   H11S12208   1.150   5.901   5.222 -0.3623 -1.1384 -0.2624
  117OSM   H11T12209   1.081   6.053   5.162  0.2100 -0.6410 -0.2682
  117OSM   C12S12210   0.957   5.870   5.154 -0.1766 -0.0563  0.0522
  117OSM   H12S12211   0.852   5.906   5.163  0.3236  1.6215 -0.6004
  117OSM   H12T12212   0.965   5.774   5.208 -2.7725 -1.0142 -1.1737
  117OSM   C13S12213   0.990   5.851   5.004  0.0406  0.4050  0.4107
  117OSM   H13S12214   1.088   5.800   4.991 -0.9820 -1.0221 -1.9915
  117OSM   H13T12215   0.993   5.946   4.946 -0.3154 -0.5806 -1.2508
  117OSM   C14S12216   0.875   5.773   4.933  0.5764 -0.2732 -0.0856
  117OSM   H14S12217   0.782   5.834   4.942  0.8760 -0.1908  3.1457
  117OSM   H14T12218   0.865   5.682   4.996 -0.7269 -0.2624 -0.2549
  117OSM   C15S12219   0.902   5.727   4.792  0.0065 -0.1491 -0.7006
  117OSM   H15S12220   0.932   5.812   4.726  2.3128  2.1871  3.1548
  117OSM   H15T12221   0.816   5.665   4.759  1.7106 -2.1300 -1.5550
  117OSM   C16S12222   1.021   5.628   4.787  0.3345 -0.3030  0.1131
  117OSM   H16S12223   1.015   5.550   4.866  2.1192 -0.5423  0.0335
  117OSM   H16T12224   1.113   5.682   4.818 -1.2905  2.2656  0.6155
  117OSM   C17S12225   1.035   5.559   4.651 -0.2926  0.0533 -0.0644
  117OSM   H17S12226   0.944   5.506   4.615  0.1337  0.1903 -1.3713
  117OSM   H17T12227   1.109   5.477   4.658 -0.5585 -0.2847 -1.0598
  117OSM   C18S12228   1.073   5.656   4.545  0.8512 -0.3834  0.6511
  117OSM   H18S12229   1.098   5.610   4.448 -0.2632  0.5206 -0.0752
  117OSM   H18T12230   1.162   5.715   4.579  0.2831  1.4436 -0.9278
  117OSM   H18U12231   0.987   5.721   4.520  0.5384  0.1272  2.8881
  117OSM    C1F12232   0.615   5.670   5.758  0.4877 -0.4174 -0.0892
  117OSM     OF12233   0.510   5.718   5.789  0.0347 -0.5009  0.1063
  117OSM    C2F12234   0.626   5.581   5.629 -0.7005 -0.0072 -0.8221
  117OSM    H2F12235   0.543   5.507   5.625 -1.8681  1.1067  1.7020
  117OSM    H2G12236   0.717   5.519   5.650 -2.0147 -1.4611  0.7941
  117OSM    C3F12237   0.642   5.673   5.506 -0.2879 -0.4720 -0.0790
  117OSM    H3F12238   0.696   5.626   5.421  0.4071  0.1508  0.0134
  117OSM    H3G12239   0.716   5.751   5.533 -1.2266  0.4719 -0.2135
  117OSM    C4F12240   0.506   5.727   5.455 -0.0176 -0.0773  0.7992
  117OSM    H4F12241   0.516   5.833   5.484  1.3547  0.2316 -0.6935
  117OSM    H4G12242   0.418   5.669   5.488 -0.0321 -1.0276 -0.8536
  117OSM    C5F12243   0.499   5.734   5.304  0.3781 -0.6355 -0.5985
  117OSM    H5F12244   0.595   5.769   5.261  0.5558  0.4801  0.6676
  117OSM    H5G12245   0.423   5.812   5.285  1.0218  0.7924  2.3977
  117OSM    C6F12246   0.458   5.604   5.231 -0.6847  0.1742  0.1762
  117OSM    H6F12247   0.374   5.569   5.295  0.4384  0.8033  2.0601
  117OSM    H6G12248   0.531   5.520   5.242 -0.6099  0.3204  0.8316
  117OSM    C7F12249   0.422   5.625   5.084 -0.3674  0.5407  0.1745
  117OSM    H7F12250   0.343   5.704   5.085  0.5912  1.5224  1.1996
  117OSM    H7G12251   0.378   5.533   5.041 -1.5591  1.5220 -0.7306
  117OSM    C8F12252   0.545   5.678   5.007  0.1764 -0.4114 -0.3913
  117OSM    H8F12253   0.629   5.626   5.056  1.3279  1.6608 -0.0898
  117OSM    H8G12254   0.571   5.785   5.021 -1.2811  0.4431 -3.8004
  117OSM    C9F12255   0.539   5.635   4.861  0.1512 -0.6059 -0.1588
  117OSM    H9F12256   0.590   5.539   4.844 -2.1560 -2.1225  1.1897
  117OSM   C10F12257   0.484   5.708   4.761  0.0736  0.2344  0.6153
  117OSM   H10F12258   0.490   5.672   4.658 -3.5749  0.4411  0.2693
  117OSM   C11F12259   0.417   5.841   4.777 -0.6676 -0.1759 -0.0048
  117OSM   H11F12260   0.424   5.885   4.879  0.7970  2.7570 -1.3086
  117OSM   H11G12261   0.309   5.825   4.753 -0.3887 -2.2244  0.0570
  117OSM   C12F12262   0.479   5.939   4.675 -0.5774 -0.4022 -0.5920
  117OSM   H12F12263   0.462   5.903   4.572  2.5545 -1.3602 -0.8294
  117OSM   H12G12264   0.589   5.937   4.688 -0.6286 -0.3368 -0.1105
  117OSM   C13F12265   0.430   6.087   4.694  1.2959  0.1372  0.2045
  117OSM   H13F12266   0.453   6.123   4.796 -1.0827  0.0446  0.7967
  117OSM   H13G12267   0.319   6.085   4.694  1.2701  1.1928  1.5555
  117OSM   C14F12268   0.499   6.179   4.595  0.2236  0.1908 -0.0156
  117OSM   H14F12269   0.607   6.156   4.583  0.0917 -0.1991 -0.5316
  117OSM   H14G12270   0.490   6.285   4.626 -2.9658  0.4067 -1.5147
  117OSM   C15F12271   0.444   6.168   4.449  0.4778  0.5562 -0.0976
  117OSM   H15F12272   0.354   6.234   4.445  0.2572  0.3534  1.1732
  117OSM   H15G12273   0.403   6.067   4.424 -1.1980  1.0605  0.4853
  117OSM   C16F12274   0.544   6.219   4.345 -0.0146 -0.2090 -0.7450
  117OSM   H16F12275   0.493   6.187   4.251 -2.1640  1.0526 -0.0379
  117OSM   H16G12276   0.641   6.165   4.353  0.8644  1.5307  0.8532
  117OSM   C17F12277   0.575   6.367   4.340  0.4344 -0.1697  0.2238
  117OSM   H17F12278   0.619   6.377   4.238 -0.5120 -2.2963 -0.4129
  117OSM   H17G12279   0.649   6.397   4.417  0.2674 -0.8661  0.6621
  117OSM   C18F12280   0.453   6.457   4.353 -0.2548  0.3232  0.3029
  117OSM   H18F12281   0.364   6.428   4.294 -1.0418  0.2660  1.5179
  117OSM   H18G12282   0.476   6.559   4.315  0.4212  0.6290  1.5056
  117OSM   H18H12283   0.402   6.452   4.451  1.0682 -0.3629  0.9754
  118OSM      N12284   6.934   4.445   6.545  0.9078  0.1614 -0.2285
  118OSM    C1512285   6.893   4.590   6.557 -0.3477  0.5773  0.4140
  118OSM   H15A12286   6.802   4.620   6.506 -1.9343 -2.0144  1.6374
  118OSM   H15B12287   6.967   4.661   6.523 -1.7151  1.8471  0.0157
  118OSM   H15C12288   6.858   4.613   6.657 -2.3032  1.5917 -0.4633
  118OSM    C1412289   7.021   4.402   6.666  0.1690 -0.1714  0.7611
  118OSM   H14A12290   7.049   4.299   6.653 -0.2777 -0.3317  1.0399
  118OSM   H14B12291   6.966   4.411   6.759  1.4019 -1.4881  1.6393
  118OSM   H14C12292   7.109   4.463   6.669  0.4983 -0.6222  0.3303
  118OSM    C1312293   6.820   4.353   6.536  0.6325 -0.5169  0.4821
  118OSM   H13A12294   6.754   4.373   6.453 -0.9326  2.2238  2.3094
  118OSM   H13B12295   6.761   4.360   6.626 -1.7447  0.1845 -1.0586
  118OSM   H13C12296   6.856   4.251   6.530  3.9829  0.6382 -0.2392
  118OSM    C1212297   7.020   4.418   6.423  0.4460  0.4128 -0.2897
  118OSM   H12A12298   7.110   4.477   6.415  0.0105  1.3781  1.6551
  118OSM   H12B12299   6.961   4.451   6.339  1.1833  1.8850 -0.2427
  118OSM    C1112300   7.071   4.273   6.397  0.4457  0.3087  0.4550
  118OSM   H11A12301   7.111   4.235   6.494  1.7459 -0.9062 -0.5291
  118OSM   H11B12302   7.152   4.274   6.321  0.2200  1.2006  0.2263
  118OSM      P12303   6.976   4.030   6.331 -0.1046  0.3517  0.1555
  118OSM    O1312304   7.041   3.961   6.445 -0.1578  0.1791 -0.1609
  118OSM    O1412305   6.843   3.985   6.285  0.2369 -0.3769  0.1137
  118OSM    O1112306   7.068   4.035   6.208 -0.7726  0.7236 -0.0428
  118OSM    O1212307   6.964   4.182   6.369  0.0086  0.1702 -0.3396
  118OSM    C1S12308   7.052   4.125   6.092  0.2029  0.0263 -0.0213
  118OSM    H1S12309   7.051   4.231   6.128  1.1385 -0.1259  0.4701
  118OSM    H1T12310   6.953   4.110   6.044 -0.7966 -0.6282  2.1644
  118OSM     NF12311   7.204   4.234   5.930 -0.2214  0.1556 -0.5588
  118OSM    HNF12312   7.137   4.273   5.867  1.0903 -1.8944 -3.3340
  118OSM    C2S12313   7.171   4.104   5.990 -0.3463  0.1451  0.7437
  118OSM    H2S12314   7.259   4.076   6.051  1.4812 -1.7707 -2.6524
  118OSM    C3S12315   7.143   3.989   5.893 -0.0166  0.4788  0.0730
  118OSM    H3S12316   7.059   4.018   5.826 -2.4650 -3.0785  1.4200
  118OSM     O312317   7.097   3.881   5.966  0.5504  0.1147  0.0316
  118OSM    HO312318   7.085   3.897   6.060 -0.8350 -1.0008  0.0658
  118OSM    C4S12319   7.263   3.957   5.800  0.0822 -0.1140 -0.3496
  118OSM    H4S12320   7.254   3.987   5.695 -0.9898 -2.1432 -0.8492
  118OSM    C5S12321   7.373   3.891   5.829 -0.2490  0.1276  0.4161
  118OSM    H5S12322   7.404   3.840   5.921  1.7883  1.5279  0.5332
  118OSM    C6S12323   7.474   3.871   5.721 -0.5152 -0.1598 -0.4313
  118OSM    H6S12324   7.571   3.854   5.771 -0.9630 -1.7824 -0.0785
  118OSM    H6T12325   7.481   3.953   5.646  1.1234  0.5648  0.4946
  118OSM    C7S12326   7.437   3.744   5.647 -0.2904  0.2634  0.1824
  118OSM    H7S12327   7.346   3.758   5.584  0.2276 -0.7552 -0.8058
  118OSM    H7T12328   7.405   3.667   5.721 -3.2182  0.9895 -0.2751
  118OSM    C8S12329   7.549   3.696   5.550  0.0482 -0.1636  0.6346
  118OSM    H8S12330   7.523   3.598   5.504  1.8801  0.7512 -2.4389
  118OSM    H8T12331   7.636   3.661   5.609 -3.2698 -3.0085  4.1321
  118OSM    C9S12332   7.580   3.796   5.438 -0.2722  0.2796  0.2945
  118OSM    H9S12333   7.646   3.882   5.462 -1.1755  1.4614 -1.3364
  118OSM    H9T12334   7.480   3.827   5.401 -0.8897  1.4481  2.8298
  118OSM   C10S12335   7.641   3.716   5.319  0.2284 -0.2136 -0.7168
  118OSM   H10S12336   7.561   3.673   5.255  1.6133  0.3833 -2.9049
  118OSM   H10T12337   7.686   3.625   5.363 -1.9680 -2.6056 -3.1932
  118OSM   C11S12338   7.738   3.800   5.234  0.2421  0.3570  0.4917
  118OSM   H11S12339   7.826   3.814   5.299  1.6486  1.5829 -1.5985
  118OSM   H11T12340   7.704   3.897   5.193 -3.1366 -0.2504  1.6843
  118OSM   C12S12341   7.770   3.720   5.106  0.0057  0.3485 -0.1496
  118OSM   H12S12342   7.677   3.679   5.059 -1.2578 -0.1884  2.7308
  118OSM   H12T12343   7.838   3.637   5.134  1.7705  1.6901 -0.4245
  118OSM   C13S12344   7.849   3.805   5.004  0.0731 -0.4765 -0.1540
  118OSM   H13S12345   7.939   3.847   5.053  0.4377  1.5411 -2.4960
  118OSM   H13T12346   7.790   3.892   4.968  1.0182  0.5417  0.6966
  118OSM   C14S12347   7.898   3.714   4.886 -0.6760 -0.2478  0.4569
  118OSM   H14S12348   7.799   3.675   4.853 -0.2791  0.1047 -1.2173
  118OSM   H14T12349   7.960   3.630   4.923  0.9164  0.2976 -0.8928
  118OSM   C15S12350   7.969   3.799   4.786 -0.2155  1.0685  0.0001
  118OSM   H15S12351   8.045   3.855   4.845  0.8844 -1.0629  0.6427
  118OSM   H15T12352   7.897   3.876   4.751 -0.0401  0.8472 -0.8593
  118OSM   C16S12353   8.038   3.713   4.675 -0.1480  0.0800 -0.4279
  118OSM   H16S12354   7.975   3.629   4.638  0.9355  0.0728 -2.3362
  118OSM   H16T12355   8.129   3.666   4.718 -1.0177  0.3758  1.8184
  118OSM   C17S12356   8.071   3.809   4.562  0.4479 -0.4581  0.3599
  118OSM   H17S12357   8.161   3.865   4.594 -0.7208  2.0284 -0.5597
  118OSM   H17T12358   7.986   3.878   4.545  1.0624  0.1334 -0.3266
  118OSM   C18S12359   8.107   3.739   4.433  0.5901 -0.2205  0.5210
  118OSM   H18S12360   8.123   3.808   4.348  0.0754 -1.2447 -0.4344
  118OSM   H18T12361   8.040   3.652   4.414 -0.7641  1.0752 -0.7973
  118OSM   H18U12362   8.204   3.689   4.454 -0.4245 -1.9235  1.3198
  118OSM    C1F12363   7.294   4.311   5.988  0.5600  0.1491 -0.5375
  118OSM     OF12364   7.350   4.281   6.096 -0.0336 -0.5236 -0.4204
  118OSM    C2F12365   7.321   4.440   5.923 -0.4019 -0.1917 -0.0316
  118OSM    H2F12366   7.318   4.513   6.007 -2.8413  0.2107 -0.4337
  118OSM    H2G12367   7.249   4.464   5.841  0.0432 -3.2793 -1.3839
  118OSM    C3F12368   7.461   4.453   5.868 -0.8549 -0.0163 -0.2412
  118OSM    H3F12369   7.528   4.437   5.956  0.2176  0.5309 -0.9453
  118OSM    H3G12370   7.487   4.558   5.839  0.4704  0.1194  1.3208
  118OSM    C4F12371   7.502   4.354   5.756 -0.8224  0.6683  0.0363
  118OSM    H4F12372   7.478   4.253   5.796 -0.0591 -0.7351 -2.9382
  118OSM    H4G12373   7.613   4.362   5.755 -0.8336  0.8126 -3.2875
  118OSM    C5F12374   7.433   4.378   5.622  0.0008  0.2152  0.0576
  118OSM    H5F12375   7.464   4.479   5.586 -0.0139 -0.3132 -1.4286
  118OSM    H5G12376   7.323   4.384   5.634  0.0414  0.5084  0.3157
  118OSM    C6F12377   7.475   4.273   5.515 -0.1107  0.4418  0.1998
  118OSM    H6F12378   7.468   4.174   5.564 -3.3743  0.9680  0.9129
  118OSM    H6G12379   7.584   4.279   5.493 -0.6895  2.6566 -2.4565
  118OSM    C7F12380   7.404   4.288   5.380  0.2639 -0.5004 -0.3666
  118OSM    H7F12381   7.437   4.392   5.358 -3.1104  1.1796  2.1064
  118OSM    H7G12382   7.295   4.290   5.402  0.3677  0.3047  0.0833
  118OSM    C8F12383   7.435   4.170   5.284  0.4355 -0.3398  0.5807
  118OSM    H8F12384   7.402   4.073   5.328 -0.9751  0.4764  1.3545
  118OSM    H8G12385   7.545   4.156   5.278  1.0515  4.3923 -1.1909
  118OSM    C9F12386   7.368   4.176   5.142 -0.0148  0.1617 -0.8527
  118OSM    H9F12387   7.265   4.215   5.138  0.0002  1.0457  3.8416
  118OSM   C10F12388   7.438   4.164   5.020  0.0370 -0.4512 -0.4365
  118OSM   H10F12389   7.377   4.176   4.929  1.7218  0.0132 -1.5337
  118OSM   C11F12390   7.582   4.142   5.007  0.2896  0.1271  0.0389
  118OSM   H11F12391   7.614   4.038   5.029  1.2115  0.2410 -0.7012
  118OSM   H11G12392   7.637   4.205   5.079 -0.1931 -0.4167  0.8848
  118OSM   C12F12393   7.637   4.176   4.867  0.0151  0.1664  0.0129
  118OSM   H12F12394   7.748   4.187   4.875 -0.0388  0.5928  0.1461
  118OSM   H12G12395   7.604   4.281   4.853  1.1118  0.5722  0.3645
  118OSM   C13F12396   7.615   4.097   4.739 -0.0030 -0.4863  0.0793
  118OSM   H13F12397   7.509   4.067   4.732 -0.1775 -0.1273  1.1013
  118OSM   H13G12398   7.674   4.003   4.743 -0.5882 -0.9692 -1.8082
  118OSM   C14F12399   7.649   4.170   4.604 -0.4005 -0.1715  0.3359
  118OSM   H14F12400   7.593   4.265   4.594 -0.9754 -0.1637  3.1279
  118OSM   H14G12401   7.613   4.113   4.516 -2.3159  0.9825  0.3448
  118OSM   C15F12402   7.799   4.195   4.585  0.0082 -0.1198  0.0727
  118OSM   H15F12403   7.851   4.101   4.611 -1.8222 -0.8793  1.0756
  118OSM   H15G12404   7.837   4.263   4.665 -0.7766 -0.6136  0.8773
  118OSM   C16F12405   7.837   4.245   4.445 -0.0417  0.2925  0.1888
  118OSM   H16F12406   7.946   4.270   4.451  0.1222  0.3626 -2.5143
  118OSM   H16G12407   7.769   4.330   4.427 -1.7968 -1.5045 -1.8516
  118OSM   C17F12408   7.816   4.153   4.328 -0.2583 -0.2161 -0.4512
  118OSM   H17F12409   7.710   4.129   4.303 -0.5743 -1.5350  1.8902
  118OSM   H17G12410   7.865   4.054   4.345 -0.0411 -0.4922 -2.5301
  118OSM   C18F12411   7.879   4.214   4.199 -0.3764  0.5646  0.2799
  118OSM   H18F12412   7.843   4.318   4.180  2.8977  1.4834 -1.4662
  118OSM   H18G12413   7.856   4.154   4.108 -1.8646 -0.2292  1.1736
  118OSM   H18H12414   7.987   4.222   4.226 -0.0697  0.7522 -0.9644
  119OSM      N12415   3.923   7.215   6.435  0.1388 -0.2602 -0.4592
  119OSM    C1512416   3.907   7.076   6.439  0.5948  0.1417  0.6353
  119OSM   H15A12417   3.850   7.044   6.353  1.4559  0.0108  0.1111
  119OSM   H15B12418   3.856   7.043   6.529  1.1738 -2.3860  0.0962
  119OSM   H15C12419   4.001   7.026   6.422  0.1939 -0.0180 -1.1544
  119OSM    C1412420   4.035   7.253   6.531 -0.0789 -0.0668 -0.5123
  119OSM   H14A12421   4.049   7.359   6.546 -0.8425  0.0781 -0.8124
  119OSM   H14B12422   4.129   7.223   6.487 -0.4424 -1.2351 -0.5100
  119OSM   H14C12423   4.022   7.199   6.624 -1.8121 -0.0042 -0.7033
  119OSM    C1312424   3.978   7.252   6.297 -0.0246  0.2526 -0.3570
  119OSM   H13A12425   3.909   7.236   6.215 -0.7714  1.1248  0.1036
  119OSM   H13B12426   4.074   7.204   6.282  0.2580  1.0347 -1.0657
  119OSM   H13C12427   4.002   7.357   6.302 -3.3611  1.1009 -1.4350
  119OSM    C1212428   3.793   7.295   6.453  0.0601 -0.4335 -0.3638
  119OSM   H12A12429   3.742   7.270   6.545 -0.2445 -1.8141 -0.9042
  119OSM   H12B12430   3.718   7.253   6.389  1.1500 -3.7695  0.4063
  119OSM    C1112431   3.796   7.449   6.439 -0.2451  0.3182  0.1764
  119OSM   H11A12432   3.892   7.486   6.480  0.2223 -0.4431 -0.2076
  119OSM   H11B12433   3.713   7.494   6.497  0.1940  1.9354 -0.4412
  119OSM      P12434   3.884   7.594   6.243 -0.0704  0.0655 -0.0076
  119OSM    O1312435   3.892   7.709   6.334 -0.0598 -0.2839 -0.3284
  119OSM    O1412436   4.015   7.525   6.207  0.5334  0.8108  0.1717
  119OSM    O1112437   3.810   7.644   6.116 -0.5609 -0.6348 -0.2966
  119OSM    O1212438   3.791   7.496   6.307 -0.6676 -0.4394  0.0603
  119OSM    C1S12439   3.698   7.585   6.044 -0.4477 -0.1577 -0.0998
  119OSM    H1S12440   3.614   7.657   6.041  1.5258  2.2848  1.5923
  119OSM    H1T12441   3.654   7.492   6.087  1.0916 -1.2422 -0.8069
  119OSM     NF12442   3.829   7.451   5.889 -0.4574 -0.4481 -0.7118
  119OSM    HNF12443   3.923   7.477   5.870 -0.3986 -0.9110 -1.0686
  119OSM    C2S12444   3.736   7.561   5.896  0.0726 -0.3178  0.2020
  119OSM    H2S12445   3.651   7.531   5.832 -0.4040 -0.9034  1.1117
  119OSM    C3S12446   3.790   7.686   5.817  0.0432 -0.2310 -0.3043
  119OSM    H3S12447   3.875   7.731   5.873  0.1351 -0.6292 -0.1291
  119OSM     O312448   3.696   7.789   5.805 -0.0150 -0.2319  0.4903
  119OSM    HO312449   3.632   7.767   5.873 -1.1827  0.9548 -0.1965
  119OSM    C4S12450   3.833   7.648   5.673 -0.1940 -1.0058  0.2710
  119OSM    H4S12451   3.750   7.643   5.601 -0.7862  1.2371  0.7269
  119OSM    C5S12452   3.957   7.632   5.623 -0.0092  0.3051 -0.3842
  119OSM    H5S12453   4.039   7.647   5.696 -0.6227  1.4687  0.0713
  119OSM    C6S12454   4.008   7.601   5.485  0.9254  0.3056  0.4673
  119OSM    H6S12455   4.053   7.500   5.493  1.5888  0.6647  1.2639
  119OSM    H6T12456   4.088   7.669   5.449 -0.6337  0.7832 -2.2541
  119OSM    C7S12457   3.905   7.595   5.372 -0.1490 -0.2409 -0.2623
  119OSM    H7S12458   3.867   7.699   5.358  1.5637  0.2936 -0.9990
  119OSM    H7T12459   3.817   7.528   5.389 -1.0646  1.1348  0.5182
  119OSM    C8S12460   3.972   7.559   5.241  0.3612 -0.0676  0.1320
  119OSM    H8S12461   4.012   7.457   5.258  2.2990  0.8011  0.9655
  119OSM    H8T12462   4.061   7.623   5.223 -0.3140  0.4159 -1.5713
  119OSM    C9S12463   3.884   7.567   5.115  0.1883  0.5491  0.2943
  119OSM    H9S12464   3.840   7.668   5.127  0.1262  0.5170  0.3418
  119OSM    H9T12465   3.796   7.500   5.121 -0.4684  1.0310 -2.8987
  119OSM   C10S12466   3.958   7.542   4.985 -0.5864  0.0626 -0.3244
  119OSM   H10S12467   4.011   7.446   4.998  0.4921  0.3594 -2.3007
  119OSM   H10T12468   4.038   7.618   4.971 -0.0158 -0.6275 -0.8695
  119OSM   C11S12469   3.865   7.549   4.863 -0.0626  0.9744 -0.0913
  119OSM   H11S12470   3.814   7.647   4.863 -0.0697  0.9724  0.3107
  119OSM   H11T12471   3.794   7.464   4.873 -1.2812  1.5481 -3.5034
  119OSM   C12S12472   3.928   7.531   4.724  0.1945  0.2900  0.0038
  119OSM   H12S12473   4.003   7.449   4.717  0.3190  0.2831  1.3301
  119OSM   H12T12474   3.975   7.628   4.695 -1.8098  1.5803  0.9729
  119OSM   C13S12475   3.825   7.505   4.618 -0.1448  0.0890 -0.3158
  119OSM   H13S12476   3.742   7.575   4.646 -0.0146 -0.2808  1.0605
  119OSM   H13T12477   3.787   7.404   4.645  1.3485  0.3688  3.0601
  119OSM   C14S12478   3.877   7.498   4.474 -0.3708  0.1748 -0.4246
  119OSM   H14S12479   3.795   7.438   4.429  1.0762 -0.8272 -1.7901
  119OSM   H14T12480   3.965   7.431   4.463  0.1518  1.0765 -1.9707
  119OSM   C15S12481   3.921   7.631   4.410 -0.3636 -0.2981 -0.1270
  119OSM   H15S12482   4.008   7.674   4.465 -0.2150  2.5505 -2.5074
  119OSM   H15T12483   3.831   7.695   4.418  1.0872  1.9310 -1.1753
  119OSM   C16S12484   3.965   7.646   4.266  0.8696 -0.4117 -0.0424
  119OSM   H16S12485   4.058   7.592   4.237  1.9242  1.6327 -0.5427
  119OSM   H16T12486   3.987   7.754   4.251 -3.1155  0.4447 -0.2123
  119OSM   C17S12487   3.855   7.606   4.165  0.0965 -0.5785 -0.2098
  119OSM   H17S12488   3.764   7.655   4.204 -0.3962 -1.7340  0.1326
  119OSM   H17T12489   3.842   7.496   4.176 -0.6246 -0.7293 -2.3610
  119OSM   C18S12490   3.887   7.636   4.012 -0.3953  0.0760  0.6439
  119OSM   H18S12491   3.805   7.602   3.946 -0.1222 -0.8298  0.7654
  119OSM   H18T12492   3.973   7.571   3.985 -1.8442 -2.1540  1.3146
  119OSM   H18U12493   3.907   7.744   3.992 -1.1165  0.1163  0.1337
  119OSM    C1F12494   3.788   7.325   5.906 -0.0819 -0.0789 -0.3752
  119OSM     OF12495   3.674   7.291   5.937 -1.0220 -1.1165 -0.0402
  119OSM    C2F12496   3.902   7.229   5.889  0.5160  0.6731 -0.0590
  119OSM    H2F12497   3.928   7.185   5.987  0.3634  1.3695  0.2951
  119OSM    H2G12498   3.980   7.296   5.845  0.3403  0.5186 -0.6133
  119OSM    C3F12499   3.872   7.116   5.785 -0.4606 -0.4349  0.4352
  119OSM    H3F12500   3.785   7.057   5.822 -2.5596  1.7459 -0.8558
  119OSM    H3G12501   3.964   7.055   5.789  0.1009  0.3359 -0.5458
  119OSM    C4F12502   3.856   7.173   5.642 -0.0044 -0.8228  0.1710
  119OSM    H4F12503   3.897   7.098   5.571 -1.2455 -1.6309  0.2831
  119OSM    H4G12504   3.919   7.264   5.636 -2.4414  1.0049  1.1554
  119OSM    C5F12505   3.711   7.185   5.600 -0.4134  0.4473 -0.5531
  119OSM    H5F12506   3.645   7.212   5.685  0.2435 -2.8341  1.0478
  119OSM    H5G12507   3.671   7.092   5.553 -0.5151  0.7275 -1.0220
  119OSM    C6F12508   3.696   7.286   5.492  0.4507  0.6807  0.3287
  119OSM    H6F12509   3.752   7.252   5.403 -1.2860 -2.0315  0.2108
  119OSM    H6G12510   3.713   7.392   5.521 -0.6507  1.5356 -2.0397
  119OSM    C7F12511   3.554   7.312   5.458 -0.3001  0.1957 -0.4876
  119OSM    H7F12512   3.501   7.361   5.543  1.2839 -0.0927  0.6758
  119OSM    H7G12513   3.496   7.218   5.444 -0.7477  0.5897 -1.3256
  119OSM    C8F12514   3.534   7.391   5.329 -0.6759  0.6252  0.7549
  119OSM    H8F12515   3.592   7.346   5.246  0.5260 -0.3224  2.0927
  119OSM    H8G12516   3.569   7.497   5.337 -1.3015  0.8832  0.1457
  119OSM    C9F12517   3.392   7.393   5.275 -0.0575  0.2299  0.4548
  119OSM    H9F12518   3.329   7.474   5.314 -1.2213 -0.2119 -0.4743
  119OSM   C10F12519   3.328   7.314   5.184  0.5675  1.0522  0.5967
  119OSM   H10F12520   3.228   7.340   5.145  0.6897 -2.2862 -2.2000
  119OSM   C11F12521   3.399   7.194   5.115  0.0874 -0.6089  0.1462
  119OSM   H11F12522   3.368   7.099   5.164  2.1239 -0.1394  2.4324
  119OSM   H11G12523   3.508   7.192   5.136  0.2257  0.5207 -0.4428
  119OSM   C12F12524   3.373   7.167   4.964 -0.0349  0.3856 -0.8286
  119OSM   H12F12525   3.265   7.182   4.944 -0.6869 -0.6966  1.6576
  119OSM   H12G12526   3.404   7.068   4.923  0.6857 -0.1908  1.0659
  119OSM   C13F12527   3.434   7.274   4.871  0.0548  0.1930  0.5596
  119OSM   H13F12528   3.544   7.282   4.871 -0.1807  4.9136 -0.0762
  119OSM   H13G12529   3.408   7.377   4.903 -0.0766  0.8959 -1.7126
  119OSM   C14F12530   3.397   7.250   4.719  0.8649 -0.3614 -0.3429
  119OSM   H14F12531   3.289   7.225   4.712  0.9373 -1.0778  0.9108
  119OSM   H14G12532   3.447   7.155   4.690  2.5528 -0.1848  1.7759
  119OSM   C15F12533   3.443   7.363   4.621  0.3419  0.1518 -0.3561
  119OSM   H15F12534   3.548   7.385   4.649  1.0295 -3.5996  0.2961
  119OSM   H15G12535   3.382   7.454   4.640 -1.4307 -1.2058  0.5644
  119OSM   C16F12536   3.427   7.328   4.469 -0.2686  0.5295  0.1074
  119OSM   H16F12537   3.325   7.288   4.455  0.0519  0.0188 -0.8464
  119OSM   H16G12538   3.505   7.250   4.458  0.5974  1.8773 -4.4837
  119OSM   C17F12539   3.453   7.449   4.382 -0.4268 -0.3100  1.1391
  119OSM   H17F12540   3.557   7.484   4.398  0.5481 -1.2379 -2.6449
  119OSM   H17G12541   3.401   7.540   4.418  1.4566  0.3707  2.2022
  119OSM   C18F12542   3.435   7.427   4.230  0.3227  1.1179 -0.1395
  119OSM   H18F12543   3.420   7.528   4.185  0.4676  0.6159 -1.3520
  119OSM   H18G12544   3.350   7.359   4.208  0.4684 -0.1014  2.8727
  119OSM   H18H12545   3.533   7.385   4.197  0.6518  0.8158  1.2054
  120OSM      N12546   6.236   6.013   6.070 -0.5003  0.5610  0.8260
  120OSM    C1512547   6.103   5.967   6.008 -0.3303 -0.7846 -0.1830
  120OSM   H15A12548   6.024   6.019   6.061 -0.8315  0.5080 -2.1424
  120OSM   H15B12549   6.079   5.862   6.008 -1.3431 -0.5543 -1.2482
  120OSM   H15C12550   6.071   5.997   5.909 -4.7565  2.1439  1.9587
  120OSM    C1412551   6.348   5.961   5.988 -0.2798  0.9848  0.4739
  120OSM   H14A12552   6.364   6.002   5.890 -0.9846  0.9124  0.3276
  120OSM   H14B12553   6.329   5.855   5.980  1.1855  0.6158  1.6130
  120OSM   H14C12554   6.441   5.969   6.043  0.1965 -0.3577 -0.0924
  120OSM    C1312555   6.236   6.163   6.064 -0.2390 -0.2019 -0.4812
  120OSM   H13A12556   6.141   6.205   6.090  0.0831 -0.0005  0.3694
  120OSM   H13B12557   6.264   6.195   5.964  0.2422  0.8815 -0.0030
  120OSM   H13C12558   6.312   6.207   6.127 -0.5548  0.2736 -0.4383
  120OSM    C1212559   6.254   5.964   6.205 -1.2257 -0.1382 -0.0703
  120OSM   H12A12560   6.171   6.003   6.262  0.1944  0.1848  1.7862
  120OSM   H12B12561   6.346   5.998   6.251 -0.4073 -0.7545 -1.2228
  120OSM    C1112562   6.246   5.810   6.223 -0.1560  0.3131 -0.2312
  120OSM   H11A12563   6.150   5.775   6.182  0.1328 -0.1946 -0.4746
  120OSM   H11B12564   6.262   5.793   6.332  2.2008 -0.9352 -0.7312
  120OSM      P12565   6.376   5.590   6.181 -0.6074  0.0042 -0.2115
  120OSM    O1312566   6.488   5.584   6.279  0.2426  0.6876  0.1513
  120OSM    O1412567   6.247   5.520   6.220 -0.0733  0.3312  0.2243
  120OSM    O1112568   6.424   5.543   6.037 -0.1813 -0.2250 -0.2669
  120OSM    O1212569   6.355   5.747   6.157 -0.4344  0.0493 -0.2247
  120OSM    C1S12570   6.510   5.623   5.962 -0.5515 -0.8335  0.2998
  120OSM    H1S12571   6.605   5.634   6.019 -0.7676  0.9080  0.3622
  120OSM    H1T12572   6.473   5.728   5.964  1.4755  0.0302 -2.9007
  120OSM     NF12573   6.642   5.629   5.747  0.0932  0.0560  0.4332
  120OSM    HNF12574   6.613   5.701   5.684 -2.4912  0.1264  1.6239
  120OSM    C2S12575   6.535   5.565   5.824  0.4784  0.3303 -0.2493
  120OSM    H2S12576   6.579   5.464   5.842  2.3429  1.0900 -0.4603
  120OSM    C3S12577   6.400   5.569   5.751  0.4463 -0.5853 -0.0051
  120OSM    H3S12578   6.357   5.671   5.747 -0.8000 -1.1225 -0.5861
  120OSM     O312579   6.297   5.487   5.807 -0.1788  0.5400  0.5240
  120OSM    HO312580   6.323   5.471   5.898 -2.2921 -0.8908  0.9012
  120OSM    C4S12581   6.403   5.519   5.608  0.2985  0.1533  0.0129
  120OSM    H4S12582   6.437   5.415   5.609 -1.6135 -0.5774 -3.7388
  120OSM    C5S12583   6.373   5.585   5.489 -0.4734 -0.4666  0.0123
  120OSM    H5S12584   6.328   5.684   5.503 -0.8850 -0.8283  1.3049
  120OSM    C6S12585   6.373   5.509   5.359 -0.3234  0.3944  0.1576
  120OSM    H6S12586   6.276   5.467   5.326 -0.8082 -0.2645  2.3257
  120OSM    H6T12587   6.427   5.413   5.376  0.6362  0.9670  0.4049
  120OSM    C7S12588   6.438   5.580   5.239  0.5722 -0.5578  0.0945
  120OSM    H7S12589   6.459   5.502   5.162 -2.8315  0.0733 -1.5770
  120OSM    H7T12590   6.532   5.625   5.277  0.0143 -1.7068  2.9772
  120OSM    C8S12591   6.360   5.700   5.174 -0.1022 -0.2646 -0.2420
  120OSM    H8S12592   6.325   5.771   5.251  1.4172 -0.6217  0.8031
  120OSM    H8T12593   6.271   5.662   5.119  0.2448 -0.0407 -0.9693
  120OSM    C9S12594   6.460   5.776   5.081 -0.4556  0.1237  0.4102
  120OSM    H9S12595   6.473   5.712   4.991 -0.9151 -1.4263  1.4372
  120OSM    H9T12596   6.560   5.795   5.127 -0.6822  0.0101  0.9553
  120OSM   C10S12597   6.399   5.911   5.047 -0.6427  0.2458 -0.2206
  120OSM   H10S12598   6.385   5.972   5.139 -0.3415  2.3573 -1.5619
  120OSM   H10T12599   6.298   5.901   5.002 -0.8094  3.2533 -0.5972
  120OSM   C11S12600   6.501   5.981   4.950 -0.7346  0.5633 -0.0042
  120OSM   H11S12601   6.493   5.922   4.857  0.8515 -1.4567  1.0960
  120OSM   H11T12602   6.604   5.980   4.992 -1.1551  1.1789  1.0606
  120OSM   C12S12603   6.475   6.130   4.929  0.0020  0.2002 -0.2302
  120OSM   H12S12604   6.369   6.155   4.905  0.8610  2.0489 -2.2460
  120OSM   H12T12605   6.516   6.151   4.828  0.9950 -3.6622 -0.6986
  120OSM   C13S12606   6.532   6.214   5.040  0.2440  0.1780 -0.4606
  120OSM   H13S12607   6.635   6.180   5.066 -0.7192 -0.6430  2.4648
  120OSM   H13T12608   6.465   6.205   5.128 -1.9053 -0.8699 -2.1670
  120OSM   C14S12609   6.537   6.359   5.000 -0.1077 -0.3490  0.2535
  120OSM   H14S12610   6.551   6.410   5.097  1.3039 -1.2223  0.5126
  120OSM   H14T12611   6.437   6.386   4.959  0.8386  0.6945 -1.4612
  120OSM   C15S12612   6.655   6.403   4.913  0.3666  0.3740  0.7166
  120OSM   H15S12613   6.731   6.323   4.930  1.2424  0.6425 -1.7855
  120OSM   H15T12614   6.688   6.504   4.944  0.1092  1.3804 -2.1962
  120OSM   C16S12615   6.625   6.414   4.760 -0.4986 -0.0182 -0.2138
  120OSM   H16S12616   6.556   6.331   4.736  0.6909 -1.2775  0.6269
  120OSM   H16T12617   6.724   6.412   4.709  0.0744  2.2412  0.7489
  120OSM   C17S12618   6.566   6.539   4.716 -0.6008 -0.4368  0.0030
  120OSM   H17S12619   6.654   6.605   4.700 -1.6898  1.7485  2.5407
  120OSM   H17T12620   6.503   6.587   4.794 -1.8040 -1.8414 -0.0903
  120OSM   C18S12621   6.491   6.515   4.587  0.0089 -0.3398 -0.0723
  120OSM   H18S12622   6.558   6.468   4.512  1.5062  1.9918 -0.2341
  120OSM   H18T12623   6.462   6.614   4.545  0.7652  0.6907  1.7847
  120OSM   H18U12624   6.402   6.450   4.607  0.0961 -0.1813  0.8029
  120OSM    C1F12625   6.772   5.623   5.790 -0.5951 -0.2751  0.6490
  120OSM     OF12626   6.809   5.537   5.868 -0.0833 -0.3980 -0.1869
  120OSM    C2F12627   6.862   5.728   5.742 -0.2085  0.4921 -0.1883
  120OSM    H2F12628   6.948   5.673   5.698  0.2394 -0.5721  1.9092
  120OSM    H2G12629   6.891   5.790   5.830 -3.2155 -0.9444  1.9201
  120OSM    C3F12630   6.790   5.814   5.635  0.0455  0.3029  0.6703
  120OSM    H3F12631   6.718   5.883   5.683  0.0811  1.6975 -1.2261
  120OSM    H3G12632   6.738   5.761   5.552  1.5596  0.0308 -0.1251
  120OSM    C4F12633   6.888   5.913   5.563 -0.1554 -0.5787  0.7756
  120OSM    H4F12634   6.961   5.961   5.631  1.3659  0.1513 -1.3055
  120OSM    H4G12635   6.824   5.993   5.519 -0.0126 -0.0412  1.5380
  120OSM    C5F12636   6.970   5.839   5.454 -0.1328 -0.8858 -0.0235
  120OSM    H5F12637   7.008   5.760   5.521  0.6534 -1.9119 -1.6456
  120OSM    H5G12638   7.051   5.903   5.414 -0.3619  1.1698  2.6723
  120OSM    C6F12639   6.894   5.774   5.337  0.8820  0.1034 -0.2482
  120OSM    H6F12640   6.844   5.850   5.273 -0.6834  1.2029  2.2040
  120OSM    H6G12641   6.809   5.713   5.373 -0.3745  1.6610 -0.5128
  120OSM    C7F12642   6.989   5.694   5.243  0.2612 -0.8176 -0.5922
  120OSM    H7F12643   7.004   5.590   5.279 -0.0906 -0.5490  0.3255
  120OSM    H7G12644   7.084   5.750   5.234 -0.6855  0.4718 -3.4931
  120OSM    C8F12645   6.938   5.679   5.097  0.4629  0.4064  0.2859
  120OSM    H8F12646   7.020   5.663   5.024  1.8837 -0.1011  1.9745
  120OSM    H8G12647   6.884   5.767   5.055 -2.7335 -1.8761 -0.5824
  120OSM    C9F12648   6.843   5.562   5.091  0.2553 -0.3712  0.2971
  120OSM    H9F12649   6.772   5.565   5.175 -2.1846  1.0897 -1.7441
  120OSM   C10F12650   6.842   5.454   5.009  0.5695 -0.4366 -1.1398
  120OSM   H10F12651   6.776   5.369   5.034  0.7192 -0.6137 -1.3506
  120OSM   C11F12652   6.934   5.418   4.894  0.1089 -0.1042 -0.3695
  120OSM   H11F12653   6.981   5.320   4.917 -1.8011 -1.3154 -1.5472
  120OSM   H11G12654   7.012   5.497   4.891 -0.3518  0.5227  2.5049
  120OSM   C12F12655   6.865   5.403   4.763  0.3961 -0.5272  0.0054
  120OSM   H12F12656   6.779   5.334   4.776  0.2668 -0.7941 -2.1861
  120OSM   H12G12657   6.944   5.348   4.706  0.4387 -0.0776 -0.3648
  120OSM   C13F12658   6.815   5.534   4.694  0.2804  0.5125  0.3911
  120OSM   H13F12659   6.766   5.587   4.778 -0.5163 -2.0109  1.5597
  120OSM   H13G12660   6.731   5.502   4.629  1.1958 -0.8628 -0.1473
  120OSM   C14F12661   6.914   5.598   4.603  0.1376 -0.0116 -0.0813
  120OSM   H14F12662   6.955   5.517   4.538  0.3556  1.3960 -1.7329
  120OSM   H14G12663   6.999   5.641   4.660 -0.0976  0.5460 -0.1476
  120OSM   C15F12664   6.850   5.701   4.516  0.3274 -0.2169  0.2669
  120OSM   H15F12665   6.831   5.792   4.577 -1.5859 -1.1675  1.1481
  120OSM   H15G12666   6.748   5.668   4.485  0.2502 -0.9674  1.3118
  120OSM   C16F12667   6.925   5.756   4.401 -0.0341  0.1311  0.8607
  120OSM   H16F12668   6.980   5.673   4.352  1.2415  0.4086  1.7996
  120OSM   H16G12669   6.994   5.834   4.438  2.4239 -0.6062 -1.9856
  120OSM   C17F12670   6.833   5.836   4.307 -0.4829 -0.8508 -0.9874
  120OSM   H17F12671   6.786   5.915   4.370 -0.4732  0.8816 -3.0779
  120OSM   H17G12672   6.742   5.790   4.265 -1.1172  1.6197 -2.4249
  120OSM   C18F12673   6.917   5.900   4.196  0.5156  0.1781  0.8943
  120OSM   H18F12674   7.017   5.935   4.230  0.4541  1.9576 -0.6354
  120OSM   H18G12675   6.874   5.996   4.159  0.3928  1.3269  3.9222
  120OSM   H18H12676   6.930   5.832   4.109 -0.3081  0.5418  0.4888
  121OSM      N12677   6.001   7.134   6.256  0.0582  0.1858 -1.3298
  121OSM    C1512678   5.982   6.987   6.285 -0.1603 -0.0254  0.0217
  121OSM   H15A12679   6.018   6.932   6.200 -3.6150 -0.9809 -0.9230
  121OSM   H15B12680   5.877   6.967   6.299 -0.0272 -0.2655  0.6803
  121OSM   H15C12681   6.035   6.950   6.371 -1.0776  0.3147  0.7497
  121OSM    C1412682   5.972   7.222   6.368 -0.7070 -0.0221  0.0565
  121OSM   H14A12683   5.874   7.206   6.411 -0.7326 -0.8603 -0.2995
  121OSM   H14B12684   5.978   7.325   6.336 -2.6131  0.0973  0.0346
  121OSM   H14C12685   6.043   7.213   6.448  1.2447  0.8648 -1.5312
  121OSM    C1312686   6.138   7.153   6.219 -0.0274  0.3671  0.1627
  121OSM   H13A12687   6.151   7.091   6.131  1.1062  0.8785 -0.0373
  121OSM   H13B12688   6.208   7.128   6.298 -1.4390  0.4511  1.4575
  121OSM   H13C12689   6.156   7.256   6.193 -0.9959  0.3665 -0.5173
  121OSM    C1212690   5.908   7.176   6.145 -0.3209 -0.1160 -0.3955
  121OSM   H12A12691   5.812   7.180   6.195  0.5212 -1.6966  1.3962
  121OSM   H12B12692   5.891   7.098   6.073  2.4181 -2.6816  1.6362
  121OSM    C1112693   5.937   7.312   6.072  1.4623 -0.2040 -0.3441
  121OSM   H11A12694   5.862   7.324   5.991  1.8031  1.2998 -0.4468
  121OSM   H11B12695   6.036   7.312   6.023  2.2593 -0.4591  1.2341
  121OSM      P12696   5.783   7.486   6.196  0.0223 -0.3137  0.2008
  121OSM    O1312697   5.691   7.372   6.206 -0.0235  0.2119 -0.1544
  121OSM    O1412698   5.792   7.584   6.306  0.2794  0.3454 -0.5889
  121OSM    O1112699   5.736   7.571   6.069 -0.4054 -0.4441 -0.2609
  121OSM    O1212700   5.926   7.429   6.156 -0.1765  0.2737 -0.0658
  121OSM    C1S12701   5.805   7.682   6.015 -0.2482  0.7853  0.4330
  121OSM    H1S12702   5.882   7.716   6.087  0.1160  0.3361  0.2640
  121OSM    H1T12703   5.732   7.760   5.989  0.3566  1.0345 -0.5727
  121OSM     NF12704   5.944   7.762   5.821  0.6250 -0.1925  0.0108
  121OSM    HNF12705   5.894   7.829   5.766 -0.6029 -0.8293  0.3292
  121OSM    C2S12706   5.876   7.643   5.879 -0.1356  0.1323 -0.4498
  121OSM    H2S12707   5.937   7.553   5.899 -0.9694 -0.1519  0.8609
  121OSM    C3S12708   5.766   7.595   5.778 -0.1711  0.9679 -0.1326
  121OSM    H3S12709   5.690   7.673   5.759 -1.2617 -0.7974 -3.5061
  121OSM     O312710   5.704   7.478   5.834 -0.1331  0.6843 -0.5624
  121OSM    HO312711   5.660   7.512   5.913  3.5301 -0.0930  1.9495
  121OSM    C4S12712   5.819   7.568   5.645 -0.0597  0.0064  0.4933
  121OSM    H4S12713   5.857   7.465   5.636  0.0288  0.2383 -2.1258
  121OSM    C5S12714   5.795   7.640   5.527  1.1240  0.4421 -0.5082
  121OSM    H5S12715   5.718   7.718   5.522  2.2833  1.6493  0.2735
  121OSM    C6S12716   5.840   7.611   5.389 -0.8191  0.5905  0.4280
  121OSM    H6S12717   5.912   7.528   5.372  0.8967  2.1510 -0.0323
  121OSM    H6T12718   5.883   7.698   5.335 -2.1347  2.7125  2.6867
  121OSM    C7S12719   5.715   7.571   5.299  0.0092 -0.1661 -0.6951
  121OSM    H7S12720   5.638   7.650   5.288 -0.8919 -1.3809 -3.5654
  121OSM    H7T12721   5.662   7.492   5.357 -0.4143  0.4598 -0.2275
  121OSM    C8S12722   5.740   7.520   5.152 -0.4204 -0.2588 -0.2601
  121OSM    H8S12723   5.647   7.481   5.106 -0.6448  0.3777 -0.3501
  121OSM    H8T12724   5.812   7.435   5.146 -1.6267 -1.1656 -2.1558
  121OSM    C9S12725   5.784   7.634   5.060 -0.3666 -0.5614  0.1812
  121OSM    H9S12726   5.877   7.681   5.101 -0.3123 -1.6186  1.2996
  121OSM    H9T12727   5.706   7.713   5.050  1.8532  1.7139  0.1998
  121OSM   C10S12728   5.824   7.585   4.920  0.0025 -0.4207  0.1271
  121OSM   H10S12729   5.741   7.546   4.857 -0.6779  0.1948  0.6296
  121OSM   H10T12730   5.900   7.506   4.935 -0.0853 -0.5956 -0.3254
  121OSM   C11S12731   5.898   7.696   4.833 -0.4775  0.3135  0.1303
  121OSM   H11S12732   5.991   7.727   4.886  0.1027 -0.4387 -0.4276
  121OSM   H11T12733   5.840   7.790   4.819 -0.0027  0.9143  2.0352
  121OSM   C12S12734   5.949   7.631   4.702  0.3629 -0.2404  0.1320
  121OSM   H12S12735   5.855   7.621   4.644  0.1892  0.2405  0.3294
  121OSM   H12T12736   5.983   7.526   4.719  2.3883  0.4776  0.6280
  121OSM   C13S12737   6.061   7.707   4.632  0.8231  0.5181  0.4038
  121OSM   H13S12738   6.152   7.694   4.695  2.0458  2.6445 -0.8574
  121OSM   H13T12739   6.032   7.813   4.619  0.7938  0.8152  2.8300
  121OSM   C14S12740   6.088   7.643   4.492  0.2213  0.4601 -0.1609
  121OSM   H14S12741   6.184   7.688   4.459  0.2146  2.1170  1.9730
  121OSM   H14T12742   6.003   7.658   4.422 -0.2490  0.5159  0.4159
  121OSM   C15S12743   6.140   7.495   4.486 -0.1534 -0.4625  0.2848
  121OSM   H15S12744   6.067   7.437   4.545 -1.0925 -0.3314 -0.7447
  121OSM   H15T12745   6.246   7.499   4.521  0.4613 -1.1723 -1.4576
  121OSM   C16S12746   6.122   7.460   4.340  0.3972 -0.9505 -0.0547
  121OSM   H16S12747   6.163   7.533   4.267 -0.2903  1.1140  1.5709
  121OSM   H16T12748   6.012   7.466   4.321  0.9258 -0.0765 -3.0676
  121OSM   C17S12749   6.182   7.322   4.296 -0.0496 -0.6654  0.2708
  121OSM   H17S12750   6.137   7.246   4.363 -0.6714 -0.2725  0.3052
  121OSM   H17T12751   6.291   7.328   4.317 -0.2120 -4.0552  2.4608
  121OSM   C18S12752   6.153   7.292   4.149  0.4807 -0.2921  0.0324
  121OSM   H18S12753   6.184   7.186   4.138  0.3263 -0.6061  2.4072
  121OSM   H18T12754   6.212   7.346   4.072 -1.4929  2.2426  0.2498
  121OSM   H18U12755   6.044   7.287   4.128  0.4849  1.1874 -0.3880
  121OSM    C1F12756   6.055   7.798   5.882  0.3096  0.1681 -0.9746
  121OSM     OF12757   6.105   7.727   5.970  0.0199  0.7372  0.5197
  121OSM    C2F12758   6.117   7.933   5.866 -0.2917 -0.3752 -0.3778
  121OSM    H2F12759   6.139   7.966   5.970 -5.2214  0.9027  0.4034
  121OSM    H2G12760   6.051   8.012   5.824  1.5250  0.2465 -2.1641
  121OSM    C3F12761   6.257   7.929   5.791  0.5121  0.5358 -0.3298
  121OSM    H3F12762   6.326   7.863   5.848  0.8237  2.3226  1.4434
  121OSM    H3G12763   6.306   8.028   5.784  1.7361  0.1276  1.9235
  121OSM    C4F12764   6.255   7.874   5.654 -0.0209 -0.6934  0.4715
  121OSM    H4F12765   6.198   7.778   5.647 -0.4184 -0.2730 -2.5261
  121OSM    H4G12766   6.355   7.842   5.618  0.3457  2.2864 -1.2694
  121OSM    C5F12767   6.192   7.982   5.564 -0.1317  0.0618  0.2812
  121OSM    H5F12768   6.265   8.065   5.552  0.1410  0.0180  1.6005
  121OSM    H5G12769   6.105   8.022   5.620  0.6686 -0.3779  1.8686
  121OSM    C6F12770   6.157   7.936   5.425 -0.0155  0.0794 -0.4766
  121OSM    H6F12771   6.076   7.861   5.439  0.5415 -0.1776  1.4597
  121OSM    H6G12772   6.247   7.894   5.375  1.5313  1.1799  1.3310
  121OSM    C7F12773   6.100   8.050   5.338 -0.4505  1.1710  0.3608
  121OSM    H7F12774   6.177   8.131   5.338 -0.5628  1.2806  0.5382
  121OSM    H7G12775   6.002   8.093   5.369 -0.4309 -0.2703  2.5555
  121OSM    C8F12776   6.102   8.005   5.186  0.3101 -0.1758  0.0626
  121OSM    H8F12777   6.187   7.933   5.187  0.2283 -0.2903 -0.9146
  121OSM    H8G12778   6.129   8.095   5.126 -0.7337  1.7542  2.4222
  121OSM    C9F12779   5.969   7.945   5.143  0.4341 -0.6008 -0.0959
  121OSM    H9F12780   5.943   7.851   5.193  0.7898 -0.0742  1.0879
  121OSM   C10F12781   5.883   7.987   5.049 -0.4277 -0.1362 -0.0677
  121OSM   H10F12782   5.795   7.931   5.012  1.0118 -2.1587 -0.5066
  121OSM   C11F12783   5.894   8.109   4.959  0.3831  0.4362  1.2911
  121OSM   H11F12784   5.996   8.151   4.975  2.1883 -2.6695 -1.3618
  121OSM   H11G12785   5.821   8.188   4.988 -1.3255 -0.0805 -1.4619
  121OSM   C12F12786   5.896   8.080   4.808  0.8206  0.1696  0.1769
  121OSM   H12F12787   5.794   8.042   4.784  0.8775 -0.6305  1.1809
  121OSM   H12G12788   5.971   8.006   4.773 -1.5453 -2.1846 -0.0965
  121OSM   C13F12789   5.934   8.211   4.739 -0.2273  0.0792 -0.1081
  121OSM   H13F12790   6.035   8.243   4.771 -0.5579  1.9131 -0.7970
  121OSM   H13G12791   5.868   8.293   4.775  0.8972 -0.2232  2.7783
  121OSM   C14F12792   5.917   8.206   4.587  0.3403 -0.0550 -0.1094
  121OSM   H14F12793   5.919   8.312   4.553 -1.3479  0.0426  0.0758
  121OSM   H14G12794   5.815   8.168   4.565  0.8660 -2.2464  1.1926
  121OSM   C15F12795   6.005   8.108   4.505 -0.0737  0.0132  0.0544
  121OSM   H15F12796   5.996   8.006   4.548 -0.5026  0.3881  0.8693
  121OSM   H15G12797   6.108   8.147   4.522 -0.2004  0.5079 -0.2975
  121OSM   C16F12798   5.970   8.097   4.357  0.6876  0.3226  0.7817
  121OSM   H16F12799   5.982   8.194   4.304 -3.8073 -0.0070 -1.0563
  121OSM   H16G12800   5.864   8.077   4.329  1.3754 -0.3926 -1.4105
  121OSM   C17F12801   6.051   7.986   4.274 -0.7554 -0.1564  0.4693
  121OSM   H17F12802   6.048   7.884   4.320 -2.6141  0.1289  1.0066
  121OSM   H17G12803   6.160   8.008   4.272 -0.0186 -3.3234  2.2144
  121OSM   C18F12804   5.999   7.991   4.134  0.1355 -0.3511 -0.1888
  121OSM   H18F12805   6.057   7.922   4.068 -0.1897  0.6508 -1.5530
  121OSM   H18G12806   6.003   8.092   4.087 -0.8540 -0.0667  0.3349
  121OSM   H18H12807   5.891   7.967   4.136 -0.3081  1.6070  1.8032
  122OSM      N12808   0.946   6.746   6.546 -0.0709  0.6612 -0.4648
  122OSM    C1512809   0.818   6.721   6.469 -0.4199  0.1072  0.1357
  122OSM   H15A12810   0.848   6.713   6.366  0.1315  1.1204  0.2141
  122OSM   H15B12811   0.747   6.802   6.485 -0.6136 -0.0326 -0.0008
  122OSM   H15C12812   0.769   6.628   6.494  0.3914 -0.5727 -0.7639
  122OSM    C1412813   0.990   6.888   6.533 -0.2521 -0.3333 -0.5447
  122OSM   H14A12814   1.003   6.915   6.429 -1.1034  0.4935 -0.4373
  122OSM   H14B12815   1.077   6.922   6.586 -0.5503 -0.0694 -0.2301
  122OSM   H14C12816   0.913   6.955   6.567 -0.8288 -0.6208 -1.2640
  122OSM    C1312817   0.916   6.722   6.692  0.2812 -0.7330  0.7196
  122OSM   H13A12818   0.879   6.622   6.707  1.1935 -1.6139 -2.5831
  122OSM   H13B12819   0.828   6.780   6.715  0.6203  0.0114  0.1371
  122OSM   H13C12820   1.001   6.739   6.756 -0.6437 -4.0870  2.9837
  122OSM    C1212821   1.065   6.660   6.503 -0.2165 -0.2175  0.8767
  122OSM   H12A12822   1.036   6.558   6.520  0.8868 -0.8513 -0.9798
  122OSM   H12B12823   1.142   6.685   6.575  2.0131  0.2712 -1.5981
  122OSM    C1112824   1.112   6.676   6.357  0.1189  0.5161 -0.3616
  122OSM   H11A12825   1.212   6.633   6.336  1.3728  3.8902 -1.7048
  122OSM   H11B12826   1.132   6.781   6.325 -2.0856  1.1116  0.1539
  122OSM      P12827   1.000   6.459   6.246 -0.2612  0.3000 -0.4738
  122OSM    O1312828   1.134   6.387   6.246 -0.0411  0.2455 -0.0374
  122OSM    O1412829   0.898   6.407   6.344  0.4113  0.5304  0.7337
  122OSM    O1112830   0.928   6.452   6.103 -1.0623  0.6121  0.5792
  122OSM    O1212831   1.019   6.616   6.266 -0.9326  1.0500 -0.2694
  122OSM    C1S12832   0.822   6.531   6.067 -0.5609  0.1408 -0.4287
  122OSM    H1S12833   0.861   6.631   6.039  1.5158  0.1531  2.2723
  122OSM    H1T12834   0.759   6.534   6.158 -0.1419  0.8246 -0.1606
  122OSM     NF12835   0.661   6.562   5.884 -0.0469  1.4976  0.3348
  122OSM    HNF12836   0.565   6.576   5.906 -1.0905  1.5240 -3.7128
  122OSM    C2S12837   0.740   6.463   5.949  0.2258  0.2405  0.3016
  122OSM    H2S12838   0.816   6.415   5.883 -0.8501 -0.8894 -0.1193
  122OSM    C3S12839   0.651   6.346   6.008  0.3358  0.0304 -0.2884
  122OSM    H3S12840   0.565   6.380   6.069  0.3634 -1.6037  0.6932
  122OSM     O312841   0.727   6.259   6.087  0.3968  0.0559 -0.7026
  122OSM    HO312842   0.805   6.315   6.097  1.2624 -0.8200 -2.3115
  122OSM    C4S12843   0.591   6.265   5.899  0.5127  0.9655  0.0684
  122OSM    H4S12844   0.673   6.218   5.842 -1.3678 -0.1499 -1.7991
  122OSM    C5S12845   0.459   6.243   5.877 -0.0285 -0.5119  0.7563
  122OSM    H5S12846   0.392   6.301   5.942  0.9712 -0.6473  1.9506
  122OSM    C6S12847   0.403   6.159   5.765  0.0339 -0.1642  0.0257
  122OSM    H6S12848   0.343   6.219   5.694  0.6255 -0.0696 -0.4072
  122OSM    H6T12849   0.336   6.078   5.801  0.3596 -0.0819  0.8202
  122OSM    C7S12850   0.500   6.085   5.660  0.4709  0.7594  0.2010
  122OSM    H7S12851   0.430   6.013   5.612  0.3911  1.6334 -1.0297
  122OSM    H7T12852   0.576   6.022   5.710  0.0503  0.8358  0.9434
  122OSM    C8S12853   0.577   6.179   5.569  0.0360 -0.1514  0.7589
  122OSM    H8S12854   0.642   6.249   5.626  0.5380 -0.5670  0.6994
  122OSM    H8T12855   0.500   6.247   5.526  0.7963  0.2107 -0.0289
  122OSM    C9S12856   0.639   6.116   5.438  0.6699  0.2533  0.0451
  122OSM    H9S12857   0.550   6.068   5.392  1.1722 -0.1000 -0.5784
  122OSM    H9T12858   0.725   6.046   5.445  1.0172  0.6733  0.0020
  122OSM   C10S12859   0.677   6.232   5.340 -0.5007  0.3176 -0.9006
  122OSM   H10S12860   0.787   6.240   5.351 -0.6289  0.7751  0.0143
  122OSM   H10T12861   0.626   6.327   5.363  1.0001  0.8902  0.1268
  122OSM   C11S12862   0.662   6.192   5.191  0.2964 -0.2155 -0.6803
  122OSM   H11S12863   0.554   6.199   5.168  0.5515  0.2270 -1.7697
  122OSM   H11T12864   0.691   6.085   5.186  0.7673 -0.0242 -2.0613
  122OSM   C12S12865   0.748   6.278   5.097 -0.5792 -0.6447 -0.2415
  122OSM   H12S12866   0.855   6.288   5.128 -1.1151  0.0694  1.4307
  122OSM   H12T12867   0.698   6.377   5.099 -0.0835 -0.4123  0.9377
  122OSM   C13S12868   0.756   6.228   4.952 -0.0666 -0.3185  0.1430
  122OSM   H13S12869   0.652   6.225   4.912 -0.0439  2.9274 -0.3469
  122OSM   H13T12870   0.788   6.123   4.963  0.4774 -0.1411  0.3029
  122OSM   C14S12871   0.840   6.319   4.862 -0.2996 -0.4408  0.2818
  122OSM   H14S12872   0.944   6.312   4.899 -0.2773 -0.4978  0.2064
  122OSM   H14T12873   0.810   6.426   4.866  0.0655 -0.1818 -3.0209
  122OSM   C15S12874   0.839   6.272   4.714 -0.0210 -0.2661 -0.4937
  122OSM   H15S12875   0.732   6.288   4.689  0.3939  2.9601 -0.3854
  122OSM   H15T12876   0.857   6.162   4.706 -0.2325 -0.3843  0.5326
  122OSM   C16S12877   0.941   6.360   4.637  0.7181  0.1800 -0.2277
  122OSM   H16S12878   1.044   6.357   4.679  0.5613  0.1346  0.1545
  122OSM   H16T12879   0.915   6.468   4.629  2.1663  0.5252 -0.4952
  122OSM   C17S12880   0.950   6.307   4.490 -0.5460  0.1367  0.0563
  122OSM   H17S12881   0.857   6.349   4.447  0.0373  1.7919  0.3683
  122OSM   H17T12882   0.939   6.196   4.485  1.1206 -0.0142 -0.5619
  122OSM   C18S12883   1.070   6.351   4.413  0.3067  0.2884 -0.0718
  122OSM   H18S12884   1.035   6.343   4.308  0.9881  1.0843 -0.3717
  122OSM   H18T12885   1.163   6.296   4.439  1.0536  1.0667 -1.0244
  122OSM   H18U12886   1.083   6.457   4.445 -0.8932 -0.0429  1.5283
  122OSM    C1F12887   0.707   6.647   5.792  0.6957 -0.1700 -0.0087
  122OSM     OF12888   0.831   6.660   5.772  0.4497  0.3073  0.0146
  122OSM    C2F12889   0.598   6.729   5.719 -0.0004 -0.0852  0.5517
  122OSM    H2F12890   0.627   6.832   5.747  0.3707 -0.4465  1.5105
  122OSM    H2G12891   0.501   6.706   5.767  0.0562  2.2635  1.8564
  122OSM    C3F12892   0.594   6.707   5.566  0.0998  0.3092  0.4480
  122OSM    H3F12893   0.568   6.600   5.553  1.8575 -0.2151  1.0660
  122OSM    H3G12894   0.695   6.727   5.523  0.3181 -0.0644  0.7782
  122OSM    C4F12895   0.484   6.780   5.486  0.0376  0.1868 -0.1743
  122OSM    H4F12896   0.390   6.780   5.545  0.8135  2.6469  1.1465
  122OSM    H4G12897   0.452   6.726   5.395  2.5430  1.7900 -2.0847
  122OSM    C5F12898   0.519   6.925   5.440 -0.4465 -0.0392  0.5472
  122OSM    H5F12899   0.627   6.935   5.413  0.0761 -0.4244  2.4657
  122OSM    H5G12900   0.488   7.001   5.514 -0.1593 -0.0281  0.6587
  122OSM    C6F12901   0.454   6.978   5.316  0.4006 -0.2800  0.1458
  122OSM    H6F12902   0.479   6.914   5.229  0.4104 -0.5559  0.3513
  122OSM    H6G12903   0.502   7.073   5.285 -1.0426 -0.6704 -3.5641
  122OSM    C7F12904   0.301   6.979   5.334 -0.4827  0.1199  0.8973
  122OSM    H7F12905   0.277   7.025   5.432 -2.2035 -0.1305  0.5971
  122OSM    H7G12906   0.257   6.877   5.332 -0.1870 -0.0296  1.7556
  122OSM    C8F12907   0.231   7.070   5.234 -0.2539 -0.6197  0.0352
  122OSM    H8F12908   0.221   7.174   5.271  1.9026 -0.4805  0.2490
  122OSM    H8G12909   0.125   7.035   5.235 -1.0722  1.7751 -1.3073
  122OSM    C9F12910   0.281   7.059   5.092  0.3747  0.0569 -0.4206
  122OSM    H9F12911   0.390   7.073   5.091  0.9195 -3.5122  1.2294
  122OSM   C10F12912   0.212   7.019   4.983  0.7231 -0.8032 -0.0562
  122OSM   H10F12913   0.274   7.008   4.893  0.9871  1.0234 -0.1000
  122OSM   C11F12914   0.065   6.978   4.982  1.1771 -0.4777 -0.0773
  122OSM   H11F12915   0.013   7.071   4.954 -1.1296 -1.8636 -0.5231
  122OSM   H11G12916   0.030   6.941   5.081  2.1140  0.3174  0.5540
  122OSM   C12F12917   0.020   6.862   4.888 -0.2114  0.2176  0.6735
  122OSM   H12F12918  -0.084   6.837   4.919 -0.2672  1.0716  1.1822
  122OSM   H12G12919   0.086   6.773   4.894  0.3876  0.6972  1.4153
  122OSM   C13F12920   0.011   6.907   4.743 -0.0135 -0.5296 -0.0552
  122OSM   H13F12921  -0.039   7.006   4.737 -0.4672 -0.8264 -1.5348
  122OSM   H13G12922  -0.068   6.847   4.693 -2.0464  0.2511  2.1134
  122OSM   C14F12923   0.143   6.890   4.661 -0.6208  0.0517 -0.4029
  122OSM   H14F12924   0.155   6.780   4.655 -1.0752 -0.0219  0.0633
  122OSM   H14G12925   0.220   6.953   4.711 -0.1542 -0.7928 -0.0411
  122OSM   C15F12926   0.122   6.939   4.518  0.4153 -0.4588 -0.1540
  122OSM   H15F12927   0.110   7.050   4.519 -0.0969 -0.5249  1.7419
  122OSM   H15G12928   0.026   6.901   4.479 -0.6234  2.5574 -0.6666
  122OSM   C16F12929   0.228   6.895   4.424  0.1025  0.4471  0.8118
  122OSM   H16F12930   0.239   6.785   4.422 -1.6962  0.2702 -1.8909
  122OSM   H16G12931   0.326   6.940   4.452  0.6863 -0.1745 -0.2311
  122OSM   C17F12932   0.201   6.942   4.282 -0.1522  0.8273 -0.6984
  122OSM   H17F12933   0.178   7.050   4.295 -0.3706  0.7522 -0.4457
  122OSM   H17G12934   0.115   6.888   4.235  1.5149 -1.7416 -0.9098
  122OSM   C18F12935   0.317   6.939   4.188  0.1026 -0.2020 -0.8769
  122OSM   H18F12936   0.362   6.844   4.152  3.3222  1.1980 -0.7518
  122OSM   H18G12937   0.406   6.994   4.226 -0.5378 -0.5069  1.1161
  122OSM   H18H12938   0.287   6.982   4.090  0.6626 -0.0337 -0.9760
  123OSM      N12939   3.008   3.844   1.837  0.8095 -0.4066 -0.1068
  123OSM    C1512940   2.932   3.946   1.754  0.0848 -0.3527 -0.1116
  123OSM   H15A12941   2.954   4.044   1.795 -1.4077 -1.2348  2.9548
  123OSM   H15B12942   2.827   3.923   1.769  0.6859 -2.6059  0.8390
  123OSM   H15C12943   2.954   3.928   1.650 -1.8336 -2.3553 -0.2059
  123OSM    C1412944   2.966   3.709   1.797 -0.1878 -0.1328  0.0053
  123OSM   H14A12945   2.873   3.682   1.845  0.4117 -1.4072  0.4680
  123OSM   H14B12946   3.036   3.643   1.845  0.7613  1.4702  0.8795
  123OSM   H14C12947   2.973   3.685   1.692 -1.5612 -0.6238  0.0087
  123OSM    C1312948   3.155   3.858   1.808  0.0750 -0.1137 -0.4219
  123OSM   H13A12949   3.215   3.797   1.873 -0.8106 -0.4360  0.1049
  123OSM   H13B12950   3.190   3.960   1.818 -1.1363  0.3470 -0.7725
  123OSM   H13C12951   3.176   3.833   1.705 -0.8905 -3.3763  0.1265
  123OSM    C1212952   2.989   3.872   1.985  0.4777 -0.6789 -0.2838
  123OSM   H12A12953   2.882   3.882   1.993  0.6779  1.0851  0.4524
  123OSM   H12B12954   3.036   3.967   2.006 -2.2101  0.2335  1.8904
  123OSM    C1112955   3.036   3.768   2.089  0.0303 -0.0062  0.2991
  123OSM   H11A12956   2.980   3.677   2.056 -1.8698  0.2257  2.7111
  123OSM   H11B12957   2.993   3.801   2.186 -0.0938  0.1320  0.1971
  123OSM      P12958   3.275   3.818   2.173  0.1562  0.0834 -0.4119
  123OSM    O1312959   3.368   3.722   2.231  0.3393  0.0306 -0.2307
  123OSM    O1412960   3.326   3.921   2.084 -0.7162 -0.0065 -0.3111
  123OSM    O1112961   3.184   3.882   2.291 -0.0010  0.3194  0.0430
  123OSM    O1212962   3.172   3.728   2.091 -0.3792 -0.1617 -0.5115
  123OSM    C1S12963   3.246   3.953   2.398 -1.0290 -0.0201 -0.1047
  123OSM    H1S12964   3.297   4.043   2.357  1.7672 -1.3955  0.1877
  123OSM    H1T12965   3.324   3.891   2.448 -0.5898  1.4126  1.0234
  123OSM     NF12966   3.225   4.059   2.623  0.1414  0.0616  0.2657
  123OSM    HNF12967   3.238   4.015   2.711  0.5311  1.6746  1.0368
  123OSM    C2S12968   3.152   3.986   2.521  0.0509 -0.2752 -0.5325
  123OSM    H2S12969   3.071   4.048   2.476 -2.2628 -2.5909  0.3338
  123OSM    C3S12970   3.082   3.851   2.573  0.3507  0.6624  0.5783
  123OSM    H3S12971   3.163   3.797   2.626  0.4667  1.5324  1.3072
  123OSM     O312972   3.038   3.760   2.467 -0.1724  0.6644 -0.0543
  123OSM    HO312973   3.080   3.791   2.386  3.5854 -0.3649  1.4061
  123OSM    C4S12974   2.973   3.887   2.676  0.1392  0.3679  1.0272
  123OSM    H4S12975   2.886   3.937   2.631 -0.0113 -1.1067 -0.3768
  123OSM    C5S12976   2.972   3.862   2.808 -0.0288  0.6071 -0.2050
  123OSM    H5S12977   3.062   3.825   2.858 -1.6002 -0.3124  2.0081
  123OSM    C6S12978   2.857   3.895   2.905 -0.3624 -0.2955 -0.0643
  123OSM    H6S12979   2.780   3.817   2.922 -0.0392 -0.1647  2.0701
  123OSM    H6T12980   2.799   3.976   2.856 -0.0643 -0.9368 -1.5077
  123OSM    C7S12981   2.899   3.950   3.043  0.4768  0.7963  0.5244
  123OSM    H7S12982   2.808   3.994   3.090  0.6534  0.8427  0.8292
  123OSM    H7T12983   2.975   4.031   3.035 -0.2587  1.5691  1.1517
  123OSM    C8S12984   2.961   3.841   3.132  0.2274  0.3509 -0.3251
  123OSM    H8S12985   3.070   3.833   3.113  0.3806  1.2072  0.1811
  123OSM    H8T12986   2.911   3.745   3.106 -1.6807  0.8386  1.4328
  123OSM    C9S12987   2.929   3.861   3.278  0.3260 -0.4400 -0.1486
  123OSM    H9S12988   2.958   3.781   3.349 -0.3013  0.8428  1.5907
  123OSM    H9T12989   2.819   3.856   3.293  0.0058 -0.5675 -2.4359
  123OSM   C10S12990   2.983   3.993   3.331  0.1208 -1.2564 -0.1578
  123OSM   H10S12991   2.950   4.066   3.255 -1.5242 -3.9070 -2.0854
  123OSM   H10T12992   3.094   3.981   3.327  0.1604 -0.8249 -0.3582
  123OSM   C11S12993   2.954   4.028   3.473  0.1670  0.2448 -0.4444
  123OSM   H11S12994   2.845   4.014   3.490  0.4363 -2.1983 -0.5344
  123OSM   H11T12995   2.970   4.137   3.487  0.2230  0.1789  0.0382
  123OSM   C12S12996   3.032   3.947   3.571  0.6399 -0.0627 -0.7058
  123OSM   H12S12997   3.136   3.924   3.538  0.3093 -1.6956 -0.6562
  123OSM   H12T12998   2.986   3.848   3.594 -0.5279  0.8513  0.9893
  123OSM   C13S12999   3.042   4.027   3.707 -0.1777  0.4993 -0.6048
  123OSM   H13S13000   2.942   4.037   3.755  1.8582  0.8163  3.8127
  123OSM   H13T13001   3.083   4.127   3.682  0.4456  0.8775  1.7646
  123OSM   C14S13002   3.136   3.963   3.811  0.4100 -0.7421  0.2789
  123OSM   H14S13003   3.165   4.044   3.881 -2.4381 -0.9274  1.7504
  123OSM   H14T13004   3.221   3.907   3.766  1.3763 -0.7007  2.0302
  123OSM   C15S13005   3.064   3.874   3.916 -0.3158 -0.2821 -0.3846
  123OSM   H15S13006   3.027   3.775   3.883  0.6344 -0.2368 -1.6405
  123OSM   H15T13007   2.970   3.923   3.949  1.5184  1.7572  2.1456
  123OSM   C16S13008   3.152   3.854   4.046  0.6193 -0.1546  0.2206
  123OSM   H16S13009   3.165   3.954   4.093  0.9999 -1.7026  3.5750
  123OSM   H16T13010   3.259   3.829   4.028  1.0620  2.3053 -0.7493
  123OSM   C17S13011   3.093   3.741   4.137 -0.0807 -0.5648  0.7697
  123OSM   H17S13012   3.177   3.717   4.206  0.8903 -2.4585 -1.0249
  123OSM   H17T13013   3.069   3.648   4.081 -2.6559  1.3612 -1.4512
  123OSM   C18S13014   2.981   3.782   4.236 -0.7721 -0.2401 -0.3917
  123OSM   H18S13015   2.890   3.805   4.178 -0.7475  0.5313 -0.1295
  123OSM   H18T13016   3.015   3.870   4.294  0.6055 -0.0541 -1.4502
  123OSM   H18U13017   2.962   3.699   4.308  2.5895 -2.1541 -1.5609
  123OSM    C1F13018   3.275   4.182   2.604  0.1696 -0.3497  0.3960
  123OSM     OF13019   3.233   4.244   2.507 -0.1648 -0.2846 -0.0167
  123OSM    C2F13020   3.365   4.236   2.708 -0.6758  0.5871 -0.4710
  123OSM    H2F13021   3.366   4.347   2.700  1.8391  0.7243  1.0155
  123OSM    H2G13022   3.470   4.217   2.678 -1.0228 -1.0137 -0.7158
  123OSM    C3F13023   3.349   4.184   2.856  0.0139  0.5174 -0.3421
  123OSM    H3F13024   3.435   4.231   2.908  0.4043  0.5628 -1.0345
  123OSM    H3G13025   3.349   4.073   2.860  1.0992  0.5516  0.7319
  123OSM    C4F13026   3.219   4.238   2.923 -0.3267 -0.3756  0.3769
  123OSM    H4F13027   3.130   4.211   2.863 -0.6491  0.6131  0.4028
  123OSM    H4G13028   3.235   4.348   2.911 -0.2511 -0.3922  0.3207
  123OSM    C5F13029   3.210   4.198   3.071 -0.0218  0.2449  0.4318
  123OSM    H5F13030   3.246   4.094   3.086  4.7961  1.4841 -1.6991
  123OSM    H5G13031   3.102   4.205   3.095 -0.0541  0.4859  0.2191
  123OSM    C6F13032   3.290   4.292   3.153 -0.3461 -0.6499 -0.3027
  123OSM    H6F13033   3.265   4.400   3.144 -2.8976 -1.3196 -1.6104
  123OSM    H6G13034   3.400   4.290   3.136 -0.3642 -1.2033 -0.3541
  123OSM    C7F13035   3.270   4.262   3.305  0.2969  0.6332 -0.4401
  123OSM    H7F13036   3.308   4.158   3.318 -1.8173 -0.0806  0.2877
  123OSM    H7G13037   3.165   4.270   3.341  0.2762 -0.5538 -0.1965
  123OSM    C8F13038   3.354   4.347   3.401 -0.9293  0.2741  0.0658
  123OSM    H8F13039   3.318   4.451   3.389 -0.2929  0.6012  0.9331
  123OSM    H8G13040   3.463   4.342   3.382 -0.8938 -1.1310  0.5329
  123OSM    C9F13041   3.328   4.296   3.546  0.4067  0.5399  0.4104
  123OSM    H9F13042   3.232   4.330   3.587  0.2292  0.5403  0.0002
  123OSM   C10F13043   3.402   4.216   3.619 -0.3800 -0.2717  0.2837
  123OSM   H10F13044   3.366   4.186   3.719 -2.0244  0.2091 -0.1409
  123OSM   C11F13045   3.533   4.152   3.581  0.5704  0.6281  0.1826
  123OSM   H11F13046   3.615   4.211   3.628 -0.3952  1.9880  0.2130
  123OSM   H11G13047   3.555   4.150   3.472 -0.1356 -0.5909  0.0556
  123OSM   C12F13048   3.531   4.003   3.617 -0.5765  0.7959 -0.0744
  123OSM   H12F13049   3.623   3.963   3.569 -0.9607  0.8008 -0.8204
  123OSM   H12G13050   3.444   3.955   3.567  0.8995 -2.3508  0.2148
  123OSM   C13F13051   3.532   3.973   3.764  0.5070  0.3442 -0.2081
  123OSM   H13F13052   3.446   4.018   3.817 -0.9230  0.5499 -2.6248
  123OSM   H13G13053   3.619   4.027   3.807  0.3681 -0.3051  0.8807
  123OSM   C14F13054   3.540   3.825   3.809  0.5569  0.2962 -0.2787
  123OSM   H14F13055   3.626   3.776   3.757  1.5100  1.4841  0.1542
  123OSM   H14G13056   3.454   3.767   3.770 -0.6365  0.5111  1.9611
  123OSM   C15F13057   3.559   3.814   3.960  0.0045 -0.3562  0.1174
  123OSM   H15F13058   3.480   3.870   4.014  1.1541  0.5365  0.9059
  123OSM   H15G13059   3.654   3.870   3.972  0.4520 -0.7899 -1.2646
  123OSM   C16F13060   3.575   3.670   4.010 -0.4825  0.3662  0.7141
  123OSM   H16F13061   3.666   3.621   3.968  0.1629  1.8183  0.3835
  123OSM   H16G13062   3.487   3.611   3.979 -0.3468  0.6068 -0.1479
  123OSM   C17F13063   3.578   3.664   4.162  0.0254  0.1066 -0.5902
  123OSM   H17F13064   3.502   3.725   4.216  0.4242  1.6859 -1.7672
  123OSM   H17G13065   3.675   3.701   4.201 -0.8250  0.1613  1.4957
  123OSM   C18F13066   3.569   3.513   4.199  0.0966  0.0402 -0.1282
  123OSM   H18F13067   3.574   3.495   4.308  1.4444  0.1547 -0.1633
  123OSM   H18G13068   3.659   3.463   4.159  0.1487  0.8094 -1.0227
  123OSM   H18H13069   3.479   3.464   4.155 -0.2466 -1.4746  2.2290
  124OSM      N13070   2.486   4.883   2.205 -0.3455  0.3118 -0.0195
  124OSM    C1513071   2.636   4.866   2.205 -0.6027  0.3739 -1.0953
  124OSM   H15A13072   2.666   4.819   2.113  1.4833  1.1492 -0.8239
  124OSM   H15B13073   2.666   4.810   2.292  0.4626  1.9451 -0.4347
  124OSM   H15C13074   2.675   4.967   2.202  1.3086 -0.3869 -2.7088
  124OSM    C1413075   2.416   4.750   2.197 -0.2543  0.6903 -0.1469
  124OSM   H14A13076   2.453   4.683   2.273  0.2288  1.2757  0.1371
  124OSM   H14B13077   2.443   4.704   2.103 -0.2905  1.7633 -0.6957
  124OSM   H14C13078   2.311   4.767   2.214  0.2194  2.4883  1.1493
  124OSM    C1313079   2.448   4.938   2.339  0.3549 -0.1826  0.0275
  124OSM   H13A13080   2.342   4.958   2.345  0.2691 -0.9721  1.4327
  124OSM   H13B13081   2.498   5.032   2.354 -0.9218  0.5198 -0.0441
  124OSM   H13C13082   2.468   4.866   2.416  0.2245 -2.3931 -1.9418
  124OSM    C1213083   2.430   4.978   2.096 -1.1553  0.1241  0.0266
  124OSM   H12A13084   2.326   4.996   2.119 -0.3632  3.0538  1.5692
  124OSM   H12B13085   2.434   4.920   2.005 -0.1506 -1.6934  1.1897
  124OSM    C1113086   2.519   5.101   2.064  0.0275 -0.1307 -0.1757
  124OSM   H11A13087   2.468   5.159   1.984  0.9382 -1.4296 -1.7374
  124OSM   H11B13088   2.614   5.059   2.024  0.6810 -0.5325  1.7601
  124OSM      P13089   2.671   5.245   2.209 -0.0986  0.0136 -0.4530
  124OSM    O1313090   2.755   5.241   2.086  0.2480  0.4464 -0.4335
  124OSM    O1413091   2.642   5.380   2.265 -0.0903 -0.1276 -0.0252
  124OSM    O1113092   2.734   5.150   2.316  0.1789 -0.5426  0.2531
  124OSM    O1213093   2.526   5.181   2.185 -0.1297  0.1395 -0.2646
  124OSM    C1S13094   2.877   5.126   2.327 -0.6111 -0.4723  0.1347
  124OSM    H1S13095   2.937   5.216   2.302 -0.3261 -0.9285 -0.8334
  124OSM    H1T13096   2.911   5.040   2.266 -2.9666 -0.4127 -1.3140
  124OSM     NF13097   3.053   5.090   2.493  0.2743 -0.5503  0.5766
  124OSM    HNF13098   3.116   5.012   2.493  0.5198 -0.3619 -0.5121
  124OSM    C2S13099   2.906   5.079   2.473 -0.3274  0.5797  1.0681
  124OSM    H2S13100   2.853   5.145   2.545 -1.1350  1.1890 -0.0768
  124OSM    C3S13101   2.855   4.931   2.486 -0.4007 -0.1491  0.1189
  124OSM    H3S13102   2.870   4.868   2.396 -2.4660 -1.2742  0.5163
  124OSM     O313103   2.711   4.929   2.493  0.1154 -0.5158 -0.7958
  124OSM    HO313104   2.688   5.010   2.447  0.7960 -0.6662 -1.4042
  124OSM    C4S13105   2.904   4.859   2.607  0.0081  0.9602  0.7166
  124OSM    H4S13106   2.858   4.900   2.699  0.4153  0.0277  1.3397
  124OSM    C5S13107   2.984   4.753   2.631 -0.3902 -0.1490  0.1675
  124OSM    H5S13108   3.053   4.727   2.550 -0.4484  0.8427 -0.2045
  124OSM    C6S13109   3.023   4.702   2.762 -0.6022 -0.0881 -0.3749
  124OSM    H6S13110   3.015   4.592   2.768  2.3596 -0.4295 -1.7886
  124OSM    H6T13111   2.951   4.737   2.839 -0.3703  1.3159 -0.7821
  124OSM    C7S13112   3.154   4.770   2.816  0.6226 -0.5593  0.2948
  124OSM    H7S13113   3.144   4.880   2.823  0.1573 -0.6045  0.3773
  124OSM    H7T13114   3.238   4.753   2.745  2.6345 -1.2070  2.7551
  124OSM    C8S13115   3.190   4.696   2.947 -0.0316  0.1638  0.2226
  124OSM    H8S13116   3.211   4.590   2.921 -1.3516  0.0179 -0.2788
  124OSM    H8T13117   3.105   4.712   3.017  1.3825  1.3918  1.6998
  124OSM    C9S13118   3.304   4.767   3.017 -0.4147  0.7301  0.2200
  124OSM    H9S13119   3.265   4.871   3.022  1.1742  1.3136  0.6117
  124OSM    H9T13120   3.401   4.771   2.964 -0.8391  1.8985 -0.4948
  124OSM   C10S13121   3.320   4.725   3.166 -0.6712 -0.0009  0.2376
  124OSM   H10S13122   3.371   4.626   3.158 -1.0866 -0.2569  0.7269
  124OSM   H10T13123   3.228   4.709   3.226 -1.0442  1.1077 -0.0321
  124OSM   C11S13124   3.415   4.829   3.233  0.0813  0.3380  0.9798
  124OSM   H11S13125   3.360   4.925   3.247 -1.4286 -0.1308 -1.4309
  124OSM   H11T13126   3.494   4.851   3.157 -0.8037 -2.0872 -0.6999
  124OSM   C12S13127   3.486   4.819   3.369  0.0504 -0.0862 -0.0136
  124OSM   H12S13128   3.521   4.919   3.403 -0.3354 -0.9301  3.0016
  124OSM   H12T13129   3.574   4.751   3.368 -0.6077 -1.0639 -4.0922
  124OSM   C13S13130   3.396   4.778   3.484  0.3060  0.6576  0.0903
  124OSM   H13S13131   3.365   4.672   3.471 -2.8142  1.3965  1.1143
  124OSM   H13T13132   3.296   4.826   3.488  0.1115  0.3599 -1.0403
  124OSM   C14S13133   3.454   4.793   3.626 -0.8682  0.4721 -0.1062
  124OSM   H14S13134   3.480   4.900   3.638  0.2044 -0.0530  2.4640
  124OSM   H14T13135   3.552   4.742   3.620 -0.7585  0.7074 -0.3330
  124OSM   C15S13136   3.363   4.740   3.732  0.6382 -0.8752 -0.6658
  124OSM   H15S13137   3.361   4.629   3.739 -1.8566 -0.8895 -1.1564
  124OSM   H15T13138   3.256   4.764   3.714  0.8128  2.6327  2.5127
  124OSM   C16S13139   3.403   4.779   3.876 -0.0261  0.0123 -0.4988
  124OSM   H16S13140   3.401   4.889   3.891 -2.3297  0.0254 -0.7807
  124OSM   H16T13141   3.510   4.751   3.884  0.1550  0.0594 -2.4957
  124OSM   C17S13142   3.310   4.724   3.981  0.4720  0.5497  0.1104
  124OSM   H17S13143   3.282   4.621   3.948  0.0848  0.9900 -0.9661
  124OSM   H17T13144   3.211   4.772   3.986 -0.7652 -1.7358 -1.4180
  124OSM   C18S13145   3.366   4.724   4.127 -0.0940  0.5000 -1.0960
  124OSM   H18S13146   3.387   4.827   4.164 -0.6525  0.4124 -0.5186
  124OSM   H18T13147   3.455   4.661   4.108 -0.2763 -0.8111  2.1767
  124OSM   H18U13148   3.287   4.681   4.192 -1.0900 -0.5047 -2.9242
  124OSM    C1F13149   3.106   5.210   2.515 -0.6207  0.3873 -0.1067
  124OSM     OF13150   3.045   5.316   2.495  0.2720 -0.1744  0.2132
  124OSM    C2F13151   3.251   5.216   2.567 -0.2400  0.0560 -0.0850
  124OSM    H2F13152   3.308   5.300   2.522  1.1045 -1.7960 -1.9590
  124OSM    H2G13153   3.298   5.119   2.542  1.6848  0.6667  1.0568
  124OSM    C3F13154   3.235   5.270   2.716  0.2571 -0.3024 -0.1838
  124OSM    H3F13155   3.156   5.348   2.720  0.9249  0.4405 -1.4597
  124OSM    H3G13156   3.329   5.312   2.757 -1.3920  2.7445  0.5654
  124OSM    C4F13157   3.188   5.170   2.826 -0.3118  0.5510 -0.9180
  124OSM    H4F13158   3.231   5.072   2.798 -1.4923 -0.5188  0.9182
  124OSM    H4G13159   3.079   5.156   2.810 -0.4084  0.0527  0.2021
  124OSM    C5F13160   3.211   5.221   2.969  0.0107 -0.4303  0.0389
  124OSM    H5F13161   3.174   5.325   2.961  2.7189  0.4458 -1.8744
  124OSM    H5G13162   3.319   5.223   2.994  0.8150  5.4231 -2.9797
  124OSM    C6F13163   3.143   5.144   3.083  0.6710  0.5165  0.4710
  124OSM    H6F13164   3.193   5.045   3.096 -1.6031 -0.5142  1.5222
  124OSM    H6G13165   3.042   5.128   3.040  1.8913  0.5961 -2.5771
  124OSM    C7F13166   3.124   5.220   3.218  0.0407  0.3432  0.0389
  124OSM    H7F13167   3.113   5.330   3.206 -2.7377  0.2169  1.2389
  124OSM    H7G13168   3.210   5.201   3.286 -1.2584  1.2976  1.9820
  124OSM    C8F13169   2.992   5.180   3.298 -0.1757 -0.0932  1.4060
  124OSM    H8F13170   2.899   5.202   3.241  1.2479  1.4825 -0.3862
  124OSM    H8G13171   2.995   5.249   3.386  0.4314 -0.5261  1.7308
  124OSM    C9F13172   2.989   5.038   3.340 -0.5503 -0.3975 -0.3274
  124OSM    H9F13173   2.931   4.964   3.283 -0.6624  0.9653 -2.0201
  124OSM   C10F13174   3.049   4.989   3.457  0.7108  0.9979 -0.1183
  124OSM   H10F13175   3.032   4.885   3.487 -0.2707  0.9463 -0.8352
  124OSM   C11F13176   3.131   5.064   3.555  0.0709 -0.6049 -0.8264
  124OSM   H11F13177   3.133   5.173   3.534 -0.8666 -0.7591 -1.7530
  124OSM   H11G13178   3.236   5.031   3.544 -0.4499 -2.9137  0.8445
  124OSM   C12F13179   3.095   5.038   3.701  0.3564  0.4116 -0.3842
  124OSM   H12F13180   3.170   5.087   3.767 -0.9493  1.9848 -0.0532
  124OSM   H12G13181   3.086   4.934   3.739  1.0020  0.4947 -0.0011
  124OSM   C13F13182   2.959   5.105   3.730 -0.0564 -0.3588  0.6502
  124OSM   H13F13183   2.874   5.035   3.715 -0.2091 -0.2439  0.9752
  124OSM   H13G13184   2.952   5.195   3.666 -1.1516  0.2779  1.6554
  124OSM   C14F13185   2.946   5.146   3.880  0.0333  0.1087  0.5637
  124OSM   H14F13186   3.032   5.213   3.903  0.5386  0.1332 -1.3515
  124OSM   H14G13187   2.957   5.060   3.950  0.6540 -1.4112 -1.3760
  124OSM   C15F13188   2.813   5.222   3.903  0.4951 -0.2243  0.0515
  124OSM   H15F13189   2.725   5.156   3.887 -1.0026  1.4241  1.2539
  124OSM   H15G13190   2.819   5.300   3.824  0.9109 -0.9112 -0.5994
  124OSM   C16F13191   2.817   5.297   4.040 -1.0347 -0.0086  0.5639
  124OSM   H16F13192   2.899   5.372   4.045 -0.9318 -0.0219 -0.7527
  124OSM   H16G13193   2.827   5.216   4.116 -0.0901 -1.6634 -1.2605
  124OSM   C17F13194   2.683   5.370   4.066 -0.2239  0.4007 -0.1063
  124OSM   H17F13195   2.603   5.293   4.055 -0.0593  0.0171  1.2867
  124OSM   H17G13196   2.672   5.448   3.987  1.9920  0.9484  0.0962
  124OSM   C18F13197   2.668   5.428   4.202 -0.7623  0.7916 -0.2205
  124OSM   H18F13198   2.751   5.502   4.209 -0.3724  0.4696 -1.2991
  124OSM   H18G13199   2.670   5.352   4.282 -2.6219  0.3776 -0.5354
  124OSM   H18H13200   2.572   5.484   4.206 -1.8758 -1.1756  1.5695
  125OSM      N13201   3.713   3.043   2.038  0.5442 -0.5850  0.3302
  125OSM    C1513202   3.837   3.029   1.958  0.5980  0.8126  0.0997
  125OSM   H15A13203   3.828   3.091   1.870 -2.9986 -1.7322 -1.4109
  125OSM   H15B13204   3.868   2.929   1.933  2.2726  0.8125  2.0455
  125OSM   H15C13205   3.917   3.073   2.015  0.8965  0.8793 -0.3644
  125OSM    C1413206   3.674   3.191   2.059  0.4218 -0.5623  0.2475
  125OSM   H14A13207   3.736   3.234   2.136  0.2692 -1.2863  0.7737
  125OSM   H14B13208   3.569   3.201   2.082  0.7502 -0.9484  1.9578
  125OSM   H14C13209   3.688   3.249   1.968 -1.8798  0.2954  0.4026
  125OSM    C1313210   3.597   2.986   1.962 -0.1901 -0.4295  0.6170
  125OSM   H13A13211   3.606   2.879   1.957  0.2411 -0.2848 -3.4869
  125OSM   H13B13212   3.594   3.034   1.865  1.1010  1.5776  1.5299
  125OSM   H13C13213   3.501   3.002   2.008  0.0510 -0.4910  1.1361
  125OSM    C1213214   3.735   2.965   2.171 -0.1429 -0.3102  0.1024
  125OSM   H12A13215   3.648   2.987   2.231 -0.2468 -1.1605  0.2613
  125OSM   H12B13216   3.827   3.005   2.211  0.9250 -0.3847 -2.2473
  125OSM    C1113217   3.757   2.811   2.163  0.6311 -0.2733 -0.8069
  125OSM   H11A13218   3.799   2.763   2.254  0.6063 -2.1834 -1.7664
  125OSM   H11B13219   3.838   2.805   2.087  2.0052  2.3063  0.4310
  125OSM      P13220   3.546   2.670   2.202 -0.0568 -0.1156 -0.2325
  125OSM    O1313221   3.406   2.708   2.168 -0.4054  0.1341  0.3058
  125OSM    O1413222   3.569   2.526   2.194  0.0199  0.2850 -0.0555
  125OSM    O1113223   3.565   2.716   2.351  0.2593  0.3028  0.5911
  125OSM    O1213224   3.639   2.745   2.114 -0.5596 -0.3809 -0.3408
  125OSM    C1S13225   3.476   2.682   2.453  0.4308 -0.4492  0.2172
  125OSM    H1S13226   3.400   2.607   2.425  0.1177 -0.2614  0.5559
  125OSM    H1T13227   3.409   2.758   2.499 -1.3803 -0.1304 -2.8382
  125OSM     NF13228   3.444   2.584   2.668  0.2861 -0.1897  0.1448
  125OSM    HNF13229   3.430   2.636   2.751 -2.3746 -3.7106  2.0228
  125OSM    C2S13230   3.549   2.621   2.577  0.3909 -0.7020  0.3331
  125OSM    H2S13231   3.600   2.525   2.550 -1.0190 -1.1893 -0.6489
  125OSM    C3S13232   3.653   2.726   2.626  0.2669  0.2334  1.1296
  125OSM    H3S13233   3.608   2.823   2.658 -2.7502 -0.3191 -1.2110
  125OSM     O313234   3.750   2.769   2.534 -0.0818 -0.7465  0.4455
  125OSM    HO313235   3.712   2.756   2.447 -0.7032  0.1425  0.5752
  125OSM    C4S13236   3.735   2.660   2.732  0.5813  0.3915 -0.3251
  125OSM    H4S13237   3.809   2.587   2.694  0.6636 -1.0026  2.4117
  125OSM    C5S13238   3.719   2.681   2.867  0.1933  0.4085 -0.7026
  125OSM    H5S13239   3.668   2.766   2.915 -1.0024 -0.9226  0.4164
  125OSM    C6S13240   3.809   2.608   2.965 -0.0992 -0.5999  0.7085
  125OSM    H6S13241   3.885   2.679   3.004 -0.5502 -0.4343  1.2905
  125OSM    H6T13242   3.871   2.529   2.918  0.4269  0.9896 -1.3439
  125OSM    C7S13243   3.722   2.552   3.084 -0.4018  0.0895 -0.8236
  125OSM    H7S13244   3.642   2.489   3.042 -1.0174  0.5554 -0.3604
  125OSM    H7T13245   3.671   2.638   3.133 -0.3028 -0.6347  0.5618
  125OSM    C8S13246   3.804   2.475   3.195 -0.0261  0.4283 -0.3202
  125OSM    H8S13247   3.887   2.539   3.231  0.1221 -0.3300  0.7067
  125OSM    H8T13248   3.848   2.392   3.137 -1.1423 -0.1880 -0.3048
  125OSM    C9S13249   3.717   2.410   3.299 -0.4989 -0.2202  0.1832
  125OSM    H9S13250   3.629   2.361   3.252 -1.3178  0.4146  1.0613
  125OSM    H9T13251   3.670   2.489   3.361 -1.6844 -1.2059  0.5522
  125OSM   C10S13252   3.791   2.309   3.391 -0.2885  0.1693  0.1422
  125OSM   H10S13253   3.782   2.207   3.348  0.8147  0.5148 -0.9195
  125OSM   H10T13254   3.730   2.303   3.485  0.6324  0.4159  0.7609
  125OSM   C11S13255   3.941   2.334   3.419  0.2386 -0.1038 -0.0692
  125OSM   H11S13256   3.942   2.438   3.459  1.0423  0.6558 -1.9879
  125OSM   H11T13257   3.992   2.322   3.320 -1.2419  0.8611 -0.9700
  125OSM   C12S13258   3.996   2.242   3.519  0.4534 -0.4564  0.4629
  125OSM   H12S13259   3.994   2.143   3.469  0.2936  0.5293 -1.5443
  125OSM   H12T13260   3.939   2.243   3.614  0.6819  1.9354  0.6083
  125OSM   C13S13261   4.142   2.269   3.560  0.5695  0.2310  0.5311
  125OSM   H13S13262   4.215   2.269   3.475  0.9982  0.6891  0.8947
  125OSM   H13T13263   4.167   2.181   3.623 -1.7128 -0.4380  0.5617
  125OSM   C14S13264   4.163   2.391   3.646 -0.4264  0.0699 -0.0409
  125OSM   H14S13265   4.106   2.371   3.740 -0.2454 -3.2645 -0.5641
  125OSM   H14T13266   4.126   2.472   3.580 -0.3679 -0.9120 -1.2976
  125OSM   C15S13267   4.301   2.424   3.691 -0.2044  0.3476 -0.2431
  125OSM   H15S13268   4.317   2.533   3.707  0.1962 -0.0506  2.1924
  125OSM   H15T13269   4.371   2.394   3.611 -0.1589 -1.8948  0.5969
  125OSM   C16S13270   4.337   2.360   3.829  0.9123  0.4603  0.5688
  125OSM   H16S13271   4.337   2.251   3.809  0.3174  0.2769  1.5273
  125OSM   H16T13272   4.259   2.380   3.906  1.3263 -0.6957  1.3067
  125OSM   C17S13273   4.474   2.399   3.891 -0.0961  0.1183  0.3649
  125OSM   H17S13274   4.488   2.508   3.876 -0.9082  0.1126 -0.4769
  125OSM   H17T13275   4.558   2.347   3.840 -0.1720  0.8204 -0.4935
  125OSM   C18S13276   4.487   2.376   4.043  0.1750 -0.2479  0.2633
  125OSM   H18S13277   4.407   2.426   4.102 -1.0059 -0.8947 -0.7570
  125OSM   H18T13278   4.580   2.422   4.084  1.3708 -1.0872 -1.4393
  125OSM   H18U13279   4.504   2.271   4.073  1.4955  0.4724  2.0677
  125OSM    C1F13280   3.350   2.491   2.650  1.0300 -0.2147 -0.1959
  125OSM     OF13281   3.359   2.411   2.553 -0.4135 -0.4064  0.4252
  125OSM    C2F13282   3.228   2.483   2.742  0.2291 -0.3592  0.2643
  125OSM    H2F13283   3.248   2.403   2.816 -2.4214 -0.7253  0.6100
  125OSM    H2G13284   3.137   2.462   2.683 -0.1559 -1.0891  1.1186
  125OSM    C3F13285   3.196   2.621   2.808  0.8331 -0.3391  0.2115
  125OSM    H3F13286   3.091   2.601   2.838  0.5668  0.3603 -0.2332
  125OSM    H3G13287   3.198   2.707   2.737 -1.7345 -0.9220 -0.6216
  125OSM    C4F13288   3.273   2.650   2.939  0.4381  0.2534  0.3909
  125OSM    H4F13289   3.376   2.676   2.904 -0.8948  4.1497 -0.8746
  125OSM    H4G13290   3.274   2.549   2.986  1.5427  0.2477  0.3662
  125OSM    C5F13291   3.222   2.761   3.024 -0.3029 -0.6286  0.0902
  125OSM    H5F13292   3.120   2.729   3.055  0.4894 -1.9907  1.3171
  125OSM    H5G13293   3.223   2.851   2.958 -0.1572 -0.5214  0.2369
  125OSM    C6F13294   3.301   2.794   3.158 -0.1190 -0.6553  0.3234
  125OSM    H6F13295   3.281   2.897   3.195  0.2722 -0.4859  0.0698
  125OSM    H6G13296   3.409   2.785   3.134 -0.7560 -1.7263 -2.2243
  125OSM    C7F13297   3.266   2.697   3.271 -0.1426  0.2241 -0.1086
  125OSM    H7F13298   3.262   2.600   3.217  0.8443  0.2481 -0.2415
  125OSM    H7G13299   3.167   2.718   3.316  0.4586 -1.7259  2.2153
  125OSM    C8F13300   3.376   2.693   3.378 -0.3823  0.0855  0.3323
  125OSM    H8F13301   3.401   2.797   3.407  2.9375  0.0083 -1.9912
  125OSM    H8G13302   3.467   2.652   3.329 -0.3446  1.1040 -0.4832
  125OSM    C9F13303   3.340   2.619   3.500  0.5377 -0.2620  0.2719
  125OSM    H9F13304   3.403   2.529   3.503  0.7559 -0.1381 -0.4362
  125OSM   C10F13305   3.258   2.666   3.591 -0.0614  0.0091 -0.8441
  125OSM   H10F13306   3.251   2.605   3.682 -0.0923 -1.8542 -2.0717
  125OSM   C11F13307   3.188   2.799   3.594  0.2889 -0.3163 -0.1719
  125OSM   H11F13308   3.095   2.794   3.654  0.9903 -0.2684  0.9492
  125OSM   H11G13309   3.163   2.824   3.489  1.8585 -2.1074 -0.9864
  125OSM   C12F13310   3.267   2.913   3.660 -0.3118  0.2907 -0.4060
  125OSM   H12F13311   3.321   2.969   3.581  1.1151 -1.3665 -0.6389
  125OSM   H12G13312   3.356   2.885   3.721 -1.5159 -1.3718  0.6329
  125OSM   C13F13313   3.185   3.015   3.742  0.4981 -0.5166  0.2434
  125OSM   H13F13314   3.137   2.967   3.829 -2.9825  1.7223 -0.3453
  125OSM   H13G13315   3.111   3.058   3.671  1.7344 -0.5299 -1.0876
  125OSM   C14F13316   3.274   3.133   3.781 -0.1768  0.3266 -0.6392
  125OSM   H14F13317   3.376   3.089   3.776 -0.6498 -0.8567 -0.0927
  125OSM   H14G13318   3.248   3.155   3.887 -0.5925  1.3380 -0.9488
  125OSM   C15F13319   3.252   3.255   3.696 -0.5509 -0.0948 -0.1869
  125OSM   H15F13320   3.144   3.283   3.695 -0.9666 -1.6541 -2.1330
  125OSM   H15G13321   3.282   3.228   3.592  1.2086  2.7004 -0.4509
  125OSM   C16F13322   3.336   3.378   3.743 -0.6532 -0.3524  0.5938
  125OSM   H16F13323   3.443   3.375   3.711 -0.9870 -1.1407 -0.4663
  125OSM   H16G13324   3.338   3.398   3.852  2.3255  0.5793  0.4297
  125OSM   C17F13325   3.280   3.500   3.670 -0.2481 -0.0186  0.0682
  125OSM   H17F13326   3.206   3.467   3.595  1.6420 -2.1348 -0.8940
  125OSM   H17G13327   3.368   3.544   3.619 -0.1690  0.1087  0.3108
  125OSM   C18F13328   3.215   3.592   3.762  0.0771  0.1063  0.2704
  125OSM   H18F13329   3.254   3.594   3.866  3.9701  2.5828 -1.1358
  125OSM   H18G13330   3.113   3.551   3.780  0.5964 -2.5704 -2.4513
  125OSM   H18H13331   3.216   3.697   3.727 -2.3172  0.0867  0.0930
  126OSM      N13332   1.859   2.602   2.022  0.6121 -0.0858  0.2450
  126OSM    C1513333   1.813   2.741   1.982 -0.6456  0.0537  0.0790
  126OSM   H15A13334   1.872   2.778   1.900 -1.5001 -2.4683 -1.7295
  126OSM   H15B13335   1.815   2.808   2.067 -0.6568 -0.6743  0.6501
  126OSM   H15C13336   1.710   2.739   1.950 -0.7335  0.7261  0.2921
  126OSM    C1413337   1.769   2.549   2.128  0.9844 -0.4871  0.1289
  126OSM   H14A13338   1.748   2.625   2.202  0.0213 -0.4993 -0.1284
  126OSM   H14B13339   1.802   2.463   2.184  0.9602  1.3407  3.0893
  126OSM   H14C13340   1.672   2.532   2.084  0.6624  0.5814  0.3920
  126OSM    C1313341   1.842   2.519   1.904  0.6151  0.9293 -0.0132
  126OSM   H13A13342   1.741   2.512   1.867  1.1279 -0.0621 -1.2947
  126OSM   H13B13343   1.883   2.421   1.924 -0.3799  0.2020 -1.4380
  126OSM   H13C13344   1.908   2.548   1.823 -0.2893  1.2343 -0.6591
  126OSM    C1213345   2.002   2.611   2.075  0.6492  0.4515  0.4830
  126OSM   H12A13346   2.004   2.638   2.179 -0.8029 -0.7622  0.8311
  126OSM   H12B13347   2.057   2.692   2.028  1.7524 -1.1795 -1.0817
  126OSM    C1113348   2.093   2.488   2.064  0.1515 -0.2530 -0.6629
  126OSM   H11A13349   2.184   2.512   2.123 -0.2794 -1.4684  0.5265
  126OSM   H11B13350   2.118   2.485   1.956  0.3358  0.7477 -0.6540
  126OSM      P13351   2.047   2.300   2.248  0.1391 -0.1850  0.0903
  126OSM    O1313352   1.968   2.176   2.242 -0.1187  0.7264 -0.0908
  126OSM    O1413353   2.192   2.276   2.273  0.2224  0.0048  0.4237
  126OSM    O1113354   1.984   2.399   2.350  0.2582 -0.3905  0.0148
  126OSM    O1213355   2.027   2.369   2.100 -0.1643 -0.0496  0.4527
  126OSM    C1S13356   2.053   2.507   2.421  0.3861 -0.9008 -0.8037
  126OSM    H1S13357   2.041   2.604   2.368  1.9600  0.6399  1.5671
  126OSM    H1T13358   2.163   2.493   2.425  0.5466  0.6116  0.7952
  126OSM     NF13359   2.093   2.625   2.632 -0.3825  0.1103 -0.3048
  126OSM    HNF13360   2.162   2.590   2.694 -0.8366  0.6508  0.5313
  126OSM    C2S13361   2.008   2.524   2.573 -0.9260 -0.8125 -0.1175
  126OSM    H2S13362   1.900   2.550   2.576 -0.7326 -0.1699  2.0390
  126OSM    C3S13363   2.026   2.380   2.631 -0.1222  0.4355 -0.6052
  126OSM    H3S13364   2.128   2.345   2.602 -0.4998 -2.6235  1.5377
  126OSM     O313365   1.931   2.285   2.580 -0.1831 -0.2290 -0.1436
  126OSM    HO313366   1.925   2.308   2.488  0.0278  0.7786  0.0906
  126OSM    C4S13367   2.011   2.374   2.786  0.1295 -0.6339 -0.5816
  126OSM    H4S13368   2.094   2.413   2.848 -0.5556  0.6334 -0.4355
  126OSM    C5S13369   1.912   2.330   2.860 -0.2237 -0.0548 -0.1044
  126OSM    H5S13370   1.822   2.291   2.810 -1.1512  1.9489 -0.0919
  126OSM    C6S13371   1.904   2.330   3.009 -0.4724  0.1744 -0.0736
  126OSM    H6S13372   1.888   2.224   3.037 -1.4865  0.0691 -1.0296
  126OSM    H6T13373   1.814   2.385   3.043  1.4144  2.7960  0.8917
  126OSM    C7S13374   2.022   2.384   3.092 -0.4505 -0.1193 -0.3214
  126OSM    H7S13375   2.048   2.489   3.064  1.7163 -1.3116 -2.9884
  126OSM    H7T13376   2.118   2.335   3.063 -0.8584 -0.9476 -0.2797
  126OSM    C8S13377   2.000   2.343   3.240 -0.2371  0.1474  0.4287
  126OSM    H8S13378   1.997   2.233   3.252  0.6069  0.0694 -0.0716
  126OSM    H8T13379   1.909   2.398   3.272  0.8691  2.0464  0.4234
  126OSM    C9S13380   2.116   2.398   3.333  0.3232 -0.2668  0.5943
  126OSM    H9S13381   2.125   2.502   3.294  0.0385 -1.8319 -3.9580
  126OSM    H9T13382   2.207   2.340   3.306  0.1455 -0.0827 -0.3951
  126OSM   C10S13383   2.087   2.415   3.478  0.3488  0.8661  1.0591
  126OSM   H10S13384   2.067   2.318   3.529 -0.7175  0.7050  0.3614
  126OSM   H10T13385   1.987   2.464   3.485  1.1072  2.5457  0.4930
  126OSM   C11S13386   2.202   2.494   3.544  0.0302 -0.7631 -0.2434
  126OSM   H11S13387   2.280   2.531   3.474 -0.9986 -1.4693 -1.7879
  126OSM   H11T13388   2.255   2.439   3.624  2.4823  1.1794 -0.4741
  126OSM   C12S13389   2.149   2.615   3.622  0.5051  0.7367  0.5682
  126OSM   H12S13390   2.092   2.571   3.707 -0.1093 -0.6010 -0.5298
  126OSM   H12T13391   2.077   2.672   3.561  0.8958  0.6558  0.0320
  126OSM   C13S13392   2.265   2.690   3.693 -0.3732 -0.6819  0.1280
  126OSM   H13S13393   2.309   2.748   3.608 -2.6562  1.0363  0.0814
  126OSM   H13T13394   2.345   2.620   3.725  1.2725  0.7424 -0.7470
  126OSM   C14S13395   2.220   2.787   3.799  0.8617  0.3322 -0.7621
  126OSM   H14S13396   2.161   2.730   3.874  1.8525  0.0135 -0.2149
  126OSM   H14T13397   2.156   2.868   3.758 -1.8027 -1.9650 -1.2617
  126OSM   C15S13398   2.334   2.839   3.888  0.7670 -0.1224  0.3046
  126OSM   H15S13399   2.395   2.897   3.816 -2.2292  0.5085 -1.8357
  126OSM   H15T13400   2.394   2.756   3.930 -0.6150 -0.0398  2.5203
  126OSM   C16S13401   2.285   2.919   4.012  0.5737  0.2007  0.4376
  126OSM   H16S13402   2.247   2.846   4.085  3.4014 -3.1837 -1.3584
  126OSM   H16T13403   2.200   2.985   3.983  1.2198  0.6635 -0.4595
  126OSM   C17S13404   2.394   3.012   4.062  0.0976 -0.2716  0.5433
  126OSM   H17S13405   2.360   3.099   4.123  0.2204  0.7252 -0.7706
  126OSM   H17T13406   2.432   3.066   3.973 -1.1281 -2.2650 -1.2230
  126OSM   C18S13407   2.516   2.945   4.125  0.4703  0.3168 -0.4627
  126OSM   H18S13408   2.599   2.935   4.053  0.4778  1.5335 -0.6305
  126OSM   H18T13409   2.497   2.845   4.168  0.9602  0.3083 -0.2664
  126OSM   H18U13410   2.553   3.009   4.208  0.1151  1.0537 -0.8655
  126OSM    C1F13411   2.068   2.761   2.620  0.1126 -0.1282  0.6417
  126OSM     OF13412   1.962   2.802   2.572 -0.0386  0.1886  0.4133
  126OSM    C2F13413   2.176   2.857   2.665 -0.0155 -0.5499  0.5526
  126OSM    H2F13414   2.185   2.938   2.589 -1.6636 -0.4282  0.4746
  126OSM    H2G13415   2.261   2.787   2.677 -1.3632 -2.5502 -1.2571
  126OSM    C3F13416   2.144   2.913   2.806 -1.0068  0.0512 -0.2981
  126OSM    H3F13417   2.120   2.829   2.875  2.5715 -0.9603 -0.1684
  126OSM    H3G13418   2.058   2.982   2.816 -2.3784 -1.7271  0.3771
  126OSM    C4F13419   2.260   3.003   2.851 -0.7808  0.1276  0.2643
  126OSM    H4F13420   2.261   3.082   2.772  0.0264 -0.6945 -0.5679
  126OSM    H4G13421   2.347   2.933   2.857 -0.3386  0.6991  0.4967
  126OSM    C5F13422   2.240   3.072   2.984  0.5220  0.3949  0.0982
  126OSM    H5F13423   2.339   3.076   3.034 -0.4776  1.7784  2.0431
  126OSM    H5G13424   2.172   3.008   3.046  2.2595  0.2706  1.9259
  126OSM    C6F13425   2.186   3.213   2.990  0.3595 -0.4941  0.0062
  126OSM    H6F13426   2.099   3.227   2.922 -1.4639 -2.7590  1.8064
  126OSM    H6G13427   2.266   3.285   2.962  0.1780 -0.1565  0.3528
  126OSM    C7F13428   2.134   3.251   3.128 -1.0137  0.2722  0.0341
  126OSM    H7F13429   2.126   3.361   3.145 -2.7493 -0.0226  1.3505
  126OSM    H7G13430   2.198   3.206   3.207 -0.3216 -1.9662 -1.7498
  126OSM    C8F13431   1.991   3.199   3.152  0.1790 -0.0536  0.4157
  126OSM    H8F13432   1.963   3.218   3.258  1.6837  1.3985  0.5623
  126OSM    H8G13433   2.000   3.090   3.129  2.2189  0.1450  0.2168
  126OSM    C9F13434   1.882   3.253   3.061  0.0234 -0.3309 -0.0335
  126OSM    H9F13435   1.887   3.228   2.954 -0.9257  2.6423 -0.8456
  126OSM   C10F13436   1.771   3.320   3.096  0.5206  0.1116  0.5312
  126OSM   H10F13437   1.698   3.341   3.016  1.1504 -0.6708 -0.2703
  126OSM   C11F13438   1.730   3.357   3.237 -0.9895  0.4290 -0.2298
  126OSM   H11F13439   1.666   3.448   3.233  0.7379  1.6965  0.2706
  126OSM   H11G13440   1.818   3.373   3.303 -1.2041  1.5361 -0.2067
  126OSM   C12F13441   1.659   3.239   3.301  0.1400 -0.1999  0.6196
  126OSM   H12F13442   1.739   3.163   3.317  1.7266  1.2737 -0.1800
  126OSM   H12G13443   1.586   3.199   3.227 -0.5942 -0.2585  1.3584
  126OSM   C13F13444   1.584   3.270   3.433 -0.0014 -0.1648 -0.2705
  126OSM   H13F13445   1.519   3.190   3.475  0.0871 -0.2596 -0.3152
  126OSM   H13G13446   1.510   3.351   3.414  0.9049  0.6490 -0.3882
  126OSM   C14F13447   1.681   3.310   3.542  0.2266 -0.1723  0.5466
  126OSM   H14F13448   1.739   3.400   3.512 -0.5473 -0.2298 -1.1416
  126OSM   H14G13449   1.751   3.225   3.550  0.8409  0.4188  1.6606
  126OSM   C15F13450   1.629   3.330   3.684  0.2318  1.1348 -0.0411
  126OSM   H15F13451   1.543   3.263   3.705  1.5815 -0.6928 -0.2159
  126OSM   H15G13452   1.599   3.437   3.687  2.3377  1.7898 -1.7293
  126OSM   C16F13453   1.743   3.312   3.779  0.7024  0.1828  0.4248
  126OSM   H16F13454   1.828   3.378   3.752  0.3440 -0.2388 -1.7858
  126OSM   H16G13455   1.783   3.208   3.785  1.0948  0.2660 -0.6130
  126OSM   C17F13456   1.690   3.334   3.925 -0.1863 -0.5809 -1.0271
  126OSM   H17F13457   1.778   3.315   3.990 -0.3739 -0.4302 -0.7303
  126OSM   H17G13458   1.614   3.258   3.955 -1.3086  1.1230  0.5560
  126OSM   C18F13459   1.645   3.479   3.955 -0.4523 -0.6423 -0.4977
  126OSM   H18F13460   1.637   3.501   4.063  0.4048  0.2209 -0.6092
  126OSM   H18G13461   1.547   3.494   3.904  0.2298  0.8410 -1.4004
  126OSM   H18H13462   1.704   3.564   3.915 -1.9143 -0.2145 -1.7992
  127OSM      N13463   1.818   4.797   1.941 -0.2763  0.1080 -0.1854
  127OSM    C1513464   1.764   4.661   1.974  0.2076 -0.2276  0.6093
  127OSM   H15A13465   1.797   4.591   1.899  1.8590  0.5301  0.6207
  127OSM   H15B13466   1.657   4.675   1.978  0.5244  2.3331  0.7386
  127OSM   H15C13467   1.799   4.623   2.069  0.2950  0.8532  1.0152
  127OSM    C1413468   1.969   4.784   1.937 -0.4519  0.4332  0.5020
  127OSM   H14A13469   2.002   4.751   2.034  0.2175  1.7019  0.7168
  127OSM   H14B13470   2.017   4.880   1.920 -0.5237  0.3037 -0.4464
  127OSM   H14C13471   2.018   4.715   1.870  0.1018  1.6237 -0.3428
  127OSM    C1313472   1.772   4.863   1.812 -1.1251 -0.2547  0.1524
  127OSM   H13A13473   1.670   4.830   1.801 -1.2846  0.3991 -0.2977
  127OSM   H13B13474   1.830   4.819   1.732  1.2447  2.5659  0.2513
  127OSM   H13C13475   1.783   4.970   1.814 -0.0073 -0.3350 -0.9208
  127OSM    C1213476   1.773   4.887   2.059 -0.4222 -0.3105 -0.4759
  127OSM   H12A13477   1.665   4.896   2.064 -0.2533  0.7001  1.5098
  127OSM   H12B13478   1.814   4.985   2.045 -2.6662  0.5139 -1.6122
  127OSM    C1113479   1.807   4.852   2.212  0.4584  0.4000  0.3547
  127OSM   H11A13480   1.739   4.765   2.228  0.1577  0.6105  0.2407
  127OSM   H11B13481   1.766   4.937   2.271  0.8537  1.1592 -0.4654
  127OSM      P13482   2.059   4.927   2.261 -0.1267 -0.0755  0.1230
  127OSM    O1313483   2.146   4.880   2.366 -0.3140 -0.4903  0.0622
  127OSM    O1413484   2.114   4.978   2.133  0.8230 -0.1021 -0.0068
  127OSM    O1113485   1.986   5.054   2.330  0.2838 -0.0441  0.6918
  127OSM    O1213486   1.947   4.816   2.234  0.1001 -0.2654 -0.2906
  127OSM    C1S13487   2.060   5.157   2.395  0.1116  0.0821  0.0123
  127OSM    H1S13488   2.033   5.255   2.351 -0.9015 -0.3842 -0.4111
  127OSM    H1T13489   2.170   5.149   2.379 -0.1636 -1.3725 -1.2994
  127OSM     NF13490   2.169   5.094   2.613  0.3981  0.2381  0.2155
  127OSM    HNF13491   2.156   5.001   2.648  1.4697 -0.0599 -0.1583
  127OSM    C2S13492   2.045   5.156   2.549 -0.1744  0.3007  0.3240
  127OSM    H2S13493   2.045   5.262   2.583 -0.8633  0.1203  0.9097
  127OSM    C3S13494   1.909   5.086   2.585 -0.4731 -0.0530 -0.4062
  127OSM    H3S13495   1.908   4.978   2.556  0.0037 -0.4184  0.9211
  127OSM     O313496   1.799   5.156   2.531 -0.5477  0.5035 -0.6451
  127OSM    HO313497   1.844   5.227   2.485  0.1251  0.5477  0.0558
  127OSM    C4S13498   1.907   5.067   2.736  0.3327 -0.5105 -0.0254
  127OSM    H4S13499   1.905   4.963   2.771 -2.9505 -0.2498  0.7579
  127OSM    C5S13500   1.884   5.160   2.829  0.4418 -0.5954 -0.0222
  127OSM    H5S13501   1.870   5.264   2.797  2.7300  0.8112  3.1833
  127OSM    C6S13502   1.877   5.138   2.978 -0.4225  0.1480 -0.5558
  127OSM    H6S13503   1.817   5.046   2.994 -1.0259  0.6081 -0.1613
  127OSM    H6T13504   1.826   5.227   3.022  0.6655  1.4447 -1.8528
  127OSM    C7S13505   2.021   5.113   3.031  0.5971  0.7466 -0.1176
  127OSM    H7S13506   2.067   5.032   2.970 -1.4076 -0.4675 -0.0496
  127OSM    H7T13507   2.023   5.080   3.137  0.3393 -1.2698 -0.7207
  127OSM    C8S13508   2.110   5.237   3.027 -0.0586  0.0893 -0.2143
  127OSM    H8S13509   2.056   5.320   3.078 -0.9999 -1.6945  1.7342
  127OSM    H8T13510   2.139   5.259   2.922 -0.9496 -2.6489 -1.0891
  127OSM    C9S13511   2.239   5.221   3.114  0.9935 -0.5340  0.2834
  127OSM    H9S13512   2.308   5.151   3.062  1.3869 -2.4649  3.2847
  127OSM    H9T13513   2.220   5.194   3.220 -1.7803 -0.4859 -0.1710
  127OSM   C10S13514   2.327   5.346   3.111 -0.0187 -0.4066 -0.4623
  127OSM   H10S13515   2.325   5.387   3.008  0.0149 -0.1801 -0.3730
  127OSM   H10T13516   2.424   5.301   3.141 -0.2223  0.6621  1.9084
  127OSM   C11S13517   2.264   5.450   3.201  0.2739 -0.5533  0.1733
  127OSM   H11S13518   2.231   5.400   3.294  2.2385 -0.1700  1.0999
  127OSM   H11T13519   2.187   5.511   3.148 -0.3811  0.6674  2.4767
  127OSM   C12S13520   2.367   5.553   3.255 -0.0747 -0.1983 -0.1282
  127OSM   H12S13521   2.399   5.617   3.170 -0.0281  0.6915  0.5552
  127OSM   H12T13522   2.456   5.488   3.272  0.3853  0.8755  1.6337
  127OSM   C13S13523   2.332   5.640   3.370  0.3425 -0.1281 -0.2869
  127OSM   H13S13524   2.425   5.698   3.391 -1.0825  1.6721  1.1770
  127OSM   H13T13525   2.305   5.571   3.453  1.9510  0.5752  0.8680
  127OSM   C14S13526   2.217   5.736   3.346  0.0908  0.3233  0.3435
  127OSM   H14S13527   2.128   5.672   3.327  1.0616 -1.0311  0.2027
  127OSM   H14T13528   2.244   5.787   3.251 -1.2418 -1.0108 -0.7743
  127OSM   C15S13529   2.202   5.839   3.463 -0.4609 -0.1350 -0.1383
  127OSM   H15S13530   2.114   5.900   3.432 -0.4117  0.5787  1.1062
  127OSM   H15T13531   2.285   5.912   3.474 -0.2674  0.3696 -4.2186
  127OSM   C16S13532   2.169   5.765   3.592  0.0243 -0.6192 -0.5767
  127OSM   H16S13533   2.261   5.738   3.649 -0.9052  0.7139  1.6021
  127OSM   H16T13534   2.112   5.671   3.579  0.0779 -0.9731  1.6094
  127OSM   C17S13535   2.092   5.853   3.701  0.5124  0.0630  0.1182
  127OSM   H17S13536   2.085   5.795   3.796 -1.6651 -1.2800 -0.8242
  127OSM   H17T13537   1.988   5.880   3.673  0.2159  0.8613  1.8906
  127OSM   C18S13538   2.154   5.990   3.720  0.1504 -0.8396 -0.1247
  127OSM   H18S13539   2.086   6.048   3.785 -0.2460  1.8577 -2.8289
  127OSM   H18T13540   2.165   6.036   3.620  0.8812 -2.6987 -0.9163
  127OSM   H18U13541   2.259   5.987   3.755  0.7048  1.3768 -1.5044
  127OSM    C1F13542   2.284   5.160   2.620  0.2430  0.3733 -0.1491
  127OSM     OF13543   2.294   5.269   2.563 -0.3516  0.2418 -0.0237
  127OSM    C2F13544   2.382   5.100   2.707  0.0880  0.0149 -0.7845
  127OSM    H2F13545   2.389   4.993   2.678 -1.1700 -0.0630 -0.8448
  127OSM    H2G13546   2.339   5.104   2.810  2.1895  0.7780  0.0991
  127OSM    C3F13547   2.514   5.161   2.692 -0.2647  0.4149 -0.5998
  127OSM    H3F13548   2.517   5.268   2.721  0.6954  0.6115 -1.4094
  127OSM    H3G13549   2.546   5.149   2.586 -2.7320  0.5811 -1.4137
  127OSM    C4F13550   2.625   5.089   2.776 -0.5805  0.2270 -0.1775
  127OSM    H4F13551   2.729   5.117   2.748  0.0279 -0.1339  1.6312
  127OSM    H4G13552   2.619   4.979   2.762 -2.0267  0.5249 -2.1084
  127OSM    C5F13553   2.629   5.112   2.927 -0.1743 -0.1413  0.0359
  127OSM    H5F13554   2.529   5.118   2.974 -0.6349 -1.2092 -0.7885
  127OSM    H5G13555   2.657   5.219   2.942 -2.7641  0.3262  1.9049
  127OSM    C6F13556   2.711   5.012   3.005 -0.4105  0.3075 -0.5430
  127OSM    H6F13557   2.792   5.060   3.063 -0.2327  0.4052 -0.8671
  127OSM    H6G13558   2.758   4.938   2.936  0.3775  1.3008 -1.1011
  127OSM    C7F13559   2.623   4.925   3.094 -0.2213  0.0254  0.1425
  127OSM    H7F13560   2.536   4.887   3.037  0.2385 -0.8178 -0.0091
  127OSM    H7G13561   2.585   5.003   3.163 -0.2391  0.3216 -0.2023
  127OSM    C8F13562   2.691   4.813   3.160 -0.4035 -0.2587 -1.2991
  127OSM    H8F13563   2.784   4.843   3.212 -0.3788 -1.4066 -0.6569
  127OSM    H8G13564   2.719   4.739   3.082  0.6897  0.6663 -1.7870
  127OSM    C9F13565   2.596   4.762   3.265  0.5245 -0.1376  0.2191
  127OSM    H9F13566   2.545   4.667   3.241  0.8616  0.1461 -1.7657
  127OSM   C10F13567   2.579   4.818   3.383 -0.5885  0.2408 -0.1682
  127OSM   H10F13568   2.526   4.765   3.463  0.1502 -1.3741 -0.7474
  127OSM   C11F13569   2.654   4.939   3.432 -0.1534 -0.2551  0.0216
  127OSM   H11F13570   2.703   5.004   3.356  0.0338  0.0426  0.3932
  127OSM   H11G13571   2.742   4.898   3.487  0.4793  0.8836 -0.1172
  127OSM   C12F13572   2.578   5.038   3.514 -0.2455  0.0868 -0.0580
  127OSM   H12F13573   2.654   5.095   3.571  0.9759 -0.7512 -0.8330
  127OSM   H12G13574   2.520   4.980   3.590 -0.1679 -0.0572 -0.1092
  127OSM   C13F13575   2.494   5.144   3.442 -0.7047 -0.8867 -0.3991
  127OSM   H13F13576   2.402   5.093   3.407 -2.1756  1.8879 -0.7416
  127OSM   H13G13577   2.551   5.168   3.350  1.5018 -1.0965  0.8821
  127OSM   C14F13578   2.469   5.272   3.517  0.4458 -0.2409 -0.2778
  127OSM   H14F13579   2.435   5.354   3.451 -0.7506 -1.4569 -1.2001
  127OSM   H14G13580   2.561   5.315   3.562  0.4387  2.1986 -2.4779
  127OSM   C15F13581   2.364   5.258   3.631 -0.3718 -0.4261  0.0212
  127OSM   H15F13582   2.369   5.350   3.694 -2.5167  0.3395 -0.8871
  127OSM   H15G13583   2.383   5.170   3.696  0.1409 -1.4146 -1.4744
  127OSM   C16F13584   2.227   5.252   3.570  0.2433 -0.1737  0.8952
  127OSM   H16F13585   2.236   5.177   3.489  0.8479  0.3259  0.5034
  127OSM   H16G13586   2.212   5.350   3.520 -1.3825 -0.1749  1.3214
  127OSM   C17F13587   2.100   5.242   3.657 -0.6491  0.4465 -0.7201
  127OSM   H17F13588   2.105   5.332   3.722  0.9887  0.1423 -0.4049
  127OSM   H17G13589   2.093   5.149   3.718  1.9394  0.2133 -0.6919
  127OSM   C18F13590   1.968   5.228   3.579 -0.3793  0.1132  0.0970
  127OSM   H18F13591   1.876   5.246   3.639 -0.5537 -1.0817  0.2013
  127OSM   H18G13592   1.960   5.141   3.510 -1.2689 -1.3626  2.0137
  127OSM   H18H13593   1.958   5.303   3.497  1.7458 -0.5920 -0.8212
  128OSM      N13594   1.335   4.113   2.135 -0.2276  0.2992  0.4358
  128OSM    C1513595   1.213   4.049   2.189 -0.2106  0.0025  0.1766
  128OSM   H15A13596   1.245   3.971   2.257 -0.2599  0.5969  0.8934
  128OSM   H15B13597   1.153   4.006   2.111  2.0499 -1.1634 -0.9619
  128OSM   H15C13598   1.157   4.123   2.245 -0.7439  0.7417 -1.3090
  128OSM    C1413599   1.414   4.009   2.054 -0.4675  0.4902  0.4645
  128OSM   H14A13600   1.460   3.939   2.123 -1.2926  0.4563  0.9843
  128OSM   H14B13601   1.479   4.072   1.995  0.8579 -1.2358  0.0425
  128OSM   H14C13602   1.346   3.958   1.988  1.2535  2.2192 -2.7898
  128OSM    C1313603   1.294   4.218   2.046  0.5749  0.1472  0.4193
  128OSM   H13A13604   1.375   4.259   1.987  1.3414 -0.3217  1.1328
  128OSM   H13B13605   1.261   4.299   2.110  0.6663  0.7223 -0.2599
  128OSM   H13C13606   1.214   4.187   1.980 -0.9839 -2.1313  3.2592
  128OSM    C1213607   1.415   4.173   2.248 -0.4300 -0.1145 -0.5216
  128OSM   H12A13608   1.340   4.227   2.304 -0.1079 -0.2018  0.0009
  128OSM   H12B13609   1.478   4.250   2.206  2.0533 -0.2669  2.7782
  128OSM    C1113610   1.505   4.079   2.335 -0.1703  0.4682 -0.3305
  128OSM   H11A13611   1.444   3.990   2.360  0.5985  0.1743  0.5250
  128OSM   H11B13612   1.521   4.133   2.431  0.5584 -0.3884  0.0380
  128OSM      P13613   1.728   3.947   2.345 -0.3876  0.3250 -0.0313
  128OSM    O1313614   1.638   3.844   2.407 -0.2587  0.7695 -0.2582
  128OSM    O1413615   1.828   3.906   2.243 -0.0156 -0.5945  0.3164
  128OSM    O1113616   1.798   4.032   2.455 -0.4616  0.2850  0.2157
  128OSM    O1213617   1.633   4.054   2.281 -0.2337 -0.9164 -0.4028
  128OSM    C1S13618   1.825   4.171   2.423 -0.5709 -0.2802  0.3103
  128OSM    H1S13619   1.733   4.228   2.400  0.3565  2.1285  2.2139
  128OSM    H1T13620   1.892   4.180   2.335 -2.4824  1.2443 -1.0327
  128OSM     NF13621   1.894   4.394   2.516 -0.3916 -0.1225 -0.0996
  128OSM    HNF13622   1.985   4.434   2.508 -1.5790  2.2343 -2.4413
  128OSM    C2S13623   1.893   4.251   2.542 -0.2598 -0.1226  0.6871
  128OSM    H2S13624   1.832   4.227   2.632 -0.4137  1.0254  0.8887
  128OSM    C3S13625   2.025   4.192   2.558 -0.2410  0.3317 -0.3386
  128OSM    H3S13626   2.090   4.210   2.469  0.7527 -1.1735  0.0555
  128OSM     O313627   2.022   4.051   2.572 -0.7023 -0.3016  0.0270
  128OSM    HO313628   1.930   4.024   2.560  0.0075 -2.8528  0.1397
  128OSM    C4S13629   2.086   4.269   2.673  0.2693  0.0753  0.0426
  128OSM    H4S13630   2.122   4.368   2.642  1.6284 -0.7487 -1.0790
  128OSM    C5S13631   2.076   4.244   2.810  0.3146 -0.1660 -0.2290
  128OSM    H5S13632   2.021   4.156   2.846 -2.0380  2.2385  2.3437
  128OSM    C6S13633   2.133   4.337   2.917 -0.5973 -0.0528 -0.4798
  128OSM    H6S13634   2.216   4.385   2.862 -0.8044 -0.4145 -1.1087
  128OSM    H6T13635   2.193   4.282   2.994 -1.5150 -2.1162 -1.2026
  128OSM    C7S13636   2.042   4.434   2.984 -0.4048  0.1035 -0.1529
  128OSM    H7S13637   1.957   4.376   3.027  0.0528 -0.3360  0.1516
  128OSM    H7T13638   2.003   4.504   2.907 -3.3735 -0.9078  0.3661
  128OSM    C8S13639   2.106   4.510   3.104  0.6127 -1.0500 -0.3221
  128OSM    H8S13640   2.206   4.547   3.071  0.2745 -0.9120 -1.2088
  128OSM    H8T13641   2.124   4.439   3.187 -0.2006  1.3391  1.9558
  128OSM    C9S13642   2.023   4.630   3.160  0.1292 -0.0935 -0.7658
  128OSM    H9S13643   1.933   4.593   3.214  0.1783  1.2794  0.2824
  128OSM    H9T13644   1.974   4.687   3.079 -1.7355 -0.3939  0.1210
  128OSM   C10S13645   2.112   4.724   3.253  0.6422  0.9637  0.1952
  128OSM   H10S13646   2.057   4.820   3.263  1.7867  2.0555 -3.1748
  128OSM   H10T13647   2.203   4.740   3.190  0.5721 -1.1211 -0.4589
  128OSM   C11S13648   2.150   4.672   3.388 -0.1370  0.7596 -0.6181
  128OSM   H11S13649   2.219   4.585   3.383  0.2159  1.0467 -0.8154
  128OSM   H11T13650   2.051   4.650   3.433 -0.1556 -0.9716 -1.4643
  128OSM   C12S13651   2.222   4.773   3.479 -0.4432 -0.1460  0.7372
  128OSM   H12S13652   2.286   4.832   3.410 -1.7766  1.1607  0.5857
  128OSM   H12T13653   2.302   4.715   3.530 -0.3542  0.0325  0.8008
  128OSM   C13S13654   2.131   4.851   3.568 -0.0195 -0.1424 -0.4691
  128OSM   H13S13655   2.058   4.918   3.516 -1.6395 -1.1002  0.5403
  128OSM   H13T13656   2.189   4.931   3.619 -0.8978  0.6953 -0.7598
  128OSM   C14S13657   2.063   4.766   3.673 -0.3006  0.6765  0.3550
  128OSM   H14S13658   2.135   4.687   3.703  0.6214  1.2179 -0.3854
  128OSM   H14T13659   1.975   4.706   3.642  1.1070 -1.1818 -0.1231
  128OSM   C15S13660   2.014   4.850   3.785  0.0464  0.6448 -0.2095
  128OSM   H15S13661   1.951   4.936   3.753 -2.3158 -1.1295 -0.5107
  128OSM   H15T13662   2.092   4.909   3.838 -0.0623  0.9621 -0.4030
  128OSM   C16S13663   1.936   4.766   3.891  1.0044  0.4185 -0.6978
  128OSM   H16S13664   2.005   4.687   3.927  1.2939  0.6952 -0.6455
  128OSM   H16T13665   1.847   4.714   3.849  1.3892 -0.7108 -0.1270
  128OSM   C17S13666   1.887   4.836   4.015  1.0478 -0.1083 -0.5362
  128OSM   H17S13667   1.819   4.923   4.008 -0.2751 -1.2369 -2.1637
  128OSM   H17T13668   1.978   4.883   4.057  0.5694 -1.4252  2.1014
  128OSM   C18S13669   1.824   4.734   4.121  0.6433 -0.0971 -0.3040
  128OSM   H18S13670   1.777   4.782   4.210  0.1275 -0.5763 -0.3098
  128OSM   H18T13671   1.901   4.660   4.153  1.1488  0.0350 -1.2278
  128OSM   H18U13672   1.745   4.669   4.076 -0.1251  0.8245 -0.2915
  128OSM    C1F13673   1.789   4.472   2.516  0.0649 -0.2924 -1.1676
  128OSM     OF13674   1.684   4.418   2.547  0.2126  0.4311 -0.6605
  128OSM    C2F13675   1.809   4.617   2.488  0.3939  0.1360 -1.2877
  128OSM    H2F13676   1.705   4.655   2.492  0.8858  1.4747 -0.9455
  128OSM    H2G13677   1.848   4.623   2.384  1.8274  0.7361 -0.7268
  128OSM    C3F13678   1.904   4.685   2.592 -0.6825  0.0707  0.1351
  128OSM    H3F13679   1.933   4.787   2.558  0.5434 -1.6048 -4.0766
  128OSM    H3G13680   2.002   4.633   2.599  0.4197  2.0514 -0.1778
  128OSM    C4F13681   1.842   4.686   2.739  0.4806 -0.7836  0.0224
  128OSM    H4F13682   1.907   4.748   2.804 -1.1616  1.6071 -0.5668
  128OSM    H4G13683   1.836   4.582   2.778  2.2205 -0.6355  0.7353
  128OSM    C5F13684   1.706   4.759   2.749  0.2389  0.1018  0.5038
  128OSM    H5F13685   1.630   4.687   2.712  0.2319 -0.3528  1.3821
  128OSM    H5G13686   1.710   4.849   2.684 -1.2158 -2.1336 -2.8492
  128OSM    C6F13687   1.662   4.795   2.892 -0.7735  0.5882 -0.0288
  128OSM    H6F13688   1.562   4.843   2.891 -0.3128  1.5774 -3.4322
  128OSM    H6G13689   1.737   4.866   2.931  0.7396 -1.2851  0.5681
  128OSM    C7F13690   1.664   4.671   2.986  1.0625  0.1666  0.3479
  128OSM    H7F13691   1.763   4.625   3.006  2.1014  1.7984 -0.8885
  128OSM    H7G13692   1.603   4.590   2.941  0.4329  0.5876  0.4323
  128OSM    C8F13693   1.579   4.693   3.112  0.3070  0.8199  0.5662
  128OSM    H8F13694   1.550   4.592   3.148 -0.8052  0.8822 -0.1355
  128OSM    H8G13695   1.487   4.741   3.072  0.3198  0.7191  0.4125
  128OSM    C9F13696   1.648   4.781   3.215 -0.4778  0.3086 -0.1033
  128OSM    H9F13697   1.660   4.885   3.182 -1.9444 -0.5214 -3.4500
  128OSM   C10F13698   1.688   4.738   3.336 -0.3972 -0.2967  0.7489
  128OSM   H10F13699   1.733   4.810   3.407 -1.0418 -0.0903  0.9511
  128OSM   C11F13700   1.680   4.594   3.387 -0.1370 -0.6122  0.0692
  128OSM   H11F13701   1.763   4.529   3.354  1.1603  2.0723 -2.1482
  128OSM   H11G13702   1.582   4.553   3.353 -1.0231  0.9917  0.6327
  128OSM   C12F13703   1.669   4.578   3.539 -0.6667 -0.0020 -0.5746
  128OSM   H12F13704   1.761   4.623   3.584 -0.3041 -0.3321 -0.9807
  128OSM   H12G13705   1.660   4.469   3.560 -0.3104  0.1582  0.4461
  128OSM   C13F13706   1.547   4.641   3.601 -0.4267 -0.7091 -0.1962
  128OSM   H13F13707   1.456   4.584   3.572 -3.1576  2.8335  0.9802
  128OSM   H13G13708   1.545   4.750   3.577  2.4539 -0.6598 -0.3798
  128OSM   C14F13709   1.569   4.635   3.753  1.0886  0.0916  0.2118
  128OSM   H14F13710   1.648   4.708   3.780  2.1759 -1.1787  0.5545
  128OSM   H14G13711   1.607   4.533   3.777  1.8644  0.5234  0.8461
  128OSM   C15F13712   1.440   4.651   3.840 -0.6840  0.2085  0.0052
  128OSM   H15F13713   1.367   4.573   3.812 -0.7460  0.8217 -1.6014
  128OSM   H15G13714   1.387   4.746   3.818 -1.7223  0.0928  1.8774
  128OSM   C16F13715   1.471   4.644   3.993  0.1872  0.5299  0.1840
  128OSM   H16F13716   1.548   4.719   4.024  1.4720 -0.8579  0.3789
  128OSM   H16G13717   1.509   4.547   4.029 -1.9271  0.4081  2.2038
  128OSM   C17F13718   1.340   4.671   4.066 -0.4823  0.0656  0.2540
  128OSM   H17F13719   1.283   4.586   4.024 -2.4970  1.0183  0.9788
  128OSM   H17G13720   1.301   4.766   4.021 -0.8420  0.9539  2.3750
  128OSM   C18F13721   1.347   4.677   4.220  0.6340  0.1990  0.0009
  128OSM   H18F13722   1.247   4.710   4.258  0.9645  1.2778 -0.0478
  128OSM   H18G13723   1.422   4.752   4.253 -1.0206  1.5081  0.8842
  128OSM   H18H13724   1.371   4.579   4.267 -1.0417  0.0648  0.6430
  129OSM      N13725   3.847   1.539   2.198 -0.6293  0.2436 -0.1743
  129OSM    C1513726   3.736   1.564   2.299 -0.0133 -0.0001  0.0071
  129OSM   H15A13727   3.654   1.494   2.294  1.0648 -1.3253  0.7726
  129OSM   H15B13728   3.681   1.654   2.274  0.0780  0.0480 -0.0211
  129OSM   H15C13729   3.760   1.545   2.402  2.7443  3.8727  0.1907
  129OSM    C1413730   3.916   1.411   2.230 -0.3339  0.1508  0.8502
  129OSM   H14A13731   3.943   1.412   2.335  0.5110 -0.2334  0.6376
  129OSM   H14B13732   4.008   1.398   2.174 -1.2209 -2.7933  0.0236
  129OSM   H14C13733   3.862   1.321   2.203 -0.4180  0.4270  0.0877
  129OSM    C1313734   3.781   1.532   2.066  0.0771  0.4138 -0.5471
  129OSM   H13A13735   3.711   1.613   2.056 -0.6137 -0.1125  0.0141
  129OSM   H13B13736   3.724   1.441   2.058  0.0776  0.3706 -0.0837
  129OSM   H13C13737   3.860   1.532   1.992  1.7632  3.0076  1.1721
  129OSM    C1213738   3.944   1.655   2.216  0.0195  0.3712  0.3815
  129OSM   H12A13739   3.963   1.676   2.320 -0.6628 -0.4285  0.6778
  129OSM   H12B13740   3.897   1.748   2.186 -4.2588 -2.2503 -1.5486
  129OSM    C1113741   4.078   1.651   2.143  0.5325 -0.6477 -0.1627
  129OSM   H11A13742   4.120   1.752   2.125 -2.0206  0.6595  0.8792
  129OSM   H11B13743   4.064   1.616   2.038  0.0580  2.6664 -1.2563
  129OSM      P13744   4.257   1.621   2.323 -0.6154 -0.2845  0.1005
  129OSM    O1313745   4.305   1.523   2.415 -0.1940 -0.1088  0.0418
  129OSM    O1413746   4.375   1.693   2.253 -0.1924 -0.1846  0.1276
  129OSM    O1113747   4.172   1.735   2.399  0.2559  0.3302  0.4255
  129OSM    O1213748   4.164   1.561   2.213  0.3284  1.1596 -0.5971
  129OSM    C1S13749   4.088   1.699   2.513  0.5428 -0.3438  0.1219
  129OSM    H1S13750   4.027   1.606   2.512 -0.0977  0.0792 -1.0724
  129OSM    H1T13751   4.005   1.773   2.513  1.9273  1.2669 -1.4276
  129OSM     NF13752   4.061   1.681   2.746  0.2818  0.1362 -0.0033
  129OSM    HNF13753   4.010   1.754   2.792  0.5737  0.4452 -0.1675
  129OSM    C2S13754   4.162   1.709   2.649  0.1820  0.0586 -0.0191
  129OSM    H2S13755   4.242   1.632   2.644 -1.0204 -1.4882  3.0145
  129OSM    C3S13756   4.224   1.848   2.660  0.2953 -0.2931 -0.0810
  129OSM    H3S13757   4.148   1.922   2.626  0.2928 -0.2054  0.1151
  129OSM     O313758   4.330   1.879   2.567  0.1799  0.3665  0.3920
  129OSM    HO313759   4.323   1.815   2.496  0.5897  2.2916 -1.4246
  129OSM    C4S13760   4.270   1.873   2.794  0.4846 -0.2175  0.8653
  129OSM    H4S13761   4.189   1.905   2.862  0.3145  1.0062  0.1041
  129OSM    C5S13762   4.392   1.867   2.852  0.4682  0.2880 -0.1023
  129OSM    H5S13763   4.481   1.832   2.796 -0.6046  0.1039 -1.7355
  129OSM    C6S13764   4.424   1.901   2.999  0.0047  0.2734 -0.0874
  129OSM    H6S13765   4.515   1.965   2.996 -0.3552  0.7429 -1.0799
  129OSM    H6T13766   4.470   1.812   3.049  1.4176  0.3169 -1.2607
  129OSM    C7S13767   4.327   1.967   3.098 -0.0072 -0.1843  0.2959
  129OSM    H7S13768   4.273   2.058   3.065 -0.0316 -0.3755 -0.1891
  129OSM    H7T13769   4.383   1.994   3.190 -0.9910 -1.9102  1.4350
  129OSM    C8S13770   4.209   1.865   3.131 -0.4492  0.1257 -0.2720
  129OSM    H8S13771   4.243   1.760   3.115  0.2345  0.2825  0.1508
  129OSM    H8T13772   4.120   1.885   3.067  0.7526  0.6947 -1.7847
  129OSM    C9S13773   4.174   1.856   3.283 -0.1550  0.6932  0.3752
  129OSM    H9S13774   4.088   1.787   3.286  0.1753  0.3167  1.2640
  129OSM    H9T13775   4.153   1.962   3.308  0.3305  1.3840 -2.0586
  129OSM   C10S13776   4.290   1.809   3.372  0.3034  0.1341 -0.3555
  129OSM   H10S13777   4.370   1.884   3.389 -1.4037  2.1734 -1.1341
  129OSM   H10T13778   4.329   1.716   3.324 -0.1190 -1.5636  2.4616
  129OSM   C11S13779   4.251   1.764   3.519  0.4364 -0.5086 -0.0172
  129OSM   H11S13780   4.337   1.739   3.585 -0.0745  1.5880  1.5003
  129OSM   H11T13781   4.182   1.677   3.512  2.5506 -2.1385 -1.1531
  129OSM   C12S13782   4.187   1.882   3.592  0.1048  0.3302  0.3076
  129OSM   H12S13783   4.103   1.923   3.531 -0.3288 -0.8273  0.1057
  129OSM   H12T13784   4.269   1.956   3.600  1.9797 -1.6195 -0.5871
  129OSM   C13S13785   4.142   1.854   3.736 -0.2200 -0.2792  0.3964
  129OSM   H13S13786   4.206   1.786   3.797  2.2429  0.2710 -1.4843
  129OSM   H13T13787   4.047   1.798   3.730 -0.1290 -0.4059  0.1316
  129OSM   C14S13788   4.102   1.982   3.809 -0.3461 -0.3527 -0.0406
  129OSM   H14S13789   4.014   2.028   3.759 -1.1991 -1.6335  0.2585
  129OSM   H14T13790   4.186   2.055   3.811 -1.0076  0.4642 -1.4252
  129OSM   C15S13791   4.056   1.948   3.950 -0.4888  0.8014  1.1285
  129OSM   H15S13792   4.139   1.950   4.024  0.1864  0.0186  0.4013
  129OSM   H15T13793   4.010   1.847   3.951  0.8423  0.1053 -2.1842
  129OSM   C16S13794   3.944   2.044   4.001 -0.2469  0.2478  0.0877
  129OSM   H16S13795   3.897   2.003   4.092 -3.3125 -0.5571 -1.7882
  129OSM   H16T13796   3.863   2.028   3.927 -1.4449  0.7911  1.2713
  129OSM   C17S13797   3.978   2.197   3.995 -0.3252 -0.3871 -0.3235
  129OSM   H17S13798   3.884   2.256   4.002  0.1185  0.5034 -1.6813
  129OSM   H17T13799   4.011   2.233   3.895 -0.9583 -0.9346 -0.7340
  129OSM   C18S13800   4.073   2.242   4.102  0.0683  0.4082  0.3207
  129OSM   H18S13801   4.166   2.192   4.068 -1.6163  0.1744 -4.2512
  129OSM   H18T13802   4.046   2.212   4.206  3.1805 -0.9574  0.7864
  129OSM   H18U13803   4.095   2.350   4.097  1.4006  0.1488  0.3872
  129OSM    C1F13804   4.028   1.555   2.760  0.3291  0.0411 -0.0763
  129OSM     OF13805   4.103   1.471   2.722 -0.1637 -0.0524  0.1359
  129OSM    C2F13806   3.897   1.513   2.817  1.2777  0.2763  0.3202
  129OSM    H2F13807   3.884   1.403   2.802  0.9724  0.4647 -0.8532
  129OSM    H2G13808   3.823   1.560   2.749  3.0774 -0.8348 -2.5025
  129OSM    C3F13809   3.878   1.543   2.964 -0.0859 -0.4947 -0.5077
  129OSM    H3F13810   3.879   1.653   2.983  2.8392 -0.1933 -2.1087
  129OSM    H3G13811   3.959   1.503   3.029 -0.2722  0.9692  0.6459
  129OSM    C4F13812   3.754   1.481   3.027  0.2140 -0.2787  0.0116
  129OSM    H4F13813   3.751   1.370   3.016  0.7003 -0.2784 -0.1513
  129OSM    H4G13814   3.668   1.530   2.976  0.9258  0.6066 -0.3574
  129OSM    C5F13815   3.750   1.501   3.182  0.3668 -0.0327 -0.8760
  129OSM    H5F13816   3.652   1.464   3.219  0.1220  0.7699 -0.7144
  129OSM    H5G13817   3.761   1.606   3.215  3.6180 -0.8126  0.7119
  129OSM    C6F13818   3.858   1.420   3.265  0.2554 -0.0680  1.1953
  129OSM    H6F13819   3.960   1.432   3.222  0.1499 -1.5395  0.5194
  129OSM    H6G13820   3.829   1.314   3.273  1.1445 -0.5744 -1.8447
  129OSM    C7F13821   3.878   1.472   3.406 -0.1413 -0.2844  0.4031
  129OSM    H7F13822   3.788   1.481   3.470  0.9168  1.8143  1.6547
  129OSM    H7G13823   3.910   1.578   3.403 -3.8691  0.8998 -0.1459
  129OSM    C8F13824   3.973   1.386   3.480  0.0699  0.4761 -0.0165
  129OSM    H8F13825   3.936   1.287   3.447 -1.8779  1.7370 -1.6774
  129OSM    H8G13826   3.943   1.398   3.586  3.5888 -0.7672  1.1915
  129OSM    C9F13827   4.118   1.403   3.445 -0.4397 -0.2545  0.2870
  129OSM    H9F13828   4.138   1.417   3.337 -0.0401  0.6150  0.4701
  129OSM   C10F13829   4.221   1.424   3.531  0.7496  0.7604 -0.5299
  129OSM   H10F13830   4.322   1.428   3.489  0.0590 -2.0227 -2.6318
  129OSM   C11F13831   4.207   1.436   3.679  0.1403  0.2811  0.1839
  129OSM   H11F13832   4.105   1.459   3.716  0.2201  1.3459 -0.2488
  129OSM   H11G13833   4.272   1.522   3.707 -0.1499  0.7652 -0.6206
  129OSM   C12F13834   4.263   1.303   3.735  0.4249  0.7478  0.0310
  129OSM   H12F13835   4.372   1.289   3.720  0.0309 -0.5401 -1.9025
  129OSM   H12G13836   4.214   1.214   3.689 -0.0977  1.6549 -1.1838
  129OSM   C13F13837   4.246   1.288   3.890  0.6212 -0.3501 -0.8045
  129OSM   H13F13838   4.138   1.289   3.918  0.8784  0.9670  0.1567
  129OSM   H13G13839   4.301   1.369   3.940 -0.2608  0.3718 -0.9911
  129OSM   C14F13840   4.289   1.142   3.932  0.4859 -0.3147  0.2539
  129OSM   H14F13841   4.400   1.141   3.940  0.4228 -2.9508  1.0317
  129OSM   H14G13842   4.272   1.078   3.843 -1.8091  0.0062  0.4311
  129OSM   C15F13843   4.216   1.086   4.056  0.4785  0.4180 -0.3405
  129OSM   H15F13844   4.107   1.073   4.038  0.0337 -0.2183  2.6291
  129OSM   H15G13845   4.229   1.155   4.142 -2.2611  0.6975 -0.1251
  129OSM   C16F13846   4.270   0.941   4.084  0.0743  0.2832  0.1973
  129OSM   H16F13847   4.379   0.942   4.065  0.0082 -0.2197 -0.2200
  129OSM   H16G13848   4.224   0.870   4.012  0.5907  0.6755 -0.5190
  129OSM   C17F13849   4.240   0.898   4.231  0.5068  0.0181 -0.4154
  129OSM   H17F13850   4.131   0.907   4.252  0.3085 -0.9143 -1.0246
  129OSM   H17G13851   4.273   0.971   4.308  0.9123 -2.0041  1.4111
  129OSM   C18F13852   4.273   0.750   4.257 -0.5269 -0.0923  0.0936
  129OSM   H18F13853   4.263   0.728   4.366  0.3482 -0.5422  0.0859
  129OSM   H18G13854   4.378   0.729   4.229 -0.2916  0.4475  0.5662
  129OSM   H18H13855   4.203   0.672   4.221  0.7658  0.1601 -3.0567
  130OSM      N13856   4.335   5.804   2.018 -0.2320 -1.4148  0.3112
  130OSM    C1513857   4.417   5.715   2.108  0.3012 -0.0279  0.5026
  130OSM   H15A13858   4.375   5.616   2.102 -0.4882  0.3423 -0.2592
  130OSM   H15B13859   4.404   5.745   2.210 -1.9107  0.9411 -0.0333
  130OSM   H15C13860   4.522   5.729   2.086 -0.0192 -0.1893 -1.2522
  130OSM    C1413861   4.340   5.732   1.887 -0.8417  0.4190  0.4803
  130OSM   H14A13862   4.440   5.724   1.847 -1.3336 -0.4087 -0.6138
  130OSM   H14B13863   4.276   5.783   1.817 -0.4654 -1.0230 -0.9375
  130OSM   H14C13864   4.310   5.630   1.903  0.8422 -0.0846  0.4449
  130OSM    C1313865   4.190   5.821   2.060 -0.3132  0.3875 -0.0371
  130OSM   H13A13866   4.143   5.884   1.986  0.5735  0.5515 -0.4715
  130OSM   H13B13867   4.173   5.879   2.149 -0.0277 -0.1592  0.3705
  130OSM   H13C13868   4.144   5.724   2.069  0.6884  0.0025  1.1115
  130OSM    C1213869   4.406   5.939   2.003 -0.1033  0.1819 -0.4929
  130OSM   H12A13870   4.379   5.990   1.911  2.2085 -0.6905 -1.7059
  130OSM   H12B13871   4.514   5.932   1.997 -0.1165 -0.8784  0.5035
  130OSM    C1113872   4.384   6.030   2.124 -0.4693  0.0704  0.7075
  130OSM   H11A13873   4.465   6.105   2.128 -0.9943  0.5234  3.9576
  130OSM   H11B13874   4.377   5.981   2.223 -3.3777 -1.2742 -0.0735
  130OSM      P13875   4.225   6.234   2.173 -0.6141  0.5471  0.3378
  130OSM    O1313876   4.352   6.317   2.182  0.0534  0.2642 -0.4614
  130OSM    O1413877   4.113   6.305   2.104 -0.4247  0.4939  0.3027
  130OSM    O1113878   4.183   6.206   2.321 -0.8102 -0.3295 -0.1559
  130OSM    O1213879   4.254   6.093   2.102 -0.2558  0.1354 -0.1658
  130OSM    C1S13880   4.103   6.096   2.371 -0.6124  0.1754  0.5814
  130OSM    H1S13881   4.162   6.002   2.361 -0.8315  0.2441 -1.4679
  130OSM    H1T13882   4.014   6.088   2.306 -0.2195  0.3428  0.0208
  130OSM     NF13883   4.028   6.007   2.589  0.5718 -0.2237  0.9888
  130OSM    HNF13884   3.931   5.998   2.606  0.2888 -2.2940 -1.5064
  130OSM    C2S13885   4.068   6.128   2.518 -0.2593  0.0248 -0.8337
  130OSM    H2S13886   4.158   6.176   2.560 -0.3117  0.9211 -1.7214
  130OSM    C3S13887   3.951   6.233   2.520 -0.1687 -0.1590 -0.3558
  130OSM    H3S13888   3.859   6.196   2.470 -2.2805 -0.7947  3.7203
  130OSM     O313889   3.983   6.355   2.454  0.2272  0.5483 -0.2553
  130OSM    HO313890   4.079   6.354   2.445  0.3735 -1.0709  1.1544
  130OSM    C4S13891   3.914   6.275   2.654  0.0599  0.1139  0.2341
  130OSM    H4S13892   3.994   6.316   2.718  1.9571  0.2172 -2.1308
  130OSM    C5S13893   3.793   6.254   2.702  0.2041  0.0214  0.2126
  130OSM    H5S13894   3.720   6.198   2.642 -2.1150  1.4643  1.5929
  130OSM    C6S13895   3.735   6.291   2.837  0.3514  0.1874  0.3934
  130OSM    H6S13896   3.659   6.217   2.870 -3.5122  4.1737  0.9549
  130OSM    H6T13897   3.675   6.384   2.821  0.2449  0.4556  2.3364
  130OSM    C7S13898   3.846   6.314   2.941 -0.0770 -0.3201 -0.8494
  130OSM    H7S13899   3.908   6.401   2.909  0.5932  0.0080  1.2725
  130OSM    H7T13900   3.904   6.221   2.957 -1.2554 -1.2244 -1.7747
  130OSM    C8S13901   3.777   6.351   3.076  0.1582 -0.2382  0.1158
  130OSM    H8S13902   3.685   6.291   3.090  0.3890 -0.3954  0.9982
  130OSM    H8T13903   3.742   6.456   3.076  1.4775  0.2156 -0.8740
  130OSM    C9S13904   3.880   6.341   3.194 -0.3651 -0.0597 -0.1512
  130OSM    H9S13905   3.961   6.413   3.168 -1.5142  2.1558  2.2372
  130OSM    H9T13906   3.921   6.238   3.197  1.0786  0.5654  2.7196
  130OSM   C10S13907   3.824   6.370   3.335 -0.0661  0.4757  0.4225
  130OSM   H10S13908   3.744   6.446   3.321 -0.3381  0.3905  1.4887
  130OSM   H10T13909   3.908   6.424   3.384 -0.9939  1.5144  0.8867
  130OSM   C11S13910   3.767   6.242   3.408 -0.1361  0.4806  0.6250
  130OSM   H11S13911   3.849   6.204   3.472 -0.0475  1.3779  1.0510
  130OSM   H11T13912   3.730   6.173   3.330 -1.5793  1.2320  0.6174
  130OSM   C12S13913   3.642   6.277   3.497 -0.6122 -0.7233 -0.6704
  130OSM   H12S13914   3.575   6.188   3.501 -1.0751 -0.3410  0.1833
  130OSM   H12T13915   3.592   6.373   3.470 -1.5759 -1.0068  0.0564
  130OSM   C13S13916   3.677   6.278   3.645 -0.3897 -0.4532  0.4994
  130OSM   H13S13917   3.729   6.374   3.666  1.7150 -1.4941  0.1143
  130OSM   H13T13918   3.738   6.191   3.676  0.1624 -0.7659 -1.4001
  130OSM   C14S13919   3.560   6.266   3.743  0.6427  0.5525  0.3508
  130OSM   H14S13920   3.521   6.162   3.730 -0.6394  1.1866 -1.0624
  130OSM   H14T13921   3.483   6.344   3.725  0.4209  0.6436  1.7128
  130OSM   C15S13922   3.600   6.277   3.895  0.2518 -0.5872  0.1784
  130OSM   H15S13923   3.598   6.385   3.918 -1.5228  0.0148 -2.6277
  130OSM   H15T13924   3.704   6.243   3.914  0.3646 -0.1398  0.3654
  130OSM   C16S13925   3.500   6.197   3.982 -0.4461 -0.0634 -0.3435
  130OSM   H16S13926   3.493   6.099   3.930 -0.3191 -0.1903 -0.1184
  130OSM   H16T13927   3.396   6.236   3.979 -0.4006  0.0597 -0.3296
  130OSM   C17S13928   3.546   6.171   4.125 -0.0074  0.3908  0.2423
  130OSM   H17S13929   3.550   6.270   4.175 -1.6342  0.5020  0.1713
  130OSM   H17T13930   3.646   6.124   4.126 -0.7266 -1.2143 -0.9671
  130OSM   C18S13931   3.438   6.085   4.190 -0.1091 -0.4160 -0.4106
  130OSM   H18S13932   3.354   6.156   4.207 -0.6414 -0.6889 -1.8331
  130OSM   H18T13933   3.476   6.058   4.291  3.7419 -1.2653 -2.0058
  130OSM   H18U13934   3.396   6.002   4.130  2.7798 -1.5558 -0.9168
  130OSM    C1F13935   4.120   5.917   2.616 -0.4145 -0.1387  0.8818
  130OSM     OF13936   4.241   5.933   2.589 -0.1139  0.1250  0.0909
  130OSM    C2F13937   4.075   5.788   2.684  0.0765  0.1642 -0.0340
  130OSM    H2F13938   4.127   5.711   2.623  0.6708  0.6438 -0.1368
  130OSM    H2G13939   3.967   5.790   2.657 -0.0578 -0.1892  0.4622
  130OSM    C3F13940   4.115   5.768   2.837 -0.4626 -0.3002 -0.0331
  130OSM    H3F13941   4.226   5.771   2.839 -0.4649 -0.1470 -0.0488
  130OSM    H3G13942   4.100   5.662   2.864 -2.3958  0.2539  1.1477
  130OSM    C4F13943   4.039   5.858   2.931  0.3203  0.1886  0.0905
  130OSM    H4F13944   3.930   5.863   2.909  0.1218  1.2110  1.2746
  130OSM    H4G13945   4.076   5.962   2.934  0.3353  0.3234 -3.0476
  130OSM    C5F13946   4.059   5.800   3.068 -0.0356  0.2294  0.4206
  130OSM    H5F13947   4.164   5.801   3.103 -0.5261 -2.0207  2.0528
  130OSM    H5G13948   4.038   5.691   3.073 -1.0643  0.4683  1.5061
  130OSM    C6F13949   3.967   5.876   3.169  0.3983  0.7112  0.4840
  130OSM    H6F13950   3.863   5.886   3.131  0.9137 -0.7217 -1.4370
  130OSM    H6G13951   4.004   5.978   3.188  2.6375  0.1945 -0.8687
  130OSM    C7F13952   3.968   5.800   3.302  0.3366 -0.0538 -0.4478
  130OSM    H7F13953   4.070   5.777   3.339  0.6005  2.0461  0.1813
  130OSM    H7G13954   3.922   5.705   3.268  1.5900 -1.6749  2.2822
  130OSM    C8F13955   3.891   5.874   3.414  0.1783 -0.4642 -0.1065
  130OSM    H8F13956   3.791   5.898   3.373  0.6370 -3.3038 -3.0443
  130OSM    H8G13957   3.940   5.967   3.451  2.7057 -3.0515  3.4080
  130OSM    C9F13958   3.868   5.779   3.528 -0.1607 -0.1819  0.2043
  130OSM    H9F13959   3.827   5.688   3.482  3.6590 -1.9652  0.1661
  130OSM   C10F13960   3.905   5.792   3.659  0.3034  0.6150 -0.3712
  130OSM   H10F13961   3.868   5.711   3.723 -0.6907  0.9118 -0.5584
  130OSM   C11F13962   3.989   5.901   3.728 -0.6589  0.4819  0.6754
  130OSM   H11F13963   4.044   5.965   3.656 -1.7408 -0.4598 -1.0065
  130OSM   H11G13964   4.066   5.842   3.782 -0.3705  0.7838  0.5971
  130OSM   C12F13965   3.909   5.990   3.826  0.7175  0.4164  0.2612
  130OSM   H12F13966   3.852   5.933   3.902  0.2386  2.5153  1.5332
  130OSM   H12G13967   3.837   6.047   3.762 -1.5735 -0.9533  1.5544
  130OSM   C13F13968   3.994   6.099   3.896  0.1967  0.4538 -0.1071
  130OSM   H13F13969   3.940   6.163   3.969  0.8811  0.4648  0.3907
  130OSM   H13G13970   4.038   6.155   3.810  0.7273  0.9437  0.4804
  130OSM   C14F13971   4.107   6.049   3.991  0.2157  0.2710 -0.3547
  130OSM   H14F13972   4.166   6.139   4.016 -0.4150  0.6053 -0.0535
  130OSM   H14G13973   4.175   5.980   3.938  0.0596  1.6293 -2.3542
  130OSM   C15F13974   4.050   5.988   4.124  0.2864 -0.3096  0.6308
  130OSM   H15F13975   4.123   5.966   4.205 -1.1161  0.9250  2.2737
  130OSM   H15G13976   3.999   5.891   4.102  0.6991  0.0200 -1.8847
  130OSM   C16F13977   3.938   6.070   4.202 -0.1324  0.9142 -0.3847
  130OSM   H16F13978   3.841   6.076   4.148  0.5093  0.1877 -1.6373
  130OSM   H16G13979   3.966   6.176   4.222 -0.6194  1.2118 -1.2397
  130OSM   C17F13980   3.886   5.998   4.330  0.6159 -0.4019  0.0253
  130OSM   H17F13981   3.804   6.066   4.362  1.2373  0.0617  0.6601
  130OSM   H17G13982   3.957   5.982   4.415  0.2810 -0.3499  0.3150
  130OSM   C18F13983   3.820   5.864   4.291 -0.4547 -0.2333 -1.0481
  130OSM   H18F13984   3.898   5.795   4.252  0.4869  1.1814 -1.7341
  130OSM   H18G13985   3.737   5.883   4.219 -0.4222  1.1467 -0.7419
  130OSM   H18H13986   3.769   5.833   4.385 -0.8442 -0.9738 -1.4966
  131OSM      N13987   1.075   2.563   2.483  0.1423  0.0962 -0.3827
  131OSM    C1513988   1.042   2.414   2.505 -0.3444 -0.2696  0.4084
  131OSM   H15A13989   0.959   2.386   2.443 -1.6385  0.2893  1.8444
  131OSM   H15B13990   1.005   2.400   2.606  0.5503 -2.5311  0.4529
  131OSM   H15C13991   1.129   2.351   2.491 -0.3793 -0.3237  0.4328
  131OSM    C1413992   0.945   2.641   2.484  0.1284 -0.1504 -0.3454
  131OSM   H14A13993   0.882   2.607   2.565  2.5360 -0.0580  1.6547
  131OSM   H14B13994   0.896   2.631   2.389  0.5960 -0.7197 -0.5273
  131OSM   H14C13995   0.965   2.747   2.483 -1.8361  0.2281 -2.0983
  131OSM    C1313996   1.144   2.608   2.613  0.2514  0.2827  0.1619
  131OSM   H13A13997   1.234   2.548   2.619 -0.1566 -0.4699 -1.0594
  131OSM   H13B13998   1.090   2.589   2.704  0.9437 -0.5683  0.3999
  131OSM   H13C13999   1.184   2.709   2.605  1.2400 -0.0632  0.6921
  131OSM    C1214000   1.148   2.578   2.355 -0.3726 -0.1255 -0.5205
  131OSM   H12A14001   1.105   2.512   2.281  0.4540 -1.0812 -0.1708
  131OSM   H12B14002   1.244   2.528   2.356 -0.5409 -0.4335  0.1994
  131OSM    C1114003   1.175   2.718   2.301 -0.0498 -0.1535 -0.1593
  131OSM   H11A14004   1.217   2.784   2.380  2.1176 -2.3091  0.5261
  131OSM   H11B14005   1.080   2.764   2.266  0.4407 -0.5771 -2.1053
  131OSM      P14006   1.423   2.645   2.205  0.6218  0.1099 -0.9277
  131OSM    O1314007   1.415   2.503   2.166  0.7162 -0.2640  1.0202
  131OSM    O1414008   1.516   2.732   2.132  0.4381 -0.2526 -0.8805
  131OSM    O1114009   1.447   2.657   2.361  0.1264 -0.2321 -0.5667
  131OSM    O1214010   1.275   2.713   2.193 -0.8135 -0.1459  0.1881
  131OSM    C1S14011   1.486   2.785   2.406 -0.4355 -0.5550  0.1915
  131OSM    H1S14012   1.403   2.859   2.402  0.3071  0.2772 -0.0392
  131OSM    H1T14013   1.575   2.822   2.351  0.2489 -0.5966  1.2780
  131OSM     NF14014   1.524   2.920   2.614 -0.0704  0.7863 -0.1686
  131OSM    HNF14015   1.614   2.962   2.613  0.1276  0.3570 -1.1631
  131OSM    C2S14016   1.506   2.786   2.557 -1.1387  1.0500  0.2118
  131OSM    H2S14017   1.415   2.743   2.604 -0.8421  0.1572 -0.0092
  131OSM    C3S14018   1.632   2.694   2.591  0.1520  0.4309  0.1204
  131OSM    H3S14019   1.722   2.743   2.549  0.8297  0.3790  1.4947
  131OSM     O314020   1.617   2.562   2.533  0.0046 -0.0209 -0.7280
  131OSM    HO314021   1.553   2.582   2.465  0.3975  1.7204 -0.6168
  131OSM    C4S14022   1.643   2.682   2.735 -0.4476 -0.3133 -0.6769
  131OSM    H4S14023   1.559   2.625   2.776  0.5701  0.0398  1.9971
  131OSM    C5S14024   1.751   2.717   2.810  0.3440 -0.5496  0.0945
  131OSM    H5S14025   1.843   2.743   2.755 -0.1780  0.9095 -0.1151
  131OSM    C6S14026   1.775   2.707   2.956 -0.6077  0.0684 -0.2481
  131OSM    H6S14027   1.875   2.661   2.971 -0.9204 -0.0367  1.6542
  131OSM    H6T14028   1.701   2.649   3.015  0.2638 -0.8131 -0.0206
  131OSM    C7S14029   1.764   2.849   3.017  0.2932 -0.2287 -1.2920
  131OSM    H7S14030   1.659   2.881   3.028 -0.0477 -1.4182 -0.9902
  131OSM    H7T14031   1.822   2.922   2.957  0.6996  0.7627  0.2872
  131OSM    C8S14032   1.827   2.864   3.158  0.3280  0.5076  0.6727
  131OSM    H8S14033   1.816   2.973   3.177  0.7422  0.7714 -0.5831
  131OSM    H8T14034   1.935   2.841   3.155  0.2563  0.2985 -2.1576
  131OSM    C9S14035   1.768   2.775   3.266 -0.1514  0.1439 -0.3481
  131OSM    H9S14036   1.786   2.667   3.245  1.0534  0.2499  0.1251
  131OSM    H9T14037   1.660   2.798   3.282 -0.0010  0.2637  0.5294
  131OSM   C10S14038   1.838   2.819   3.395 -0.4239  0.9875  0.5153
  131OSM   H10S14039   1.837   2.929   3.406 -0.4876  1.0532 -0.1075
  131OSM   H10T14040   1.944   2.789   3.383 -1.2943 -2.1663  0.0118
  131OSM   C11S14041   1.774   2.760   3.522  0.3857  0.1793  0.2347
  131OSM   H11S14042   1.798   2.651   3.521 -0.2150  0.0086  2.5728
  131OSM   H11T14043   1.663   2.767   3.520  0.2449 -1.7797 -0.7104
  131OSM   C12S14044   1.813   2.813   3.659 -0.1436 -0.3619 -0.0539
  131OSM   H12S14045   1.782   2.917   3.682  1.5894  0.4268 -1.1706
  131OSM   H12T14046   1.924   2.816   3.657 -0.1510  2.1170  0.7980
  131OSM   C13S14047   1.753   2.718   3.770  0.1880 -0.8619 -0.2907
  131OSM   H13S14048   1.749   2.613   3.735 -1.1774 -0.8714 -0.1428
  131OSM   H13T14049   1.645   2.746   3.771  0.1807 -0.9454  1.3909
  131OSM   C14S14050   1.816   2.731   3.910  1.3239 -0.0898 -0.0967
  131OSM   H14S14051   1.826   2.840   3.929  0.4665  0.2110 -1.2878
  131OSM   H14T14052   1.921   2.697   3.899  0.5545 -2.6040  0.1679
  131OSM   C15S14053   1.742   2.634   4.005  0.4248 -1.1967 -0.9632
  131OSM   H15S14054   1.651   2.594   3.957 -2.1428  2.6303  0.4581
  131OSM   H15T14055   1.698   2.692   4.089 -1.1283 -2.5528 -0.8289
  131OSM   C16S14056   1.833   2.521   4.056 -0.1060  0.2710 -0.2467
  131OSM   H16S14057   1.929   2.567   4.087 -0.4719  2.3910 -2.1629
  131OSM   H16T14058   1.864   2.458   3.969  0.9868 -0.4135  0.6327
  131OSM   C17S14059   1.806   2.435   4.176  0.0056 -0.6834 -0.0760
  131OSM   H17S14060   1.702   2.399   4.161 -0.4090 -0.0531  1.2309
  131OSM   H17T14061   1.780   2.494   4.267  1.9327 -0.5612  0.4217
  131OSM   C18S14062   1.918   2.331   4.215  0.3062 -0.6176 -0.1815
  131OSM   H18S14063   1.877   2.257   4.287 -0.3576  0.8904  1.0465
  131OSM   H18T14064   2.002   2.380   4.270  1.0276 -2.4459  0.3652
  131OSM   H18U14065   1.956   2.270   4.131 -0.5442 -2.5433  0.7974
  131OSM    C1F14066   1.419   3.005   2.629  0.9653 -0.8502  0.3411
  131OSM     OF14067   1.303   2.974   2.597  0.5322  0.3208  0.9300
  131OSM    C2F14068   1.446   3.134   2.683 -0.1566 -0.0235 -0.2499
  131OSM    H2F14069   1.439   3.212   2.604  0.4724 -1.0134 -1.2852
  131OSM    H2G14070   1.555   3.132   2.707  0.0714  1.9524 -1.0100
  131OSM    C3F14071   1.380   3.166   2.813  0.1704  0.1173  0.0667
  131OSM    H3F14072   1.270   3.177   2.798  0.2431  2.2417  0.8843
  131OSM    H3G14073   1.423   3.260   2.854  3.5048 -1.8496  1.2748
  131OSM    C4F14074   1.394   3.067   2.937 -1.0212  0.0603  0.4495
  131OSM    H4F14075   1.377   3.126   3.030 -1.5999 -2.1257  1.7620
  131OSM    H4G14076   1.496   3.024   2.937 -0.7241  0.7589  0.5867
  131OSM    C5F14077   1.291   2.950   2.931 -0.1039 -0.8206  0.6842
  131OSM    H5F14078   1.303   2.891   2.837 -0.2821 -0.5632  0.4988
  131OSM    H5G14079   1.186   2.984   2.922  0.1467 -0.0700  0.5397
  131OSM    C6F14080   1.308   2.857   3.050 -0.3488  0.6541  0.4259
  131OSM    H6F14081   1.220   2.860   3.118 -0.7866 -0.4577 -0.0802
  131OSM    H6G14082   1.396   2.886   3.111 -0.6616  2.3326  0.1180
  131OSM    C7F14083   1.336   2.711   3.000  0.6658  0.1334 -0.1152
  131OSM    H7F14084   1.433   2.710   2.946  0.6480 -2.1338 -0.1577
  131OSM    H7G14085   1.254   2.682   2.931  1.8997 -1.8055 -0.8196
  131OSM    C8F14086   1.344   2.603   3.108 -0.3865 -0.4591  0.4893
  131OSM    H8F14087   1.428   2.627   3.176  0.8090 -3.4529  0.1452
  131OSM    H8G14088   1.393   2.509   3.074 -1.1209 -2.0616  3.6807
  131OSM    C9F14089   1.211   2.597   3.171 -0.2565 -0.2512 -0.4324
  131OSM    H9F14090   1.130   2.554   3.111 -1.2626 -0.5602  1.1060
  131OSM   C10F14091   1.180   2.646   3.294  0.5379 -0.3467 -0.0585
  131OSM   H10F14092   1.084   2.622   3.342  1.2440 -1.0370  1.0318
  131OSM   C11F14093   1.270   2.715   3.393  0.5384  0.0467  1.1082
  131OSM   H11F14094   1.368   2.725   3.341 -1.1811 -1.3803 -2.5351
  131OSM   H11G14095   1.290   2.648   3.480 -0.6310 -2.3780 -0.4175
  131OSM   C12F14096   1.217   2.854   3.426  0.3837  0.6562 -0.0096
  131OSM   H12F14097   1.131   2.848   3.496 -0.4171 -0.0234 -1.0313
  131OSM   H12G14098   1.193   2.908   3.332 -0.3518 -1.0134 -0.8210
  131OSM   C13F14099   1.322   2.935   3.497 -0.4684  0.2988  0.5036
  131OSM   H13F14100   1.299   3.044   3.492 -0.0884  0.4019  0.9420
  131OSM   H13G14101   1.416   2.924   3.440 -0.1568 -0.4260  1.1580
  131OSM   C14F14102   1.352   2.881   3.628 -0.0243  0.4384 -0.1073
  131OSM   H14F14103   1.400   2.781   3.623 -1.2668 -0.1674 -0.2067
  131OSM   H14G14104   1.256   2.877   3.683 -1.2426 -1.2063 -2.2805
  131OSM   C15F14105   1.453   2.973   3.703 -0.4302 -0.2260 -0.2098
  131OSM   H15F14106   1.460   3.079   3.670 -0.8906  0.8163  2.8508
  131OSM   H15G14107   1.549   2.919   3.691 -0.4955 -0.2907 -0.4406
  131OSM   C16F14108   1.425   2.991   3.853  0.5658  0.5817 -0.3288
  131OSM   H16F14109   1.357   3.078   3.864  1.5352  1.7030 -2.7807
  131OSM   H16G14110   1.523   3.012   3.901  1.0866 -2.8131  0.2448
  131OSM   C17F14111   1.381   2.863   3.924  0.3937 -0.0726 -0.0418
  131OSM   H17F14112   1.441   2.776   3.889 -1.3962 -1.4745  0.2592
  131OSM   H17G14113   1.276   2.843   3.896  0.2578 -1.5166  1.4020
  131OSM   C18F14114   1.395   2.875   4.071  0.6104 -0.1195  0.2522
  131OSM   H18F14115   1.503   2.895   4.088  0.4934  0.6891  0.0373
  131OSM   H18G14116   1.379   2.776   4.119  3.2695  0.3886  2.3224
  131OSM   H18H14117   1.340   2.962   4.112  0.9111 -0.4261  1.3323
  132OSM      N14118   1.157   3.308   2.091  0.1549 -0.3133  0.1181
  132OSM    C1514119   1.254   3.224   2.162  0.7924  0.0212 -0.4979
  132OSM   H15A14120   1.206   3.130   2.183 -0.1144  0.8228  1.1441
  132OSM   H15B14121   1.272   3.276   2.255 -1.3860  1.2733 -0.7385
  132OSM   H15C14122   1.344   3.195   2.109 -0.2529 -1.1580 -1.6487
  132OSM    C1414123   1.098   3.251   1.965  0.3536 -0.3093 -0.2176
  132OSM   H14A14124   1.172   3.220   1.892  2.1965 -0.4928  1.6856
  132OSM   H14B14125   1.035   3.319   1.909 -1.1282 -2.4369 -1.2119
  132OSM   H14C14126   1.033   3.166   1.979  0.3956 -0.7471 -2.4222
  132OSM    C1314127   1.044   3.308   2.187  0.1978 -0.5589  0.0645
  132OSM   H13A14128   0.987   3.216   2.182  0.4930 -0.8363  1.7377
  132OSM   H13B14129   0.982   3.392   2.156  1.2059 -0.9585 -3.1910
  132OSM   H13C14130   1.084   3.317   2.286  0.5749  2.2834 -0.2946
  132OSM    C1214131   1.212   3.459   2.083  0.1225  0.3956  0.0985
  132OSM   H12A14132   1.307   3.457   2.031  0.0786  0.7319  0.0079
  132OSM   H12B14133   1.233   3.494   2.183  0.8098 -0.3190  0.2160
  132OSM    C1114134   1.123   3.574   2.023  0.8617 -0.1590  0.7072
  132OSM   H11A14135   1.097   3.550   1.918 -0.2258 -0.6901  1.0879
  132OSM   H11B14136   1.198   3.655   2.023  0.9377 -0.2264  1.1936
  132OSM      P14137   1.009   3.725   2.197 -0.3409  0.3146 -0.7905
  132OSM    O1314138   1.125   3.718   2.289 -0.1621 -0.2175 -0.4826
  132OSM    O1414139   1.009   3.848   2.111 -0.0354  0.4219 -0.3714
  132OSM    O1114140   0.878   3.703   2.276 -0.1067 -0.0664  0.1888
  132OSM    O1214141   1.013   3.599   2.107  0.0344  0.2649 -0.0199
  132OSM    C1S14142   0.849   3.591   2.368 -0.6828  0.0586 -0.0572
  132OSM    H1S14143   0.896   3.498   2.329 -2.6642 -1.4950  1.1581
  132OSM    H1T14144   0.739   3.573   2.365 -0.7753  0.3712  1.1283
  132OSM     NF14145   0.872   3.493   2.591  0.1077 -0.1452 -0.5824
  132OSM    HNF14146   0.814   3.517   2.668  0.5718  0.0218 -0.2840
  132OSM    C2S14147   0.903   3.609   2.512  0.3101 -0.1306  0.1351
  132OSM    H2S14148   1.013   3.627   2.505  0.3070  0.3137  1.1414
  132OSM    C3S14149   0.842   3.736   2.569 -0.9079  0.8680 -0.5425
  132OSM    H3S14150   0.734   3.715   2.584 -0.2022 -2.3378  0.5859
  132OSM     O314151   0.878   3.856   2.501  0.4443  0.5436 -0.2210
  132OSM    HO314152   0.926   3.831   2.421 -0.9881  0.9999 -1.2529
  132OSM    C4S14153   0.903   3.752   2.709  0.2684 -0.1508  0.7550
  132OSM    H4S14154   1.013   3.750   2.703  0.1934 -0.9898 -0.3757
  132OSM    C5S14155   0.832   3.760   2.821 -0.1813  0.1035  0.3435
  132OSM    H5S14156   0.722   3.757   2.814 -0.1506  0.5877 -0.3538
  132OSM    C6S14157   0.890   3.763   2.955  0.8002 -0.2591 -0.0753
  132OSM    H6S14158   0.883   3.871   2.982 -0.4241 -0.2598 -0.3657
  132OSM    H6T14159   0.999   3.742   2.962  1.2843  0.7847 -3.4014
  132OSM    C7S14160   0.811   3.682   3.055  0.4007 -0.1518  0.9940
  132OSM    H7S14161   0.828   3.573   3.045  0.2763 -0.2248  1.5412
  132OSM    H7T14162   0.703   3.711   3.052 -0.3226 -2.7505  0.7796
  132OSM    C8S14163   0.865   3.722   3.199  0.1345  0.0856  0.3243
  132OSM    H8S14164   0.841   3.830   3.197  0.2835  0.1352  1.2543
  132OSM    H8T14165   0.975   3.720   3.214 -0.0600 -1.0271  1.7000
  132OSM    C9S14166   0.800   3.641   3.313 -0.1169 -0.1454 -0.1014
  132OSM    H9S14167   0.815   3.537   3.276 -0.8213 -0.4448  0.4409
  132OSM    H9T14168   0.694   3.672   3.308  0.0214  0.1427 -1.3800
  132OSM   C10S14169   0.851   3.676   3.457 -0.0290 -0.1550  0.2408
  132OSM   H10S14170   0.842   3.786   3.471  0.9187 -0.1138  0.5425
  132OSM   H10T14171   0.957   3.647   3.468 -0.3632 -0.4739  2.7464
  132OSM   C11S14172   0.770   3.602   3.559  0.0967 -0.5110 -0.0337
  132OSM   H11S14173   0.817   3.502   3.567 -0.3581 -0.6981  0.3269
  132OSM   H11T14174   0.662   3.596   3.537 -1.1494  2.1456  4.4995
  132OSM   C12S14175   0.786   3.664   3.693  0.4687  0.2681 -0.2176
  132OSM   H12S14176   0.727   3.758   3.686  0.7821  0.3702 -1.6019
  132OSM   H12T14177   0.887   3.692   3.728  0.6508 -0.6745  0.0373
  132OSM   C13S14178   0.712   3.571   3.795  1.0803  0.8547 -0.1188
  132OSM   H13S14179   0.756   3.470   3.784 -0.9866  0.3529 -4.7138
  132OSM   H13T14180   0.604   3.571   3.771  0.7350  1.4116  1.3716
  132OSM   C14S14181   0.740   3.600   3.949  0.1379  0.0220  0.4734
  132OSM   H14S14182   0.848   3.578   3.961 -0.5575 -3.2175  1.3612
  132OSM   H14T14183   0.687   3.521   4.006  1.1228  1.0415  2.8877
  132OSM   C15S14184   0.718   3.748   4.006 -0.0679  0.3463  0.3575
  132OSM   H15S14185   0.771   3.812   3.933 -0.1570 -1.9671 -1.7836
  132OSM   H15T14186   0.768   3.760   4.105 -0.2352 -1.7546  0.7253
  132OSM   C16S14187   0.577   3.803   4.011 -0.3214 -0.1681  0.2078
  132OSM   H16S14188   0.525   3.781   3.915  2.1299  0.1907 -1.2450
  132OSM   H16T14189   0.583   3.912   4.029 -0.6481 -0.5578  2.8702
  132OSM   C17S14190   0.490   3.738   4.122  0.2874 -1.4106  0.4052
  132OSM   H17S14191   0.558   3.723   4.209 -1.5321 -2.8300  1.6144
  132OSM   H17T14192   0.447   3.643   4.083  0.2332 -1.3462  0.3091
  132OSM   C18S14193   0.375   3.825   4.168  0.0348  0.0871 -0.7531
  132OSM   H18S14194   0.323   3.857   4.075  0.6804  2.8566 -0.1831
  132OSM   H18T14195   0.407   3.918   4.220  2.0911 -1.6875  1.2692
  132OSM   H18U14196   0.311   3.768   4.239  1.2885  0.4059  0.6561
  132OSM    C1F14197   0.917   3.369   2.580 -0.3947 -0.2052  1.2321
  132OSM     OF14198   1.008   3.350   2.504  0.1606 -0.1311  0.0215
  132OSM    C2F14199   0.852   3.252   2.649  0.1488 -0.2505  0.2807
  132OSM    H2F14200   0.830   3.172   2.574  0.7847  0.5077 -0.7352
  132OSM    H2G14201   0.753   3.284   2.687  0.0107 -0.7376  0.3304
  132OSM    C3F14202   0.944   3.195   2.755  0.0931 -0.5343 -0.4835
  132OSM    H3F14203   1.045   3.179   2.711 -0.0409  2.4782 -2.0350
  132OSM    H3G14204   0.909   3.097   2.793 -1.1678  0.8717  2.1640
  132OSM    C4F14205   0.955   3.285   2.875 -0.1096  0.7767 -0.7728
  132OSM    H4F14206   0.853   3.311   2.912 -0.5706  0.5818 -1.8818
  132OSM    H4G14207   0.992   3.386   2.848 -2.7235  1.5070 -1.7018
  132OSM    C5F14208   1.051   3.239   2.986 -0.6990  0.0171 -0.1538
  132OSM    H5F14209   1.157   3.249   2.954  0.3833 -2.3920  2.4098
  132OSM    H5G14210   1.036   3.130   2.996 -0.6915  0.0050 -0.2770
  132OSM    C6F14211   1.018   3.311   3.116 -0.6995  0.5020  0.7034
  132OSM    H6F14212   0.929   3.256   3.155  0.0371 -1.1124  0.1284
  132OSM    H6G14213   0.987   3.416   3.096 -2.5464  0.0858  1.2349
  132OSM    C7F14214   1.124   3.290   3.227  0.7982  0.4313  0.1443
  132OSM    H7F14215   1.219   3.335   3.190  0.5436 -0.8509 -2.2278
  132OSM    H7G14216   1.145   3.181   3.237  2.2736  0.4317 -2.3488
  132OSM    C8F14217   1.087   3.339   3.370 -0.7312 -0.5386 -0.6579
  132OSM    H8F14218   1.013   3.271   3.419  0.5222 -1.3141  0.1736
  132OSM    H8G14219   1.039   3.438   3.359 -1.6247 -1.0650 -1.6139
  132OSM    C9F14220   1.215   3.347   3.450 -0.0697  0.2822  0.6060
  132OSM    H9F14221   1.305   3.388   3.402 -1.4776 -0.2221 -2.5611
  132OSM   C10F14222   1.235   3.314   3.579  0.2518 -0.1781 -0.3747
  132OSM   H10F14223   1.338   3.340   3.608 -0.2033  5.1945 -2.9429
  132OSM   C11F14224   1.131   3.253   3.679  0.2274 -0.5236 -0.0874
  132OSM   H11F14225   1.174   3.160   3.722 -1.4678 -0.6252  1.4701
  132OSM   H11G14226   1.034   3.236   3.629  0.6437 -1.6151 -0.5325
  132OSM   C12F14227   1.100   3.353   3.791  0.3531 -0.3501 -0.3220
  132OSM   H12F14228   1.047   3.301   3.873 -2.1500  0.6842 -1.2407
  132OSM   H12G14229   1.034   3.437   3.761 -1.3594 -1.6233 -0.1542
  132OSM   C13F14230   1.213   3.434   3.856 -0.1758  0.7777  0.7184
  132OSM   H13F14231   1.252   3.501   3.777 -1.3203 -1.5467 -1.9043
  132OSM   H13G14232   1.298   3.369   3.889 -0.6137  0.7432  1.8184
  132OSM   C14F14233   1.161   3.526   3.974  0.3678  0.0353  0.1957
  132OSM   H14F14234   1.122   3.452   4.047  0.8660 -1.1041 -0.6723
  132OSM   H14G14235   1.082   3.598   3.943  0.4231  0.1799  0.3941
  132OSM   C15F14236   1.272   3.603   4.038  0.3459 -0.7924  0.5012
  132OSM   H15F14237   1.285   3.694   3.977 -1.6435 -0.9214 -0.1415
  132OSM   H15G14238   1.366   3.544   4.045  1.6798  1.2309  0.1232
  132OSM   C16F14239   1.232   3.638   4.177 -0.3368  0.1304 -0.2540
  132OSM   H16F14240   1.229   3.547   4.241 -0.9532 -0.5100 -1.1940
  132OSM   H16G14241   1.133   3.689   4.171 -0.3882 -0.2673 -3.4161
  132OSM   C17F14242   1.330   3.741   4.245 -0.4397  0.2920 -0.1746
  132OSM   H17F14243   1.280   3.790   4.331 -0.7388 -0.5604  0.1428
  132OSM   H17G14244   1.344   3.828   4.178 -1.7989  0.0789 -0.7536
  132OSM   C18F14245   1.474   3.692   4.279  0.7424  0.3486  0.0523
  132OSM   H18F14246   1.537   3.766   4.332 -0.6561  1.2802  0.4584
  132OSM   H18G14247   1.517   3.644   4.188 -2.0736 -0.6615 -0.8262
  132OSM   H18H14248   1.459   3.610   4.352  0.8481 -1.3175 -1.7341
  133OSM      N14249   6.144   3.315   2.079 -0.0029  0.2369 -0.3145
  133OSM    C1514250   6.200   3.442   2.025  1.0136  0.4106 -0.0782
  133OSM   H15A14251   6.157   3.530   2.069 -2.7086 -0.0910 -2.5287
  133OSM   H15B14252   6.194   3.443   1.917  2.3637  0.1489 -0.1769
  133OSM   H15C14253   6.307   3.447   2.043  0.9834  1.9389 -0.3062
  133OSM    C1414254   5.993   3.315   2.065  0.7674  0.1335 -0.1522
  133OSM   H14A14255   5.961   3.212   2.075  1.1679  0.0801  0.6344
  133OSM   H14B14256   5.971   3.337   1.962 -2.8786  1.4951  0.8442
  133OSM   H14C14257   5.936   3.384   2.125 -1.6982 -1.2739 -0.8298
  133OSM    C1314258   6.209   3.205   1.996  0.1241  0.1548  0.1543
  133OSM   H13A14259   6.157   3.113   2.020 -1.3027  0.3514 -2.1213
  133OSM   H13B14260   6.316   3.197   2.008  0.3669  1.0731 -1.3732
  133OSM   H13C14261   6.180   3.207   1.892  1.8208  0.8048 -0.3237
  133OSM    C1214262   6.183   3.304   2.226 -0.0760 -0.3608  0.5361
  133OSM   H12A14263   6.129   3.222   2.270 -2.5356  0.6681 -0.4880
  133OSM   H12B14264   6.149   3.383   2.291  1.2837 -1.1541  2.2468
  133OSM    C1114265   6.328   3.266   2.268  0.0622 -0.1414 -0.1911
  133OSM   H11A14266   6.325   3.287   2.377  1.4990  0.6314 -0.2946
  133OSM   H11B14267   6.395   3.339   2.218  0.2309  0.1055  0.3833
  133OSM      P14268   6.298   3.002   2.306 -0.0735  0.3085 -0.1842
  133OSM    O1314269   6.187   2.938   2.232  0.0244 -0.2546 -0.3480
  133OSM    O1414270   6.409   2.922   2.347  0.3686  0.4550 -0.1739
  133OSM    O1114271   6.225   3.064   2.436 -0.4014  0.3386 -0.2776
  133OSM    O1214272   6.354   3.130   2.233  0.0172  0.6806  0.1679
  133OSM    C1S14273   6.244   3.009   2.573  0.4563 -0.2717  0.6413
  133OSM    H1S14274   6.327   2.934   2.575  0.6628 -0.0934 -0.5876
  133OSM    H1T14275   6.149   2.960   2.602  0.0897 -1.6067 -2.5096
  133OSM     NF14276   6.333   3.071   2.788  0.3229  0.0571 -0.6441
  133OSM    HNF14277   6.264   3.075   2.859  2.2436 -0.5774  1.3111
  133OSM    C2S14278   6.288   3.127   2.660 -0.6844 -0.1112  0.1984
  133OSM    H2S14279   6.372   3.174   2.605 -0.8116  1.1530  1.0602
  133OSM    C3S14280   6.173   3.228   2.675 -0.1729  0.2262  0.5240
  133OSM    H3S14281   6.087   3.176   2.722  0.3703  0.6365  1.9998
  133OSM     O314282   6.124   3.287   2.552 -0.0257  0.1567 -0.4310
  133OSM    HO314283   6.130   3.216   2.488  1.3225 -2.3574  2.3557
  133OSM    C4S14284   6.228   3.345   2.755  0.5225 -1.0301  0.0781
  133OSM    H4S14285   6.304   3.402   2.699  0.0091  0.1751  0.5959
  133OSM    C5S14286   6.197   3.389   2.880  0.1903  1.0848 -0.2244
  133OSM    H5S14287   6.116   3.335   2.931 -0.3155  0.0635 -2.0342
  133OSM    C6S14288   6.265   3.506   2.938 -0.3012 -0.7143  0.0602
  133OSM    H6S14289   6.196   3.593   2.936 -0.1002 -0.5682 -1.0175
  133OSM    H6T14290   6.351   3.545   2.880 -0.2575 -0.6478  0.1720
  133OSM    C7S14291   6.324   3.474   3.075  0.5366  0.2236 -0.5323
  133OSM    H7S14292   6.414   3.537   3.088  0.5100  0.3123 -0.7761
  133OSM    H7T14293   6.359   3.369   3.091  1.1454  0.4876 -0.1125
  133OSM    C8S14294   6.226   3.513   3.189  0.2487 -0.5925  0.0560
  133OSM    H8S14295   6.147   3.435   3.199  0.6308 -1.2441 -1.8741
  133OSM    H8T14296   6.183   3.611   3.160  1.2244 -1.1033 -3.3404
  133OSM    C9S14297   6.293   3.519   3.323 -0.1380  0.1715 -0.0216
  133OSM    H9S14298   6.315   3.624   3.348  1.1651 -0.1004  0.0037
  133OSM    H9T14299   6.390   3.464   3.315 -0.4588 -0.1193 -2.3803
  133OSM   C10S14300   6.213   3.446   3.433 -0.2800  0.1284 -0.5270
  133OSM   H10S14301   6.106   3.469   3.415 -0.4189 -1.3377 -1.7084
  133OSM   H10T14302   6.248   3.494   3.527 -1.2196  0.6410 -0.4320
  133OSM   C11S14303   6.224   3.292   3.437  0.7337  0.0219 -0.1860
  133OSM   H11S14304   6.313   3.265   3.499  1.0525  0.9658 -0.2243
  133OSM   H11T14305   6.244   3.257   3.334 -2.0858  0.3233 -0.8564
  133OSM   C12S14306   6.086   3.238   3.477  0.3783 -0.6361  0.2752
  133OSM   H12S14307   6.091   3.137   3.430 -1.3276 -1.3402  1.5392
  133OSM   H12T14308   6.006   3.283   3.414 -0.7876 -1.6294  1.0284
  133OSM   C13S14309   6.058   3.225   3.629 -0.2625  0.6135 -0.4330
  133OSM   H13S14310   6.136   3.161   3.675 -1.8760  0.0177  1.5661
  133OSM   H13T14311   5.959   3.175   3.642 -0.9089  1.3371 -2.3669
  133OSM   C14S14312   6.042   3.364   3.697 -0.6491  0.9575 -0.1739
  133OSM   H14S14313   5.953   3.416   3.656  0.0343  1.9898 -0.3652
  133OSM   H14T14314   6.123   3.436   3.673 -0.8967  0.7661 -1.6047
  133OSM   C15S14315   6.015   3.348   3.848 -0.3715  0.0806  0.5351
  133OSM   H15S14316   6.083   3.272   3.892  0.5766 -2.2074 -4.6368
  133OSM   H15T14317   5.912   3.305   3.852 -1.0976  1.1814 -3.7893
  133OSM   C16S14318   6.011   3.482   3.933 -0.2551 -0.7419 -0.0610
  133OSM   H16S14319   5.919   3.534   3.900 -1.6073 -2.8008  0.3228
  133OSM   H16T14320   6.107   3.520   3.891 -0.5243 -1.1071 -1.0098
  133OSM   C17S14321   6.032   3.459   4.083  0.2193 -1.1522 -0.4750
  133OSM   H17S14322   6.129   3.408   4.101 -0.4286 -2.2605 -0.0873
  133OSM   H17T14323   5.957   3.385   4.116 -0.2107  0.9049  3.3901
  133OSM   C18S14324   6.025   3.591   4.159 -0.2767  0.3626 -0.0299
  133OSM   H18S14325   6.108   3.664   4.149  0.9198 -0.8936  0.7445
  133OSM   H18T14326   6.015   3.573   4.268  1.9818 -1.4930 -0.1167
  133OSM   H18U14327   5.931   3.642   4.126 -0.0112  0.7739 -0.1565
  133OSM    C1F14328   6.443   2.998   2.809 -0.0782  0.0433  0.3792
  133OSM     OF14329   6.534   2.994   2.723  0.6914  0.7926  0.0717
  133OSM    C2F14330   6.455   2.927   2.943 -1.0983 -0.5114  0.7489
  133OSM    H2F14331   6.566   2.921   2.951 -0.8028 -1.4420 -2.9426
  133OSM    H2G14332   6.417   2.824   2.926 -0.8214 -0.3876 -0.7542
  133OSM    C3F14333   6.392   2.998   3.063  0.5748  0.0587 -0.7213
  133OSM    H3F14334   6.281   2.996   3.064  0.5260  2.2543  0.0209
  133OSM    H3G14335   6.418   3.105   3.076 -1.2549  0.4546 -0.1870
  133OSM    C4F14336   6.440   2.918   3.186  0.4142  0.3975  0.1126
  133OSM    H4F14337   6.550   2.928   3.200  0.2343  1.0602  1.1568
  133OSM    H4G14338   6.428   2.812   3.156  0.0816  0.6687 -0.7286
  133OSM    C5F14339   6.365   2.955   3.319 -0.4298  0.3332  0.0830
  133OSM    H5F14340   6.256   2.970   3.301 -0.2683 -0.6832 -1.8766
  133OSM    H5G14341   6.399   3.056   3.349 -1.6421  0.9720 -0.6369
  133OSM    C6F14342   6.370   2.849   3.431  0.1199  0.2796  0.1145
  133OSM    H6F14343   6.470   2.858   3.479  0.2421  0.3791 -0.1543
  133OSM    H6G14344   6.355   2.747   3.391  1.5525 -0.1252  0.5792
  133OSM    C7F14345   6.277   2.879   3.547 -0.1923  0.0066 -0.0189
  133OSM    H7F14346   6.170   2.865   3.519  0.6779  0.4202 -3.7568
  133OSM    H7G14347   6.282   2.983   3.586 -2.1642  0.6045 -1.2697
  133OSM    C8F14348   6.302   2.764   3.653 -0.2188  0.3820 -0.6260
  133OSM    H8F14349   6.402   2.772   3.700 -0.2698 -1.8716 -0.0773
  133OSM    H8G14350   6.296   2.668   3.598  0.0156 -1.4800  2.4906
  133OSM    C9F14351   6.195   2.760   3.761 -0.4422 -0.0824 -0.2221
  133OSM    H9F14352   6.106   2.821   3.738 -1.1379 -0.8185  0.4888
  133OSM   C10F14353   6.197   2.688   3.874 -0.4699  0.6111  0.5826
  133OSM   H10F14354   6.119   2.696   3.951 -2.8234 -0.7934 -1.5740
  133OSM   C11F14355   6.320   2.597   3.913 -0.3458 -0.4468 -0.6426
  133OSM   H11F14356   6.408   2.591   3.845  2.0244 -1.3920  2.4361
  133OSM   H11G14357   6.289   2.491   3.926 -0.0727 -0.3182  1.1147
  133OSM   C12F14358   6.378   2.646   4.049 -0.2563 -0.1610  0.2547
  133OSM   H12F14359   6.402   2.754   4.039  0.9328 -0.6333 -2.3496
  133OSM   H12G14360   6.485   2.614   4.049 -0.2439 -0.2252 -2.3340
  133OSM   C13F14361   6.287   2.614   4.167 -1.1755 -0.0992 -0.9141
  133OSM   H13F14362   6.288   2.504   4.183  0.6552  0.0978  0.5679
  133OSM   H13G14363   6.183   2.647   4.148 -1.7807  0.3945  2.9247
  133OSM   C14F14364   6.345   2.680   4.296 -0.3662  0.1059 -0.3531
  133OSM   H14F14365   6.374   2.784   4.270  1.0605 -0.4461 -1.0210
  133OSM   H14G14366   6.443   2.631   4.315 -0.8639  0.4416  3.3412
  133OSM   C15F14367   6.272   2.672   4.426 -0.0542  0.2850  0.4669
  133OSM   H15F14368   6.258   2.566   4.457  0.2787  0.0886 -0.0551
  133OSM   H15G14369   6.170   2.714   4.414  0.0840 -0.1812 -2.9143
  133OSM   C16F14370   6.352   2.746   4.535 -0.6777  0.5633  0.4687
  133OSM   H16F14371   6.366   2.851   4.503  3.6104  0.3325  1.2801
  133OSM   H16G14372   6.453   2.700   4.542 -0.4851  0.9436  0.1735
  133OSM   C17F14373   6.286   2.743   4.676  0.4623 -0.1888  0.3333
  133OSM   H17F14374   6.364   2.757   4.753 -0.9011 -0.4011  1.7763
  133OSM   H17G14375   6.237   2.646   4.701 -1.0150  0.5292  0.2786
  133OSM   C18F14376   6.177   2.844   4.695  0.0134 -0.1244 -0.4688
  133OSM   H18F14377   6.207   2.946   4.663 -0.3425 -0.0123 -0.4520
  133OSM   H18G14378   6.136   2.844   4.799  2.3677 -2.7337  0.5335
  133OSM   H18H14379   6.091   2.821   4.629 -0.2953 -0.7381  0.1299
  134OSM      N14380   5.641   5.567   2.187 -0.1139 -0.4431  0.8550
  134OSM    C1514381   5.564   5.460   2.128 -0.2464 -0.7491  0.2086
  134OSM   H15A14382   5.502   5.416   2.204 -1.6325  0.5313 -0.1678
  134OSM   H15B14383   5.624   5.382   2.083  0.8230 -1.1075  2.1844
  134OSM   H15C14384   5.499   5.507   2.056 -1.1469  0.6562  1.9066
  134OSM    C1414385   5.705   5.645   2.078  0.2100 -0.3508 -0.6432
  134OSM   H14A14386   5.746   5.580   2.002  0.3717  1.4006 -2.0831
  134OSM   H14B14387   5.782   5.710   2.117  0.7552 -2.1618  1.4026
  134OSM   H14C14388   5.641   5.720   2.034  0.1654 -0.3746 -0.6191
  134OSM    C1314389   5.546   5.653   2.269 -0.1118  0.3429  0.5767
  134OSM   H13A14390   5.597   5.718   2.338 -1.0735  1.4502  0.2475
  134OSM   H13B14391   5.487   5.588   2.332 -0.0922  0.6896  0.9512
  134OSM   H13C14392   5.476   5.715   2.216  0.8819  0.8324 -0.1874
  134OSM    C1214393   5.749   5.522   2.278 -0.4037 -0.5710  0.6805
  134OSM   H12A14394   5.698   5.464   2.353 -1.0318 -1.1309 -0.1700
  134OSM   H12B14395   5.793   5.608   2.326 -0.0257  1.1081 -2.5711
  134OSM    C1114396   5.858   5.426   2.223  0.1963  0.8439 -0.7101
  134OSM   H11A14397   5.946   5.423   2.291 -0.9656  1.9325  0.8834
  134OSM   H11B14398   5.913   5.471   2.137  1.4806  0.8208  0.0788
  134OSM      P14399   5.813   5.165   2.243  0.6280  0.0322 -0.2470
  134OSM    O1314400   5.722   5.069   2.176  0.2136 -0.8877 -0.1553
  134OSM    O1414401   5.953   5.135   2.239 -0.7287 -0.0134  0.0229
  134OSM    O1114402   5.768   5.183   2.386  0.3367 -0.1297 -0.0430
  134OSM    O1214403   5.800   5.308   2.186  0.1330  0.1762  0.3535
  134OSM    C1S14404   5.641   5.226   2.418  0.1898  0.5537 -0.9849
  134OSM    H1S14405   5.563   5.161   2.373  1.0712 -1.5236  0.4690
  134OSM    H1T14406   5.619   5.331   2.387 -1.8087 -0.6438 -3.7945
  134OSM     NF14407   5.712   5.327   2.636 -0.1609  0.5231  0.2497
  134OSM    HNF14408   5.804   5.295   2.656  0.5886  1.1369 -2.0179
  134OSM    C2S14409   5.630   5.223   2.575  0.1866 -0.1832  0.0321
  134OSM    H2S14410   5.525   5.252   2.598 -0.0472  1.0063 -2.3683
  134OSM    C3S14411   5.656   5.080   2.625 -0.3299 -0.8309 -0.1312
  134OSM    H3S14412   5.761   5.051   2.603 -0.3739 -1.8677  0.9630
  134OSM     O314413   5.569   4.983   2.572  0.4125 -0.1591  0.1099
  134OSM    HO314414   5.504   5.022   2.513  0.8838  3.6373  1.9149
  134OSM    C4S14415   5.644   5.072   2.779 -0.2361 -0.1202 -1.0039
  134OSM    H4S14416   5.561   5.126   2.826 -0.1269 -0.9068  0.0946
  134OSM    C5S14417   5.715   5.002   2.867  0.3601 -0.0600 -0.0626
  134OSM    H5S14418   5.799   4.935   2.840  0.6597  1.5879 -3.5210
  134OSM    C6S14419   5.695   5.002   3.015  0.2565  0.3690 -0.5009
  134OSM    H6S14420   5.683   4.896   3.045  2.2607  0.3842  0.4376
  134OSM    H6T14421   5.600   5.053   3.040 -0.6232 -1.3789 -0.2040
  134OSM    C7S14422   5.806   5.072   3.098  0.6834  0.2698  0.8546
  134OSM    H7S14423   5.799   5.177   3.062 -0.4750 -0.2052 -0.3218
  134OSM    H7T14424   5.902   5.021   3.071  0.8211  1.0059 -0.0900
  134OSM    C8S14425   5.773   5.068   3.246 -0.4903 -0.1713 -0.1313
  134OSM    H8S14426   5.790   4.964   3.282  0.6959 -0.0527 -0.3273
  134OSM    H8T14427   5.664   5.086   3.258 -0.2540  1.0666  0.2127
  134OSM    C9S14428   5.856   5.167   3.324  0.2440  0.4312  0.0009
  134OSM    H9S14429   5.808   5.267   3.310  0.5170  0.3720 -1.3305
  134OSM    H9T14430   5.963   5.175   3.297 -0.5066  0.1100 -3.1804
  134OSM   C10S14431   5.839   5.138   3.482 -0.6131 -0.2092  0.3076
  134OSM   H10S14432   5.920   5.069   3.513 -0.7020 -1.3879 -1.9817
  134OSM   H10T14433   5.733   5.106   3.491 -1.6350  2.8414 -0.2345
  134OSM   C11S14434   5.870   5.269   3.561 -0.0396 -0.1963  0.8515
  134OSM   H11S14435   5.780   5.330   3.540  0.9026  0.4732 -1.3320
  134OSM   H11T14436   5.943   5.335   3.508 -0.9670  0.9007  0.9151
  134OSM   C12S14437   5.876   5.251   3.710  0.2660 -0.0793 -0.2619
  134OSM   H12S14438   5.793   5.181   3.734  1.1153 -0.7461  0.7809
  134OSM   H12T14439   5.847   5.350   3.751 -3.7196 -2.6427  3.5424
  134OSM   C13S14440   6.012   5.202   3.768 -0.1108  0.0234 -0.6041
  134OSM   H13S14441   6.037   5.098   3.737 -1.8637 -0.4310 -0.5598
  134OSM   H13T14442   5.995   5.214   3.877 -1.7081  0.6591 -0.8983
  134OSM   C14S14443   6.125   5.297   3.728  0.1547  0.4847 -0.2062
  134OSM   H14S14444   6.098   5.402   3.751 -2.3836 -0.5496  1.8830
  134OSM   H14T14445   6.144   5.272   3.622 -1.6414 -1.3761 -0.1177
  134OSM   C15S14446   6.244   5.267   3.822  0.3680 -0.2296  0.1663
  134OSM   H15S14447   6.238   5.163   3.861  0.8276 -0.4296 -0.2886
  134OSM   H15T14448   6.248   5.334   3.910  0.7829 -0.8344  0.6105
  134OSM   C16S14449   6.372   5.285   3.737 -0.1568  0.3882 -0.0810
  134OSM   H16S14450   6.443   5.361   3.776 -0.8035  0.2683  1.3836
  134OSM   H16T14451   6.333   5.310   3.636  1.9837  3.0318 -0.2959
  134OSM   C17S14452   6.445   5.146   3.726  0.0138 -0.3612 -0.1510
  134OSM   H17S14453   6.373   5.073   3.682  0.4554 -1.3733  0.7987
  134OSM   H17T14454   6.458   5.096   3.824  0.9453 -0.7082 -0.4491
  134OSM   C18S14455   6.573   5.148   3.638  0.2309  0.2465 -0.6569
  134OSM   H18S14456   6.619   5.048   3.653  0.6934  0.6760  0.8691
  134OSM   H18T14457   6.644   5.220   3.684  0.0703 -1.1793  1.9407
  134OSM   H18U14458   6.556   5.192   3.538 -0.6203  1.3850 -0.0262
  134OSM    C1F14459   5.680   5.460   2.642 -0.5041  0.4011 -0.4668
  134OSM     OF14460   5.584   5.497   2.580 -0.1893  0.1023 -0.7740
  134OSM    C2F14461   5.778   5.559   2.700  0.4950 -0.0654  0.2778
  134OSM    H2F14462   5.761   5.651   2.639  1.3502 -1.8448 -2.7762
  134OSM    H2G14463   5.878   5.511   2.688  0.2209 -0.2478 -1.4176
  134OSM    C3F14464   5.764   5.594   2.848  0.5171 -0.8817  0.6022
  134OSM    H3F14465   5.673   5.652   2.875  1.7399  1.9056 -1.0943
  134OSM    H3G14466   5.848   5.657   2.881 -0.4838  1.0973 -0.5475
  134OSM    C4F14467   5.770   5.467   2.937  0.4781  0.0849 -0.2705
  134OSM    H4F14468   5.819   5.493   3.033 -0.0593  1.1028 -0.2647
  134OSM    H4G14469   5.827   5.401   2.868  2.4636  0.5147  0.9183
  134OSM    C5F14470   5.632   5.407   2.983  0.0209  0.2662 -0.4071
  134OSM    H5F14471   5.643   5.303   3.022  0.0697  1.5801  3.1949
  134OSM    H5G14472   5.571   5.425   2.892 -0.1755  2.3311  0.1130
  134OSM    C6F14473   5.584   5.482   3.100 -0.7392  0.0362  0.3931
  134OSM    H6F14474   5.581   5.593   3.090 -0.0211 -0.2024 -3.0777
  134OSM    H6G14475   5.660   5.464   3.180  1.2847 -1.3470 -1.7825
  134OSM    C7F14476   5.463   5.420   3.165 -0.0068  0.8162 -0.2256
  134OSM    H7F14477   5.462   5.309   3.167  0.2488  0.8437  1.5220
  134OSM    H7G14478   5.389   5.452   3.089  0.7682 -1.8209 -2.1969
  134OSM    C8F14479   5.424   5.480   3.298 -0.4025  0.4166  0.9049
  134OSM    H8F14480   5.322   5.447   3.326 -0.9544  1.4929  0.2015
  134OSM    H8G14481   5.410   5.589   3.279 -2.2042  0.3521  1.7214
  134OSM    C9F14482   5.524   5.466   3.413  0.3564  0.1272  0.1071
  134OSM    H9F14483   5.611   5.405   3.385 -0.5996 -0.2892 -2.0555
  134OSM   C10F14484   5.494   5.500   3.543 -0.0293 -0.2744 -0.8053
  134OSM   H10F14485   5.574   5.509   3.619  0.5125  2.9235 -1.6593
  134OSM   C11F14486   5.365   5.565   3.591 -0.0496 -0.7656  0.7217
  134OSM   H11F14487   5.286   5.538   3.518  2.3069 -1.5403 -1.5767
  134OSM   H11G14488   5.371   5.676   3.582 -1.5330 -0.7152  0.1588
  134OSM   C12F14489   5.319   5.516   3.729 -0.0298  0.0873  0.0922
  134OSM   H12F14490   5.272   5.415   3.721  0.5668 -0.4184  2.6773
  134OSM   H12G14491   5.242   5.586   3.768  1.7492  1.7736  0.6769
  134OSM   C13F14492   5.419   5.510   3.841 -1.1246 -0.0940  0.4406
  134OSM   H13F14493   5.512   5.459   3.809 -2.4578 -2.1921 -0.2173
  134OSM   H13G14494   5.366   5.435   3.904  1.0826 -3.6046 -1.7211
  134OSM   C14F14495   5.446   5.652   3.898 -0.4678  0.1009  0.3018
  134OSM   H14F14496   5.361   5.723   3.891  1.8059  2.9115  0.1835
  134OSM   H14G14497   5.516   5.721   3.845 -0.2054 -0.0944  0.3956
  134OSM   C15F14498   5.513   5.646   4.040 -0.1184  0.0551 -0.4316
  134OSM   H15F14499   5.575   5.734   4.068 -0.4183  0.0733  0.1742
  134OSM   H15G14500   5.580   5.558   4.026  0.4901  0.1184  1.9402
  134OSM   C16F14501   5.407   5.607   4.146 -0.2541  0.2806  0.7149
  134OSM   H16F14502   5.347   5.523   4.104 -0.2492  0.1438  0.9836
  134OSM   H16G14503   5.339   5.693   4.161  0.8553  1.4860 -0.8900
  134OSM   C17F14504   5.463   5.568   4.282  0.7541 -1.0001 -0.2330
  134OSM   H17F14505   5.539   5.639   4.319 -1.1576 -0.3964  2.7080
  134OSM   H17G14506   5.511   5.470   4.260 -0.3891 -1.8321  0.9165
  134OSM   C18F14507   5.341   5.551   4.381  0.2676 -0.8191  0.9967
  134OSM   H18F14508   5.294   5.651   4.394  0.9466  0.2583 -3.9757
  134OSM   H18G14509   5.390   5.510   4.472  0.8622  0.7174  1.3846
  134OSM   H18H14510   5.265   5.484   4.335 -0.6902  0.1673  1.1274
  135OSM      N14511   0.927   4.639   2.278  0.2080  0.5424  0.1622
  135OSM    C1514512   0.920   4.651   2.431  0.5455  0.1868 -0.2181
  135OSM   H15A14513   0.945   4.750   2.463 -0.8618  0.7695 -0.8828
  135OSM   H15B14514   0.976   4.570   2.476 -3.6705 -3.1224 -0.5912
  135OSM   H15C14515   0.818   4.632   2.463  0.1217  1.9653 -0.4983
  135OSM    C1414516   0.891   4.504   2.230  0.0265  0.2392 -0.6580
  135OSM   H14A14517   0.788   4.477   2.250 -0.1944  0.6659 -1.2008
  135OSM   H14B14518   0.956   4.431   2.275 -0.7670  0.3031  0.6286
  135OSM   H14C14519   0.907   4.491   2.124 -0.3969  1.0714 -0.8331
  135OSM    C1314520   0.819   4.729   2.218 -0.1920 -0.1508  0.3369
  135OSM   H13A14521   0.736   4.725   2.287 -0.2655 -1.1156  0.2039
  135OSM   H13B14522   0.796   4.699   2.117 -0.9802 -0.9334  0.7387
  135OSM   H13C14523   0.848   4.833   2.223  0.9443 -0.4809  0.8999
  135OSM    C1214524   1.065   4.674   2.231 -0.2226 -0.0298  0.2885
  135OSM   H12A14525   1.128   4.595   2.268 -1.4906 -2.0869 -1.8036
  135OSM   H12B14526   1.101   4.762   2.282  1.7368  0.4849 -1.9015
  135OSM    C1114527   1.100   4.696   2.085 -0.2676 -0.2530 -0.0307
  135OSM   H11A14528   1.059   4.621   2.014  1.2503 -0.0055 -1.1993
  135OSM   H11B14529   1.210   4.683   2.078 -0.0797  1.1336  0.2900
  135OSM      P14530   1.084   4.961   2.093 -0.0645 -0.4005 -0.1644
  135OSM    O1314531   1.166   5.034   1.994  0.3429  0.6483  0.4552
  135OSM    O1414532   0.956   5.028   2.127  0.1325 -0.6151  0.1836
  135OSM    O1114533   1.166   4.938   2.228  0.5033  0.0637 -0.0398
  135OSM    O1214534   1.057   4.825   2.036 -0.0073  0.4935 -0.1787
  135OSM    C1S14535   1.313   4.940   2.232 -0.1665 -0.5435 -0.1511
  135OSM    H1S14536   1.355   5.010   2.158  0.4649 -0.9298 -0.1604
  135OSM    H1T14537   1.347   4.841   2.195  0.3197 -0.1548 -0.7507
  135OSM     NF14538   1.327   4.873   2.463  0.2854  0.1290  0.1742
  135OSM    HNF14539   1.249   4.903   2.518 -1.9362 -3.8589 -0.5959
  135OSM    C2S14540   1.373   4.974   2.369  0.4082  0.0853  0.4159
  135OSM    H2S14541   1.483   4.963   2.375  0.3687 -1.5184 -1.4642
  135OSM    C3S14542   1.331   5.113   2.418  0.3914 -0.1746 -0.1554
  135OSM    H3S14543   1.220   5.122   2.409 -0.0270 -2.8535  1.7705
  135OSM     O314544   1.392   5.213   2.333  0.3909  0.1044  0.5886
  135OSM    HO314545   1.457   5.168   2.279  0.3498  1.3138 -0.4992
  135OSM    C4S14546   1.381   5.141   2.564 -0.0711  0.1994  0.1757
  135OSM    H4S14547   1.490   5.149   2.577  0.3537 -2.3278 -1.5390
  135OSM    C5S14548   1.298   5.157   2.665  0.2264 -0.0858  0.6721
  135OSM    H5S14549   1.190   5.143   2.670 -0.0147  2.1355  2.7046
  135OSM    C6S14550   1.345   5.185   2.808  0.0582  0.9271 -0.1517
  135OSM    H6S14551   1.454   5.166   2.824  0.1468  2.2620  0.9841
  135OSM    H6T14552   1.293   5.124   2.885 -1.0168  2.8299  0.6573
  135OSM    C7S14553   1.322   5.333   2.836  1.1487  0.4938 -0.5985
  135OSM    H7S14554   1.215   5.345   2.864  1.3013  1.2604 -0.3257
  135OSM    H7T14555   1.339   5.410   2.758  0.3150  1.1942 -0.0888
  135OSM    C8S14556   1.405   5.381   2.954 -0.1099  0.0942 -0.8553
  135OSM    H8S14557   1.386   5.485   2.988  1.2753 -0.8643  3.0734
  135OSM    H8T14558   1.514   5.366   2.934 -0.4660 -2.0266 -1.3615
  135OSM    C9S14559   1.365   5.301   3.085  0.6502 -0.5504 -0.7155
  135OSM    H9S14560   1.385   5.192   3.071 -0.3546 -0.7865 -0.3624
  135OSM    H9T14561   1.254   5.306   3.092  0.8666  1.1294  2.8047
  135OSM   C10S14562   1.408   5.362   3.217 -0.1774 -0.5018 -0.2004
  135OSM   H10S14563   1.370   5.466   3.228  0.9143  0.1391 -2.1212
  135OSM   H10T14564   1.519   5.362   3.208 -0.0103 -0.4449  1.8223
  135OSM   C11S14565   1.366   5.279   3.340 -0.1865  0.2146 -1.3934
  135OSM   H11S14566   1.270   5.229   3.313 -0.0527 -0.3092 -0.9000
  135OSM   H11T14567   1.356   5.353   3.422  0.9371 -0.8194 -0.3152
  135OSM   C12S14568   1.468   5.180   3.385  0.0522 -0.1626  0.2347
  135OSM   H12S14569   1.572   5.212   3.367  0.6674 -0.6579  2.6878
  135OSM   H12T14570   1.435   5.088   3.331 -2.6626  1.7764 -1.5601
  135OSM   C13S14571   1.445   5.153   3.535  0.0971  0.1201  0.1036
  135OSM   H13S14572   1.340   5.123   3.557  0.0389  0.9474  0.9984
  135OSM   H13T14573   1.460   5.244   3.597  1.2047  0.5274 -0.7581
  135OSM   C14S14574   1.536   5.047   3.594 -0.2977 -0.0004 -0.4349
  135OSM   H14S14575   1.642   5.047   3.561 -0.1307 -0.8526  0.0917
  135OSM   H14T14576   1.483   4.954   3.564 -1.9672  1.1118 -1.0697
  135OSM   C15S14577   1.559   5.041   3.750  0.1383 -0.3974  0.1465
  135OSM   H15S14578   1.637   5.119   3.762 -1.3143  1.1821 -0.5874
  135OSM   H15T14579   1.599   4.940   3.773 -1.7886 -2.2356 -4.0731
  135OSM   C16S14580   1.442   5.067   3.838  0.5415 -0.3738 -0.3752
  135OSM   H16S14581   1.363   4.994   3.809  0.9737 -2.2588  2.8448
  135OSM   H16T14582   1.393   5.165   3.825  2.2320  0.3826 -1.2082
  135OSM   C17S14583   1.472   5.060   3.999  0.9106 -0.1493  0.3256
  135OSM   H17S14584   1.541   5.144   4.024  1.3291 -0.8513  1.5787
  135OSM   H17T14585   1.539   4.971   4.009  1.1363 -0.3838 -2.7876
  135OSM   C18S14586   1.359   5.053   4.098  0.2590 -0.6153  0.2022
  135OSM   H18S14587   1.297   4.966   4.068  0.1957 -0.6341  0.3838
  135OSM   H18T14588   1.300   5.147   4.098 -0.3369 -0.9656 -2.3982
  135OSM   H18U14589   1.404   5.039   4.199  0.8369  0.1382  0.0550
  135OSM    C1F14590   1.347   4.738   2.456  0.0760 -0.8868  0.6370
  135OSM     OF14591   1.428   4.690   2.378 -0.2696 -0.3140 -0.5907
  135OSM    C2F14592   1.264   4.657   2.542  0.0882  0.5900  0.4298
  135OSM    H2F14593   1.322   4.565   2.562  0.3390  1.0874  2.0622
  135OSM    H2G14594   1.182   4.619   2.477  1.5105 -1.0588 -0.4524
  135OSM    C3F14595   1.218   4.720   2.671  0.4600 -0.2578 -0.0508
  135OSM    H3F14596   1.163   4.814   2.648  0.0491 -0.9163 -1.8286
  135OSM    H3G14597   1.302   4.763   2.729  0.3117  0.0235 -0.0418
  135OSM    C4F14598   1.138   4.618   2.747  0.0152 -0.0535  0.1589
  135OSM    H4F14599   1.209   4.538   2.778  2.1820  1.4060 -0.9567
  135OSM    H4G14600   1.058   4.576   2.683 -0.7436  2.4654 -0.5849
  135OSM    C5F14601   1.059   4.671   2.864 -0.0517 -0.7147 -0.2709
  135OSM    H5F14602   0.992   4.595   2.910 -2.2707  1.6040  0.4712
  135OSM    H5G14603   1.001   4.761   2.836  0.0260 -0.3912  0.5965
  135OSM    C6F14604   1.166   4.727   2.973  0.1545 -0.9687  1.0918
  135OSM    H6F14605   1.221   4.809   2.923 -0.1698 -1.4622 -0.1066
  135OSM    H6G14606   1.233   4.649   3.014  1.5988 -1.6545 -2.3330
  135OSM    C7F14607   1.078   4.781   3.085  0.1179 -0.0963 -0.4569
  135OSM    H7F14608   1.034   4.695   3.141  0.9832 -1.7194 -2.2027
  135OSM    H7G14609   0.986   4.830   3.046  0.5872  1.7460  0.7001
  135OSM    C8F14610   1.144   4.883   3.175 -0.0106  0.3121  0.3685
  135OSM    H8F14611   1.063   4.924   3.239 -0.5029 -0.6305  0.3512
  135OSM    H8G14612   1.195   4.966   3.122  0.8393  0.4504  1.3971
  135OSM    C9F14613   1.251   4.810   3.257  0.0036  0.0777  0.2867
  135OSM    H9F14614   1.331   4.772   3.192 -0.7183  1.7991 -1.6471
  135OSM   C10F14615   1.246   4.793   3.395  0.5624  0.7004  0.4055
  135OSM   H10F14616   1.313   4.734   3.459 -0.7587 -0.4812  0.7253
  135OSM   C11F14617   1.136   4.852   3.480  0.0151  0.1974 -0.1807
  135OSM   H11F14618   1.042   4.816   3.434 -0.5090  1.2120  0.0934
  135OSM   H11G14619   1.130   4.961   3.460  0.7667  0.2258 -0.2709
  135OSM   C12F14620   1.141   4.813   3.630  0.3676  0.0976  0.4639
  135OSM   H12F14621   1.228   4.870   3.670  1.2528 -0.0489 -1.2178
  135OSM   H12G14622   1.135   4.706   3.660 -0.7970 -0.5180 -1.8958
  135OSM   C13F14623   1.028   4.896   3.699  0.3918 -0.1725  0.0115
  135OSM   H13F14624   0.931   4.842   3.689  1.2173 -1.7769  0.3742
  135OSM   H13G14625   1.019   4.996   3.654  3.5863  0.1144 -0.1427
  135OSM   C14F14626   1.054   4.918   3.851  0.2215 -0.0711  0.8188
  135OSM   H14F14627   1.146   4.980   3.854  1.1436 -1.2291 -1.6983
  135OSM   H14G14628   1.077   4.824   3.905  1.5367  0.5088  1.2882
  135OSM   C15F14629   0.931   4.985   3.922 -0.1456  0.3636  0.5280
  135OSM   H15F14630   0.853   4.908   3.905 -0.6214  0.5350  1.8590
  135OSM   H15G14631   0.912   5.079   3.866  1.6000  1.5741  1.8862
  135OSM   C16F14632   0.956   5.007   4.070 -0.1047  0.4377 -0.4265
  135OSM   H16F14633   0.873   5.066   4.115 -0.0552  2.4715 -2.8841
  135OSM   H16G14634   1.052   5.058   4.089  1.0628 -2.1842  0.9891
  135OSM   C17F14635   0.963   4.873   4.145  0.0330 -0.3818  0.5435
  135OSM   H17F14636   1.054   4.818   4.116  0.5310  1.0321 -0.6276
  135OSM   H17G14637   0.879   4.801   4.134  0.4496 -1.5610  4.2648
  135OSM   C18F14638   0.956   4.885   4.303 -0.9548 -0.4443 -0.2075
  135OSM   H18F14639   1.046   4.945   4.328  0.3554 -2.1794 -0.6053
  135OSM   H18G14640   0.950   4.789   4.359  0.9359  0.2211  1.1864
  135OSM   H18H14641   0.865   4.937   4.339 -1.1862 -0.6790 -0.4505
  136OSM      N14642   3.386   0.947   1.936 -0.0007 -0.0444 -0.0111
  136OSM    C1514643   3.444   0.806   1.932 -0.1559 -0.1490  0.1809
  136OSM   H15A14644   3.484   0.795   1.833 -3.0700 -0.6282 -0.9775
  136OSM   H15B14645   3.369   0.729   1.935  0.2877 -0.6431 -1.3028
  136OSM   H15C14646   3.529   0.799   1.999 -0.1305 -0.4244  0.1196
  136OSM    C1414647   3.491   1.036   1.872  0.8201  0.3037 -0.0059
  136OSM   H14A14648   3.593   1.020   1.902  1.1729  1.9595 -0.2528
  136OSM   H14B14649   3.485   1.132   1.921  3.6212  2.2244 -3.1315
  136OSM   H14C14650   3.485   1.049   1.764  0.1893 -0.2356 -0.0378
  136OSM    C1314651   3.263   0.942   1.853 -0.5761 -0.0036 -0.0887
  136OSM   H13A14652   3.211   1.036   1.858 -0.7003 -0.0199 -1.0455
  136OSM   H13B14653   3.211   0.854   1.890  2.0593 -1.4588  0.3005
  136OSM   H13C14654   3.285   0.919   1.750 -1.7474  0.9266 -0.5509
  136OSM    C1214655   3.351   0.983   2.081  0.1392 -0.8572 -0.4570
  136OSM   H12A14656   3.441   1.005   2.138 -0.7827  2.6691 -0.2628
  136OSM   H12B14657   3.307   0.894   2.124 -0.8708  0.6133  1.6249
  136OSM    C1114658   3.252   1.099   2.111  0.9669 -0.4758 -0.0406
  136OSM   H11A14659   3.225   1.110   2.219 -0.5448  0.9092 -0.5381
  136OSM   H11B14660   3.155   1.064   2.068  0.6870  1.7469 -1.2892
  136OSM      P14661   3.385   1.338   2.072 -0.5172 -0.3337  0.0213
  136OSM    O1314662   3.511   1.308   1.998 -0.9416  0.3223 -0.1911
  136OSM    O1414663   3.323   1.467   2.032  0.1802 -0.4121 -0.5750
  136OSM    O1114664   3.402   1.340   2.231 -0.2225  0.0437  0.0124
  136OSM    O1214665   3.286   1.220   2.037 -0.2349 -0.0994  0.0899
  136OSM    C1S14666   3.503   1.270   2.300 -0.2867  0.3324 -0.1933
  136OSM    H1S14667   3.602   1.304   2.263 -0.4329  3.2975  2.0089
  136OSM    H1T14668   3.498   1.160   2.280  1.6590  0.0525  0.7205
  136OSM     NF14669   3.589   1.224   2.517 -1.0276  0.1252  0.0153
  136OSM    HNF14670   3.579   1.125   2.523  1.4588 -0.1013  1.3615
  136OSM    C2S14671   3.489   1.299   2.452 -0.2941 -0.9097 -0.0550
  136OSM    H2S14672   3.489   1.410   2.463 -0.4904 -1.0350  1.2615
  136OSM    C3S14673   3.340   1.253   2.497 -0.0200 -0.3740 -0.1728
  136OSM    H3S14674   3.327   1.146   2.472  0.2467 -0.1680 -1.2161
  136OSM     O314675   3.237   1.318   2.431  0.0397  0.7314 -0.3029
  136OSM    HO314676   3.275   1.359   2.353  1.3585 -0.1019 -0.1224
  136OSM    C4S14677   3.328   1.280   2.652 -0.1852  0.3122 -0.5855
  136OSM    H4S14678   3.305   1.387   2.668 -0.5292 -0.2765  3.5663
  136OSM    C5S14679   3.327   1.176   2.743  0.0824  0.5631 -0.6271
  136OSM    H5S14680   3.352   1.077   2.700  0.4522  1.0788 -1.6306
  136OSM    C6S14681   3.317   1.181   2.898  0.1484  1.0565  1.1355
  136OSM    H6S14682   3.404   1.123   2.937  1.5748  3.8901  2.2783
  136OSM    H6T14683   3.222   1.129   2.923  0.2361  1.0608  1.4787
  136OSM    C7S14684   3.320   1.319   2.970  0.3496 -0.0736  0.2721
  136OSM    H7S14685   3.229   1.374   2.938  0.8211  0.1913 -0.6527
  136OSM    H7T14686   3.408   1.380   2.937 -1.1888  1.9275 -0.2614
  136OSM    C8S14687   3.326   1.309   3.121 -0.8242  0.0447 -0.4821
  136OSM    H8S14688   3.233   1.254   3.151  1.3160 -2.8325  1.1713
  136OSM    H8T14689   3.335   1.416   3.151  0.4193 -0.4344  0.9285
  136OSM    C9S14690   3.443   1.234   3.186 -0.5890 -0.0629 -0.0050
  136OSM    H9S14691   3.537   1.271   3.139 -1.7803  1.6911 -1.0421
  136OSM    H9T14692   3.425   1.125   3.170  0.6075 -0.5614  1.9262
  136OSM   C10S14693   3.436   1.265   3.337 -0.5651  1.0230  0.2699
  136OSM   H10S14694   3.347   1.212   3.377 -1.1427  1.2371 -0.7144
  136OSM   H10T14695   3.433   1.375   3.353  1.7128  0.7375  3.0329
  136OSM   C11S14696   3.559   1.211   3.415  0.4650  0.0007  0.0421
  136OSM   H11S14697   3.653   1.261   3.383  0.0385  1.4152  0.9672
  136OSM   H11T14698   3.578   1.107   3.381  0.6280 -0.1651  0.6391
  136OSM   C12S14699   3.537   1.220   3.568 -0.9802 -0.1007  0.9559
  136OSM   H12S14700   3.434   1.186   3.592 -0.6626 -2.8618 -1.3441
  136OSM   H12T14701   3.540   1.328   3.594  1.6309  0.7045 -2.3551
  136OSM   C13S14702   3.643   1.141   3.641  1.9775 -0.2747 -1.0933
  136OSM   H13S14703   3.738   1.190   3.612  0.3830  3.0042 -0.9540
  136OSM   H13T14704   3.665   1.035   3.616  1.4675 -0.2960 -1.4643
  136OSM   C14S14705   3.636   1.173   3.796  0.4848  0.0271  0.2077
  136OSM   H14S14706   3.542   1.127   3.830  1.5939 -3.1618 -0.8482
  136OSM   H14T14707   3.639   1.283   3.812  3.3369  0.1136 -0.6072
  136OSM   C15S14708   3.745   1.107   3.883  0.6257 -0.4969  0.6351
  136OSM   H15S14709   3.712   1.137   3.985 -1.2528 -3.3113  0.9185
  136OSM   H15T14710   3.848   1.145   3.864 -0.0584  0.8308 -0.5346
  136OSM   C16S14711   3.734   0.957   3.885  0.1055 -0.4189  0.1231
  136OSM   H16S14712   3.724   0.919   3.781  0.2858 -4.0904  1.3974
  136OSM   H16T14713   3.636   0.930   3.930  0.8658  2.1052  3.4360
  136OSM   C17S14714   3.838   0.890   3.972  0.2138 -0.1309  0.5854
  136OSM   H17S14715   3.805   0.921   4.074 -2.0941 -0.3066 -0.0873
  136OSM   H17T14716   3.928   0.954   3.964 -0.5244  0.7771 -0.7198
  136OSM   C18S14717   3.865   0.742   3.955 -0.0776  0.0509 -0.4900
  136OSM   H18S14718   3.801   0.681   4.022 -0.6303  1.4092  0.2332
  136OSM   H18T14719   3.968   0.724   3.994  0.0885  0.8597 -0.5316
  136OSM   H18U14720   3.860   0.701   3.852  1.8588 -0.2925 -0.4751
  136OSM    C1F14721   3.703   1.274   2.556  0.6757 -0.8522  0.4055
  136OSM     OF14722   3.719   1.400   2.556 -0.0869  0.7074  0.0982
  136OSM    C2F14723   3.821   1.192   2.558 -0.5583  0.7113 -0.4346
  136OSM    H2F14724   3.904   1.262   2.582  0.2933  0.4346 -2.4931
  136OSM    H2G14725   3.835   1.152   2.455 -1.1220 -0.0622 -0.2213
  136OSM    C3F14726   3.810   1.073   2.658 -0.0768  0.1545 -0.4381
  136OSM    H3F14727   3.725   1.008   2.629  0.7893 -1.5683  0.7489
  136OSM    H3G14728   3.799   1.102   2.765 -0.1051  0.0370 -0.4087
  136OSM    C4F14729   3.929   0.977   2.647 -0.1155 -0.2633  0.4297
  136OSM    H4F14730   4.027   1.017   2.681  0.3139 -1.6260  0.8583
  136OSM    H4G14731   3.956   0.940   2.546 -1.3807 -1.1234  0.3991
  136OSM    C5F14732   3.929   0.860   2.739  0.1577 -0.1770 -0.6338
  136OSM    H5F14733   4.021   0.798   2.729 -1.5305 -2.7844 -0.5748
  136OSM    H5G14734   3.850   0.787   2.709 -1.0933 -0.1934  2.5611
  136OSM    C6F14735   3.898   0.889   2.890  0.2910  0.1930  0.5498
  136OSM    H6F14736   3.797   0.935   2.897  1.1930  2.0754  1.3729
  136OSM    H6G14737   3.972   0.963   2.924  2.2104 -1.0714 -0.7850
  136OSM    C7F14738   3.930   0.767   2.980  0.2016 -0.2416  0.3290
  136OSM    H7F14739   4.039   0.760   2.998  0.2176 -1.7867 -0.2816
  136OSM    H7G14740   3.913   0.677   2.918 -2.0668 -0.1525  0.7750
  136OSM    C8F14741   3.849   0.755   3.109 -0.4856 -0.3340 -0.6355
  136OSM    H8F14742   3.838   0.648   3.133  1.7787 -0.7727 -1.4361
  136OSM    H8G14743   3.746   0.785   3.077 -1.6716 -2.5677  0.9688
  136OSM    C9F14744   3.895   0.845   3.213  0.3972 -0.4671  0.3713
  136OSM    H9F14745   3.952   0.931   3.176 -1.5695  1.4539  1.6905
  136OSM   C10F14746   3.881   0.825   3.346  0.3532 -0.3484 -0.7288
  136OSM   H10F14747   3.937   0.875   3.426  0.1436 -0.4431 -0.5210
  136OSM   C11F14748   3.804   0.711   3.415 -0.5590 -0.6082 -0.0567
  136OSM   H11F14749   3.891   0.649   3.446  0.3239  0.8447  0.3826
  136OSM   H11G14750   3.734   0.658   3.347 -0.7472  1.9478 -1.9429
  136OSM   C12F14751   3.709   0.752   3.535  0.2868  0.0705  0.4917
  136OSM   H12F14752   3.761   0.838   3.582 -0.1717 -0.5703  2.2236
  136OSM   H12G14753   3.693   0.683   3.621 -0.2690 -0.7759 -0.2734
  136OSM   C13F14754   3.572   0.795   3.481 -0.0033 -0.2337  0.4959
  136OSM   H13F14755   3.540   0.709   3.418 -0.3730  0.3537 -0.1256
  136OSM   H13G14756   3.561   0.885   3.416 -0.0130 -0.9296 -0.4752
  136OSM   C14F14757   3.461   0.801   3.590 -0.4363 -0.4985 -0.1059
  136OSM   H14F14758   3.376   0.856   3.543 -0.1037 -0.6845 -0.9359
  136OSM   H14G14759   3.494   0.850   3.684 -1.8972 -1.7196  1.0725
  136OSM   C15F14760   3.416   0.662   3.641  0.0279 -0.1820  0.4905
  136OSM   H15F14761   3.505   0.620   3.693  1.0691  2.7887  1.2473
  136OSM   H15G14762   3.392   0.590   3.560  1.2115 -2.8670  2.4698
  136OSM   C16F14763   3.304   0.680   3.737  0.2374 -0.2494 -0.5120
  136OSM   H16F14764   3.220   0.744   3.701  1.5156  3.4172  2.7073
  136OSM   H16G14765   3.342   0.745   3.819 -0.8936  1.6866 -1.4987
  136OSM   C17F14766   3.255   0.545   3.783  0.5009  0.5398 -0.3990
  136OSM   H17F14767   3.343   0.508   3.840 -0.9348 -1.1840  0.7588
  136OSM   H17G14768   3.224   0.481   3.698  1.7515 -0.9499  0.2457
  136OSM   C18F14769   3.134   0.560   3.874  0.6139 -0.1977 -0.8082
  136OSM   H18F14770   3.052   0.608   3.816 -0.2444 -1.3357 -0.5769
  136OSM   H18G14771   3.158   0.624   3.961 -1.9878  1.9317 -1.5702
  136OSM   H18H14772   3.087   0.463   3.903  2.0413 -0.4687  0.6361
  137OSM      N14773   0.600   3.852   2.162  0.6622  0.3934  0.0498
  137OSM    C1514774   0.712   3.915   2.087  0.2577 -1.4999  0.6159
  137OSM   H15A14775   0.722   4.018   2.116  1.2738 -1.3648 -0.1962
  137OSM   H15B14776   0.702   3.902   1.981 -0.7869 -5.4247  1.1129
  137OSM   H15C14777   0.804   3.863   2.109  0.5751 -1.8093 -1.3489
  137OSM    C1414778   0.598   3.711   2.123  0.0403  0.1739 -0.1146
  137OSM   H14A14779   0.603   3.692   2.017 -2.1605  0.5736 -0.3241
  137OSM   H14B14780   0.514   3.660   2.168 -0.2985 -0.1093 -1.0545
  137OSM   H14C14781   0.682   3.657   2.162 -0.3467 -1.4510 -1.4580
  137OSM    C1314782   0.632   3.862   2.313  0.5749  0.1115 -0.1545
  137OSM   H13A14783   0.731   3.824   2.336 -0.2732 -0.3098  3.0029
  137OSM   H13B14784   0.563   3.806   2.373 -1.8589  4.1550  0.9659
  137OSM   H13C14785   0.614   3.964   2.341 -0.4907  0.4452 -1.9314
  137OSM    C1214786   0.467   3.922   2.139  0.1945 -0.0891  0.8474
  137OSM   H12A14787   0.398   3.896   2.218  0.9089 -3.8161  0.3638
  137OSM   H12B14788   0.427   3.876   2.050 -2.0787  0.3337  1.6396
  137OSM    C1114789   0.471   4.077   2.136  0.1385 -0.1984  0.8791
  137OSM   H11A14790   0.367   4.117   2.136  0.1191 -0.2193 -1.0988
  137OSM   H11B14791   0.516   4.104   2.039 -1.0038  0.7661  0.6077
  137OSM      P14792   0.554   4.292   2.258  0.7561 -0.1276  0.4774
  137OSM    O1314793   0.632   4.342   2.145 -0.1016 -0.8600 -0.9773
  137OSM    O1414794   0.418   4.344   2.284 -0.8466  0.7210 -0.4767
  137OSM    O1114795   0.638   4.314   2.384 -0.5140 -0.0833  0.4632
  137OSM    O1214796   0.540   4.133   2.253  0.1124 -0.5040 -0.0809
  137OSM    C1S14797   0.741   4.214   2.417 -0.0932  0.2218  0.4033
  137OSM    H1S14798   0.824   4.226   2.345 -1.2229  1.7292 -0.6785
  137OSM    H1T14799   0.708   4.108   2.413  1.2146 -0.2192  1.1828
  137OSM     NF14800   0.913   4.179   2.594  0.1794 -0.0080  0.8977
  137OSM    HNF14801   0.907   4.085   2.629  0.3396 -0.4936 -0.3485
  137OSM    C2S14802   0.789   4.241   2.566  0.5254 -0.0005 -0.1611
  137OSM    H2S14803   0.803   4.351   2.582  0.4082 -0.1057  0.6954
  137OSM    C3S14804   0.679   4.198   2.657 -0.2966  0.0879 -0.4789
  137OSM    H3S14805   0.659   4.095   2.621 -2.0637  1.3014 -3.1606
  137OSM     O314806   0.556   4.259   2.630 -0.2567  0.0373  0.2811
  137OSM    HO314807   0.569   4.287   2.539 -1.1190 -0.1309  0.0944
  137OSM    C4S14808   0.715   4.220   2.803 -0.3774 -0.4890  0.3894
  137OSM    H4S14809   0.751   4.321   2.826  0.3363 -1.3603  3.3896
  137OSM    C5S14810   0.713   4.122   2.899  0.1176  0.2021 -0.3359
  137OSM    H5S14811   0.690   4.020   2.866 -0.3387  0.6993 -1.6160
  137OSM    C6S14812   0.740   4.137   3.043 -0.1076 -0.5514  0.2989
  137OSM    H6S14813   0.770   4.038   3.082 -0.6616 -1.1933 -0.8517
  137OSM    H6T14814   0.650   4.172   3.099  0.6825 -1.1497  1.9674
  137OSM    C7S14815   0.854   4.238   3.073 -1.1000 -0.2975  0.5324
  137OSM    H7S14816   0.810   4.340   3.082 -1.5192 -0.6810  3.1711
  137OSM    H7T14817   0.939   4.240   3.001 -0.0211  0.4887  1.8054
  137OSM    C8S14818   0.922   4.212   3.210 -0.7495  0.5291  0.1188
  137OSM    H8S14819   0.971   4.117   3.180 -0.1715  1.4282 -1.8669
  137OSM    H8T14820   0.855   4.184   3.294  1.0200  1.2772  1.8164
  137OSM    C9S14821   1.026   4.309   3.253  0.1127 -0.8426  0.3887
  137OSM    H9S14822   1.101   4.308   3.171 -0.4647 -1.4707 -0.1335
  137OSM    H9T14823   1.076   4.274   3.346  0.3634  0.7551  0.8855
  137OSM   C10S14824   0.984   4.452   3.276 -0.6129 -0.1653 -0.0138
  137OSM   H10S14825   0.927   4.500   3.194  1.5353  0.0317 -1.4272
  137OSM   H10T14826   1.082   4.504   3.282 -1.0292  0.5419  0.8183
  137OSM   C11S14827   0.907   4.461   3.413 -0.3858  0.3840 -0.4626
  137OSM   H11S14828   0.821   4.392   3.398  0.9303 -0.6386 -3.7446
  137OSM   H11T14829   0.868   4.565   3.409 -0.2392  0.4339 -0.6009
  137OSM   C12S14830   0.983   4.464   3.550 -0.1752  0.7517 -0.1307
  137OSM   H12S14831   1.086   4.505   3.543  0.1254  0.1873  0.8061
  137OSM   H12T14832   1.012   4.357   3.565  0.2305  0.8464 -0.2305
  137OSM   C13S14833   0.895   4.505   3.672 -0.4210 -0.4778 -0.0720
  137OSM   H13S14834   0.806   4.439   3.658 -0.0940 -0.7202 -1.0813
  137OSM   H13T14835   0.871   4.613   3.668  0.1099 -0.1808  3.2897
  137OSM   C14S14836   0.966   4.477   3.811 -0.2702  0.3660 -0.1039
  137OSM   H14S14837   1.040   4.559   3.826 -0.2241 -0.3017  3.8756
  137OSM   H14T14838   1.023   4.382   3.813  1.0524  1.1478  0.0784
  137OSM   C15S14839   0.879   4.493   3.934  0.4616  0.0719  0.0943
  137OSM   H15S14840   0.800   4.416   3.946  0.5719  0.0660  0.8341
  137OSM   H15T14841   0.820   4.587   3.926  0.0947 -0.2416 -0.9543
  137OSM   C16S14842   0.968   4.496   4.063 -0.3026 -0.1179 -0.1522
  137OSM   H16S14843   1.027   4.589   4.078  0.2060 -0.1312 -1.9461
  137OSM   H16T14844   1.038   4.409   4.057 -0.4373 -0.2880  0.7491
  137OSM   C17S14845   0.882   4.484   4.185  0.5427  0.2763 -0.3343
  137OSM   H17S14846   0.819   4.395   4.161  0.9910  0.3256 -1.7523
  137OSM   H17T14847   0.806   4.565   4.189  0.7869  0.4712  0.5277
  137OSM   C18S14848   0.957   4.475   4.317  0.4448 -0.3086 -0.0093
  137OSM   H18S14849   1.026   4.389   4.333  1.5217  0.6461  0.5030
  137OSM   H18T14850   0.882   4.472   4.399 -1.2974  1.3954 -1.4711
  137OSM   H18U14851   1.002   4.576   4.327  0.0377  0.0553 -1.6499
  137OSM    C1F14852   1.030   4.227   2.551  0.2861 -0.2242  0.7359
  137OSM     OF14853   1.046   4.340   2.506 -0.0237 -0.1652  0.0612
  137OSM    C2F14854   1.149   4.143   2.575  0.1977  0.1017  0.6640
  137OSM    H2F14855   1.209   4.166   2.485 -0.1994 -2.3976 -0.2808
  137OSM    H2G14856   1.131   4.033   2.580 -0.3429  0.2228  1.5918
  137OSM    C3F14857   1.224   4.194   2.698  0.3576 -0.0551  0.0583
  137OSM    H3F14858   1.258   4.299   2.691 -0.6330  0.2225 -0.5035
  137OSM    H3G14859   1.317   4.132   2.698  0.6133  0.3085  1.4810
  137OSM    C4F14860   1.150   4.172   2.834  0.2880  0.5667  0.1353
  137OSM    H4F14861   1.047   4.212   2.840  0.1603  0.7084 -2.4916
  137OSM    H4G14862   1.210   4.224   2.912  3.0265 -0.1720 -1.4059
  137OSM    C5F14863   1.139   4.031   2.882 -0.0703  0.5251  0.8436
  137OSM    H5F14864   1.113   3.970   2.793 -0.8911  0.2886  1.2430
  137OSM    H5G14865   1.054   4.023   2.953  1.9035  0.7198  3.2631
  137OSM    C6F14866   1.272   3.981   2.947  0.6957 -0.2326  0.3839
  137OSM    H6F14867   1.301   4.066   3.012  1.2753  0.8015 -1.2053
  137OSM    H6G14868   1.341   3.950   2.866 -0.9245 -3.4071  0.1667
  137OSM    C7F14869   1.256   3.853   3.034  0.3448 -0.8287  0.3864
  137OSM    H7F14870   1.262   3.764   2.969 -2.4440 -0.3459 -0.6385
  137OSM    H7G14871   1.154   3.857   3.079  0.0887 -0.3026 -0.2108
  137OSM    C8F14872   1.372   3.848   3.130  0.4813  0.2636 -0.4161
  137OSM    H8F14873   1.362   3.934   3.201 -1.3397  0.2461 -0.6399
  137OSM    H8G14874   1.469   3.872   3.081  0.2547 -0.2536 -1.1176
  137OSM    C9F14875   1.371   3.716   3.204  0.0148 -0.5941  0.1733
  137OSM    H9F14876   1.424   3.639   3.147  0.0521 -1.4743  1.3863
  137OSM   C10F14877   1.311   3.697   3.325  0.1610 -0.6582 -0.4358
  137OSM   H10F14878   1.313   3.598   3.372  1.1795 -0.0990  0.7537
  137OSM   C11F14879   1.246   3.807   3.407 -0.5758  0.0379  0.8128
  137OSM   H11F14880   1.142   3.808   3.368 -0.5340 -1.1497  0.6486
  137OSM   H11G14881   1.284   3.910   3.390 -3.6396  0.8759 -1.4341
  137OSM   C12F14882   1.264   3.780   3.559  0.6117 -0.0924 -0.2755
  137OSM   H12F14883   1.369   3.789   3.593 -0.3874 -0.1272  2.9791
  137OSM   H12G14884   1.233   3.676   3.583 -2.9913  0.7386 -1.0892
  137OSM   C13F14885   1.193   3.880   3.646  0.4613 -0.1180  0.4450
  137OSM   H13F14886   1.243   3.978   3.655  1.4157 -0.5743  0.1810
  137OSM   H13G14887   1.190   3.851   3.753 -0.5896 -1.5019  0.0547
  137OSM   C14F14888   1.042   3.906   3.615  0.4556 -0.2485  0.5000
  137OSM   H14F14889   0.987   3.811   3.629 -0.6535  0.5415  1.6429
  137OSM   H14G14890   1.045   3.938   3.509  0.2301  1.2593  0.9295
  137OSM   C15F14891   0.976   4.014   3.701 -0.5351 -0.4103  0.0354
  137OSM   H15F14892   0.868   4.038   3.688 -0.9498 -1.3482  1.5899
  137OSM   H15G14893   1.018   4.111   3.668  1.6075 -1.5390 -0.6273
  137OSM   C16F14894   0.986   3.994   3.855  0.0916 -0.1812 -0.2717
  137OSM   H16F14895   1.092   4.013   3.884  0.2708 -1.3177 -0.1619
  137OSM   H16G14896   0.966   3.886   3.871 -0.4716  0.2334  2.0203
  137OSM   C17F14897   0.906   4.088   3.947 -0.0201 -0.4175 -0.0619
  137OSM   H17F14898   0.798   4.066   3.933 -0.1922 -1.7895  3.1456
  137OSM   H17G14899   0.915   4.191   3.906 -0.5885  0.0429  0.9528
  137OSM   C18F14900   0.948   4.100   4.095  0.7548  0.5539  0.0187
  137OSM   H18F14901   1.052   4.139   4.095  0.1396  2.2046  0.2317
  137OSM   H18G14902   0.945   4.000   4.144 -0.6727  1.4393  1.7565
  137OSM   H18H14903   0.878   4.155   4.161  0.3527 -0.2237  0.2479
  138OSM      N14904   6.323   1.363   1.714  0.5061  0.0751 -0.6106
  138OSM    C1514905   6.453   1.359   1.635  0.4156  0.2221  0.0104
  138OSM   H15A14906   6.515   1.275   1.662  3.7852  2.5632 -0.1759
  138OSM   H15B14907   6.511   1.449   1.650  1.7097 -0.4533 -0.8373
  138OSM   H15C14908   6.434   1.357   1.529 -3.0003 -0.0017  0.5533
  138OSM    C1414909   6.241   1.485   1.675 -0.2914  0.4436  0.3212
  138OSM   H14A14910   6.261   1.574   1.732  0.1996  1.7667 -1.8582
  138OSM   H14B14911   6.139   1.457   1.700  0.2238 -1.5012  0.3833
  138OSM   H14C14912   6.240   1.505   1.569 -0.2025 -0.0630  0.2193
  138OSM    C1314913   6.248   1.244   1.661 -0.1883  0.2412  0.2708
  138OSM   H13A14914   6.308   1.157   1.684  0.8950  0.4240 -1.7917
  138OSM   H13B14915   6.220   1.254   1.557 -0.3981 -0.2139  0.2816
  138OSM   H13C14916   6.154   1.231   1.714 -1.2543 -2.5825 -2.1787
  138OSM    C1214917   6.348   1.352   1.866  0.2922  0.2666  0.4324
  138OSM   H12A14918   6.406   1.265   1.892  1.1319  1.2948  2.0620
  138OSM   H12B14919   6.249   1.348   1.909 -0.2508  1.7813 -0.6321
  138OSM    C1114920   6.412   1.471   1.942  0.0302  0.2911 -0.1817
  138OSM   H11A14921   6.514   1.483   1.898  0.4007  1.9596  1.0661
  138OSM   H11B14922   6.421   1.448   2.050  2.1165 -0.4279 -0.4706
  138OSM      P14923   6.190   1.595   1.995 -0.0049  0.0516  0.3074
  138OSM    O1314924   6.096   1.651   1.894 -0.2857  0.3044 -0.3241
  138OSM    O1414925   6.156   1.460   2.048  0.5010 -0.1522 -0.1488
  138OSM    O1114926   6.193   1.706   2.110  0.1404  0.0370 -0.3207
  138OSM    O1214927   6.334   1.589   1.926  0.4976  0.1787 -0.1563
  138OSM    C1S14928   6.308   1.717   2.191 -0.3894  0.2678  0.1095
  138OSM    H1S14929   6.328   1.826   2.205  0.2014 -0.0439  1.8318
  138OSM    H1T14930   6.404   1.702   2.138 -1.0756 -0.9884 -0.7815
  138OSM     NF14931   6.342   1.508   2.298 -0.3365 -0.3155 -0.3858
  138OSM    HNF14932   6.263   1.453   2.271 -0.3956 -0.7946  0.7541
  138OSM    C2S14933   6.304   1.646   2.326 -0.5755  0.2701  0.3117
  138OSM    H2S14934   6.385   1.690   2.389 -0.3626  2.2906 -1.3310
  138OSM    C3S14935   6.160   1.658   2.384  0.1710 -0.3692 -0.3120
  138OSM    H3S14936   6.095   1.612   2.307  0.5438 -0.4534 -0.5817
  138OSM     O314937   6.129   1.796   2.384  0.0612  0.6030  1.0157
  138OSM    HO314938   6.173   1.823   2.303  0.1448 -0.4389  0.6988
  138OSM    C4S14939   6.148   1.601   2.516 -0.3809  0.2587  0.4427
  138OSM    H4S14940   6.183   1.651   2.608  0.0219 -1.5048  1.2784
  138OSM    C5S14941   6.066   1.492   2.529  0.5567  0.5369  0.5891
  138OSM    H5S14942   6.019   1.456   2.437  1.8748  1.7708 -0.6114
  138OSM    C6S14943   6.044   1.426   2.662  0.1850  0.0954  0.0497
  138OSM    H6S14944   6.141   1.401   2.711  1.4556  2.1663 -1.3043
  138OSM    H6T14945   5.981   1.339   2.634 -2.5593  2.0730 -0.1758
  138OSM    C7S14946   5.960   1.504   2.759 -0.8817 -0.7314 -0.1274
  138OSM    H7S14947   5.862   1.528   2.711 -0.5430  1.5699  0.2660
  138OSM    H7T14948   6.017   1.595   2.787 -0.2661 -1.6976  1.8308
  138OSM    C8S14949   5.939   1.415   2.883  0.1657  0.2118 -0.2088
  138OSM    H8S14950   5.901   1.315   2.853  2.2362 -0.4470 -0.7199
  138OSM    H8T14951   5.862   1.467   2.943 -0.3675 -1.3462  0.4837
  138OSM    C9S14952   6.063   1.396   2.980 -0.1247 -0.3793 -0.7783
  138OSM    H9S14953   6.107   1.495   3.002 -2.4743  0.2046  1.5423
  138OSM    H9T14954   6.140   1.340   2.923  1.8462  2.5444 -1.1116
  138OSM   C10S14955   6.023   1.321   3.107 -0.1810  0.0780  0.2162
  138OSM   H10S14956   6.112   1.293   3.167  0.8980  2.2824 -0.2999
  138OSM   H10T14957   5.971   1.226   3.083  0.1149  0.2816 -1.2863
  138OSM   C11S14958   5.928   1.407   3.199 -0.3648 -0.0399  1.1416
  138OSM   H11S14959   5.837   1.438   3.145  1.7758  0.8342 -2.1166
  138OSM   H11T14960   5.980   1.502   3.223  0.7417 -0.6907  1.3619
  138OSM   C12S14961   5.883   1.332   3.319 -0.1224  1.3498  0.3206
  138OSM   H12S14962   5.825   1.405   3.379  1.1680  2.9821 -0.3610
  138OSM   H12T14963   5.973   1.295   3.373  0.2882 -0.8722 -1.7681
  138OSM   C13S14964   5.788   1.219   3.298 -0.2144  0.1623  0.0906
  138OSM   H13S14965   5.835   1.136   3.241 -0.1629  1.8339 -2.4124
  138OSM   H13T14966   5.707   1.248   3.227 -1.9287 -0.9758  1.5268
  138OSM   C14S14967   5.695   1.175   3.420 -0.0754  0.3611  0.3422
  138OSM   H14S14968   5.626   1.260   3.437 -0.0768  0.3292  0.4986
  138OSM   H14T14969   5.744   1.171   3.520  3.6377  1.8056 -1.3071
  138OSM   C15S14970   5.624   1.047   3.385 -0.2282 -0.0404  0.2140
  138OSM   H15S14971   5.690   0.957   3.385 -0.9450 -0.5755  0.1618
  138OSM   H15T14972   5.574   1.063   3.287  0.6560  1.1250 -0.0544
  138OSM   C16S14973   5.503   1.015   3.483 -0.0779  0.3073 -0.3342
  138OSM   H16S14974   5.451   1.109   3.511  0.4039  0.0419  1.5458
  138OSM   H16T14975   5.559   0.978   3.572 -1.6905 -1.2818  0.0332
  138OSM   C17S14976   5.403   0.903   3.429  0.2549 -0.1995  0.6711
  138OSM   H17S14977   5.463   0.823   3.381  0.2060  0.7144 -0.9592
  138OSM   H17T14978   5.327   0.945   3.360 -1.4762  2.9985  4.3287
  138OSM   C18S14979   5.323   0.828   3.542  0.2311  0.1611  0.2620
  138OSM   H18S14980   5.252   0.896   3.594 -1.9590 -1.7090 -0.1678
  138OSM   H18T14981   5.387   0.782   3.620  0.1421 -1.7045 -0.7299
  138OSM   H18U14982   5.258   0.748   3.499  0.4680  0.3793 -0.5117
  138OSM    C1F14983   6.466   1.459   2.305 -0.1995  0.2907  0.2185
  138OSM     OF14984   6.564   1.524   2.327  0.4304 -0.3371 -0.4053
  138OSM    C2F14985   6.474   1.315   2.284 -0.2283  0.4975 -0.2588
  138OSM    H2F14986   6.560   1.296   2.216  2.4808  0.4846  3.0408
  138OSM    H2G14987   6.388   1.285   2.221 -0.3403  1.6503 -0.6666
  138OSM    C3F14988   6.489   1.230   2.410  0.4383 -0.0478  0.1544
  138OSM    H3F14989   6.588   1.249   2.456 -0.4683 -0.4473  2.3061
  138OSM    H3G14990   6.497   1.124   2.375  0.6675  0.6548 -1.9696
  138OSM    C4F14991   6.370   1.235   2.505 -0.0993 -0.5844  0.1271
  138OSM    H4F14992   6.276   1.197   2.460 -0.2247 -0.4678  0.2880
  138OSM    H4G14993   6.352   1.339   2.539  0.0660 -0.4617 -0.1591
  138OSM    C5F14994   6.401   1.148   2.630 -0.6262 -0.2510  0.7096
  138OSM    H5F14995   6.511   1.149   2.647 -0.1396 -0.5102 -2.2146
  138OSM    H5G14996   6.372   1.043   2.610  2.1943 -1.1613  1.1859
  138OSM    C6F14997   6.338   1.196   2.764 -0.1510 -0.1038 -0.1801
  138OSM    H6F14998   6.229   1.180   2.756 -0.2054  0.5860 -0.8746
  138OSM    H6G14999   6.348   1.307   2.770  0.2619 -0.0274 -2.0316
  138OSM    C7F15000   6.397   1.135   2.888 -0.2682  0.6441 -0.9914
  138OSM    H7F15001   6.367   1.195   2.977 -0.8904 -2.1914  0.7730
  138OSM    H7G15002   6.508   1.137   2.881  0.0652  1.2791  3.0528
  138OSM    C8F15003   6.354   0.993   2.911  0.1408  0.0868 -0.1885
  138OSM    H8F15004   6.383   0.936   2.820 -0.4524 -1.3405  0.5031
  138OSM    H8G15005   6.245   0.988   2.929  0.2716 -0.7650  0.4215
  138OSM    C9F15006   6.414   0.920   3.030  0.7950 -0.3081 -0.1953
  138OSM    H9F15007   6.497   0.853   3.004 -0.3110 -1.4664 -0.7905
  138OSM   C10F15008   6.382   0.936   3.163  0.2394  0.6620  0.2626
  138OSM   H10F15009   6.428   0.868   3.236 -0.6381  0.9648  1.1061
  138OSM   C11F15010   6.285   1.039   3.224 -0.4659  0.6647  0.4852
  138OSM   H11F15011   6.262   1.105   3.138  0.8662  1.2360  0.5576
  138OSM   H11G15012   6.337   1.097   3.303 -0.7752  1.3703  0.1781
  138OSM   C12F15013   6.151   0.989   3.270 -0.0799 -0.4518 -0.3549
  138OSM   H12F15014   6.113   0.915   3.196  1.4220 -0.8369 -0.7625
  138OSM   H12G15015   6.078   1.073   3.268  0.7355  0.2660  0.1893
  138OSM   C13F15016   6.148   0.930   3.416 -0.7312  0.3780  1.0978
  138OSM   H13F15017   6.209   0.995   3.483 -0.7091  0.6540  0.8120
  138OSM   H13G15018   6.185   0.827   3.400 -2.9266 -0.0625 -1.3780
  138OSM   C14F15019   6.004   0.909   3.462 -0.5394 -0.3303  0.2373
  138OSM   H14F15020   5.963   0.834   3.391  1.0954 -0.3607 -0.6945
  138OSM   H14G15021   5.950   1.005   3.447  2.6267  1.4412 -0.1116
  138OSM   C15F15022   6.002   0.844   3.601 -0.5300  0.2985 -0.0796
  138OSM   H15F15023   6.041   0.917   3.675 -0.1884 -0.5295  0.5665
  138OSM   H15G15024   6.068   0.755   3.595  0.4835  0.9141  1.8052
  138OSM   C16F15025   5.862   0.782   3.641  0.1780 -0.5016 -0.2884
  138OSM   H16F15026   5.822   0.708   3.568 -1.8588 -0.4278  0.7193
  138OSM   H16G15027   5.800   0.874   3.638 -0.1055 -0.6895 -0.3105
  138OSM   C17F15028   5.870   0.718   3.780  0.0007 -0.5556  0.0928
  138OSM   H17F15029   5.940   0.784   3.835 -0.9671  2.2126 -1.8229
  138OSM   H17G15030   5.916   0.617   3.774  0.0074 -0.7379  2.7495
  138OSM   C18F15031   5.734   0.715   3.844  0.0707  0.4962  0.1318
  138OSM   H18F15032   5.683   0.814   3.842 -1.2500 -0.1947 -0.8243
  138OSM   H18G15033   5.746   0.674   3.946  1.8703 -0.5783 -0.4896
  138OSM   H18H15034   5.674   0.635   3.795 -0.0981  2.3189 -2.8199
  139OSM      N15035   7.230   3.588   2.270  0.1079  0.3805  0.0980
  139OSM    C1515036   7.132   3.496   2.335  0.0301 -0.7798  0.3166
  139OSM   H15A15037   7.055   3.552   2.386 -0.4147  0.5026 -1.6674
  139OSM   H15B15038   7.178   3.426   2.403  1.3591  0.9821  1.2805
  139OSM   H15C15039   7.091   3.432   2.258  0.8179 -2.1113  0.9972
  139OSM    C1415040   7.329   3.512   2.186 -0.0065  0.4471 -0.5036
  139OSM   H14A15041   7.278   3.449   2.116  1.0941 -1.3240  0.2393
  139OSM   H14B15042   7.385   3.443   2.248 -0.0174  1.1841  0.3485
  139OSM   H14C15043   7.406   3.568   2.134  0.9112  0.3459  0.7066
  139OSM    C1315044   7.151   3.684   2.183  0.0432  0.0835 -0.8774
  139OSM   H13A15045   7.100   3.621   2.112  1.7207 -2.6658  0.2864
  139OSM   H13B15046   7.215   3.750   2.125 -0.2108 -1.4205 -2.9226
  139OSM   H13C15047   7.081   3.746   2.237  0.9592  0.1306  0.2656
  139OSM    C1215048   7.308   3.676   2.380  0.1074 -0.4695  0.2472
  139OSM   H12A15049   7.233   3.737   2.427 -0.1231  0.1486 -0.9206
  139OSM   H12B15050   7.378   3.750   2.344  1.0299 -0.3916  2.1263
  139OSM    C1115051   7.387   3.603   2.478 -0.5460 -0.1136  0.3833
  139OSM   H11A15052   7.325   3.517   2.511 -0.7177  0.2638  1.0595
  139OSM   H11B15053   7.409   3.664   2.569  0.9947 -0.6420  0.3898
  139OSM      P15054   7.627   3.654   2.395  0.1208 -0.4794 -0.0637
  139OSM    O1315055   7.720   3.564   2.322 -0.0732 -0.5677  0.1875
  139OSM    O1415056   7.584   3.781   2.331 -0.1516 -0.2254  0.4595
  139OSM    O1115057   7.692   3.678   2.532 -0.6537  0.0669 -0.4746
  139OSM    O1215058   7.506   3.555   2.418 -0.5271  0.4128 -0.1373
  139OSM    C1S15059   7.719   3.580   2.632  0.0723 -1.2466  0.2099
  139OSM    H1S15060   7.813   3.522   2.618 -0.2347 -1.5591 -0.5520
  139OSM    H1T15061   7.636   3.507   2.633  0.2494 -1.4447  0.3697
  139OSM     NF15062   7.755   3.535   2.870 -0.0222 -0.3501  0.4606
  139OSM    HNF15063   7.675   3.500   2.918  0.0889 -0.4722  0.5596
  139OSM    C2S15064   7.741   3.644   2.778 -0.4542 -0.5893  0.0208
  139OSM    H2S15065   7.836   3.701   2.785  0.8333 -2.8437  1.7864
  139OSM    C3S15066   7.618   3.736   2.814 -0.3330 -0.0272  0.3004
  139OSM    H3S15067   7.524   3.678   2.810  0.6114 -1.4354 -2.9586
  139OSM     O315068   7.597   3.848   2.729  0.1634 -0.4035  0.7578
  139OSM    HO315069   7.637   3.814   2.648 -1.3443  0.8125 -0.5245
  139OSM    C4S15070   7.644   3.789   2.952  0.1075 -0.0093  1.2340
  139OSM    H4S15071   7.733   3.854   2.955  2.2088 -2.7646  0.5073
  139OSM    C5S15072   7.581   3.755   3.063 -0.2567  0.7167 -0.0163
  139OSM    H5S15073   7.484   3.703   3.057 -0.0381  0.3817 -0.7849
  139OSM    C6S15074   7.617   3.810   3.198 -0.0156 -0.6301 -0.3726
  139OSM    H6S15075   7.625   3.740   3.284 -0.5134  1.2515  1.2269
  139OSM    H6T15076   7.543   3.889   3.220 -0.3373 -1.3216  1.0863
  139OSM    C7S15077   7.754   3.878   3.213  0.8087 -0.8366 -0.3341
  139OSM    H7S15078   7.774   3.956   3.137 -0.6335  0.3128  0.4387
  139OSM    H7T15079   7.824   3.794   3.193  0.9106 -1.1882  1.4078
  139OSM    C8S15080   7.772   3.928   3.352 -0.4142 -0.5173 -0.1484
  139OSM    H8S15081   7.781   3.852   3.433 -3.0928 -0.0039  0.6731
  139OSM    H8T15082   7.680   3.981   3.384 -0.6564  0.0327 -1.7314
  139OSM    C9S15083   7.902   4.011   3.380 -0.5306  0.8612  1.0472
  139OSM    H9S15084   7.926   4.092   3.308 -0.4563 -0.9726 -1.0211
  139OSM    H9T15085   7.983   3.935   3.382 -0.2448  1.1655  0.8984
  139OSM   C10S15086   7.921   4.084   3.518 -0.0193 -0.1449  0.5703
  139OSM   H10S15087   8.028   4.105   3.537 -0.1792 -1.6569  3.4097
  139OSM   H10T15088   7.889   4.023   3.605 -0.0913  0.3432  0.8875
  139OSM   C11S15089   7.830   4.206   3.528 -0.5325 -0.1152 -0.7234
  139OSM   H11S15090   7.728   4.176   3.497 -0.7721  2.2658 -2.4092
  139OSM   H11T15091   7.873   4.279   3.457  0.2633 -2.3872 -2.6270
  139OSM   C12S15092   7.843   4.257   3.668  0.4692  0.0543 -1.1129
  139OSM   H12S15093   7.951   4.249   3.695  0.1329  1.8026  0.8599
  139OSM   H12T15094   7.795   4.188   3.741  2.5456  0.2860  0.5302
  139OSM   C13S15095   7.789   4.395   3.694 -0.1787  0.6808  0.1090
  139OSM   H13S15096   7.707   4.407   3.620  0.2243  2.7285 -0.0525
  139OSM   H13T15097   7.871   4.465   3.666  0.1026  0.6960  0.9772
  139OSM   C14S15098   7.734   4.428   3.841 -0.5322  0.5687  0.7626
  139OSM   H14S15099   7.815   4.441   3.916 -0.6731  2.0770  0.6822
  139OSM   H14T15100   7.681   4.335   3.869  1.4172 -0.9980 -0.6316
  139OSM   C15S15101   7.638   4.545   3.844 -0.3415  0.3119  0.4632
  139OSM   H15S15102   7.548   4.525   3.782 -0.4312  0.8139  0.4321
  139OSM   H15T15103   7.694   4.637   3.818  1.7977 -1.5194 -1.6368
  139OSM   C16S15104   7.567   4.566   3.982  0.5506  0.0548  1.0347
  139OSM   H16S15105   7.500   4.482   4.012  0.0037  1.2543  3.3498
  139OSM   H16T15106   7.505   4.658   3.975  0.5919 -0.0020 -0.0354
  139OSM   C17S15107   7.667   4.588   4.099  0.5348  0.7141  0.7862
  139OSM   H17S15108   7.765   4.614   4.053  0.7280 -1.7719 -0.2939
  139OSM   H17T15109   7.689   4.500   4.163 -0.4929  0.4346  0.7548
  139OSM   C18S15110   7.629   4.707   4.186 -0.7330 -0.0796  0.8463
  139OSM   H18S15111   7.534   4.684   4.237 -1.5858 -1.9095 -1.4448
  139OSM   H18T15112   7.610   4.787   4.111 -1.4318 -0.1426  0.9494
  139OSM   H18U15113   7.708   4.740   4.257 -1.0825 -0.0677  1.2283
  139OSM    C1F15114   7.872   3.462   2.868  0.1579 -0.1860 -0.5158
  139OSM     OF15115   7.966   3.491   2.796  0.1234  0.8117 -0.0304
  139OSM    C2F15116   7.878   3.340   2.952 -0.1544  0.5694 -0.3788
  139OSM    H2F15117   7.947   3.269   2.901  0.7558  0.8280  0.4618
  139OSM    H2G15118   7.776   3.297   2.944 -0.4035  0.6457  2.0056
  139OSM    C3F15119   7.923   3.373   3.099  0.1447  0.2966 -0.0277
  139OSM    H3F15120   7.841   3.437   3.139  0.3116  0.0087  0.7718
  139OSM    H3G15121   8.026   3.414   3.096  0.5253 -0.5876  0.8213
  139OSM    C4F15122   7.923   3.251   3.193 -0.1339 -0.0053  0.0606
  139OSM    H4F15123   7.992   3.177   3.148  1.8035  2.8781 -1.8943
  139OSM    H4G15124   7.826   3.198   3.197 -1.3740  2.2588  1.1186
  139OSM    C5F15125   7.959   3.278   3.334 -0.5048 -0.1847 -0.0798
  139OSM    H5F15126   7.894   3.351   3.386 -1.1530 -0.5396 -0.3897
  139OSM    H5G15127   8.067   3.305   3.344 -0.8144  0.2232  2.5693
  139OSM    C6F15128   7.957   3.161   3.435 -0.2436  0.1973 -0.6133
  139OSM    H6F15129   8.024   3.083   3.393  1.5398  1.4563 -0.1640
  139OSM    H6G15130   7.853   3.121   3.439 -0.3461  0.6001  2.6948
  139OSM    C7F15131   8.016   3.200   3.564  0.3852 -0.2065 -0.1632
  139OSM    H7F15132   7.945   3.279   3.596  0.9608  1.0731 -1.9533
  139OSM    H7G15133   8.115   3.248   3.551  0.8707 -0.8671  1.0596
  139OSM    C8F15134   8.019   3.088   3.670  0.1944 -0.0199 -0.0495
  139OSM    H8F15135   8.083   3.000   3.647 -0.2398 -0.4739  0.4837
  139OSM    H8G15136   7.917   3.044   3.678 -0.7322  1.9120 -0.9672
  139OSM    C9F15137   8.076   3.129   3.804  0.2874  0.1948  0.0683
  139OSM    H9F15138   8.183   3.115   3.825  0.5106  0.3047 -0.9806
  139OSM   C10F15139   8.015   3.180   3.912  0.6854 -0.6813 -0.3915
  139OSM   H10F15140   8.075   3.173   4.004 -0.4354 -0.3065  0.3744
  139OSM   C11F15141   7.871   3.224   3.938 -0.4243  0.4795  0.0862
  139OSM   H11F15142   7.810   3.242   3.847 -0.5952  0.1404  0.1309
  139OSM   H11G15143   7.881   3.321   3.991 -0.9071  0.2311  0.6376
  139OSM   C12F15144   7.788   3.130   4.031 -0.5813 -0.0857 -0.5158
  139OSM   H12F15145   7.830   3.128   4.134 -0.7710  0.5023 -0.4227
  139OSM   H12G15146   7.812   3.035   3.979  1.5235  0.2786 -0.2326
  139OSM   C13F15147   7.632   3.157   4.046  0.5556 -0.1390 -0.2193
  139OSM   H13F15148   7.576   3.082   4.107 -1.2660 -0.6161 -2.3875
  139OSM   H13G15149   7.593   3.165   3.943 -0.7045  4.0811  0.4665
  139OSM   C14F15150   7.606   3.297   4.111 -0.1639 -0.0859  0.2792
  139OSM   H14F15151   7.667   3.371   4.054  0.5542 -0.6584  0.2956
  139OSM   H14G15152   7.637   3.301   4.218  0.5411 -1.3648  0.1318
  139OSM   C15F15153   7.458   3.344   4.111  0.3020 -0.0696  0.5067
  139OSM   H15F15154   7.382   3.272   4.147  1.0492 -1.0906  0.0683
  139OSM   H15G15155   7.431   3.365   4.005 -0.9412  1.7310  1.1426
  139OSM   C16F15156   7.437   3.478   4.184 -0.0845 -0.3098  0.0014
  139OSM   H16F15157   7.498   3.559   4.139  0.0842  0.4840  1.5979
  139OSM   H16G15158   7.458   3.471   4.293 -2.5511  0.7261  0.5698
  139OSM   C17F15159   7.291   3.533   4.180  0.3414 -0.4891 -0.3397
  139OSM   H17F15160   7.229   3.459   4.234 -0.5001  0.1740 -0.3969
  139OSM   H17G15161   7.261   3.528   4.073 -1.1118 -0.7679  0.0725
  139OSM   C18F15162   7.288   3.674   4.247  0.1779 -0.6824  0.4378
  139OSM   H18F15163   7.337   3.677   4.347  0.8645 -1.1325  0.1123
  139OSM   H18G15164   7.180   3.685   4.273  0.2568 -2.1163  1.4588
  139OSM   H18H15165   7.335   3.756   4.190 -0.3979 -1.4219 -1.1214
  140OSM      N15166   7.005   1.962   1.826  0.0224  0.6960  0.0491
  140OSM    C1515167   6.919   1.859   1.764  0.7047  0.1680 -0.9282
  140OSM   H15A15168   6.979   1.788   1.707  0.7078 -1.5774  1.1787
  140OSM   H15B15169   6.836   1.900   1.710 -0.3182 -2.1560 -1.1945
  140OSM   H15C15170   6.862   1.811   1.842  1.9076  0.7365  0.3335
  140OSM    C1415171   7.098   2.002   1.724  0.3150 -0.7860  0.7094
  140OSM   H14A15172   7.174   1.927   1.710  0.3754 -0.3827 -1.1837
  140OSM   H14B15173   7.149   2.096   1.740  2.2372 -1.4875 -1.1494
  140OSM   H14C15174   7.048   2.008   1.629 -0.3668  0.6557  1.1433
  140OSM    C1315175   6.924   2.088   1.880 -0.2271 -0.1458  0.4814
  140OSM   H13A15176   6.991   2.150   1.939 -0.3868  0.9042 -0.4316
  140OSM   H13B15177   6.839   2.065   1.941 -1.0587  1.1055 -0.1789
  140OSM   H13C15178   6.887   2.148   1.798 -3.3655  0.0446  1.9964
  140OSM    C1215179   7.075   1.904   1.947  0.1631  0.1396 -0.5243
  140OSM   H12A15180   7.142   1.973   1.998  1.6222 -2.1024  0.6700
  140OSM   H12B15181   7.146   1.829   1.916 -1.0671 -1.2249 -0.0524
  140OSM    C1115182   6.977   1.858   2.068 -0.0399 -0.1197  0.8299
  140OSM   H11A15183   7.041   1.829   2.154  0.4113 -1.5992  0.0092
  140OSM   H11B15184   6.921   1.768   2.035  0.2781 -0.3613  0.9501
  140OSM      P15185   6.924   2.059   2.223 -0.2700 -0.3650 -0.1373
  140OSM    O1315186   7.068   2.058   2.248  0.2745 -0.5626  0.3932
  140OSM    O1415187   6.873   2.195   2.197  0.1683  0.2287 -0.1458
  140OSM    O1115188   6.845   1.998   2.346  0.4781  0.0521 -0.1817
  140OSM    O1215189   6.877   1.962   2.108 -0.2901 -0.0817  0.3834
  140OSM    C1S15190   6.826   1.857   2.355  0.4924  0.4740 -0.4795
  140OSM    H1S15191   6.918   1.797   2.340 -0.5737 -1.3562  0.1525
  140OSM    H1T15192   6.766   1.816   2.271  0.4538  1.0442 -0.7334
  140OSM     NF15193   6.753   1.672   2.500  0.1068 -0.9193  0.2146
  140OSM    HNF15194   6.664   1.635   2.475  1.6001 -2.2119 -3.6185
  140OSM    C2S15195   6.764   1.818   2.489  0.1747  0.2888  0.4574
  140OSM    H2S15196   6.819   1.860   2.576 -0.3462 -2.7559  2.3615
  140OSM    C3S15197   6.619   1.890   2.500  0.9009  0.1783  1.2587
  140OSM    H3S15198   6.555   1.832   2.430  1.2545  1.6055 -0.2851
  140OSM     O315199   6.606   2.029   2.473 -0.3719  0.0401 -0.2986
  140OSM    HO315200   6.691   2.044   2.430  0.3423  0.7148  1.3001
  140OSM    C4S15201   6.565   1.861   2.639 -0.6611  0.0819  0.0725
  140OSM    H4S15202   6.625   1.912   2.716  0.2241 -0.6630 -0.1161
  140OSM    C5S15203   6.454   1.782   2.662 -0.2364 -0.4170  0.7309
  140OSM    H5S15204   6.415   1.732   2.572  1.4743 -2.1921  0.9388
  140OSM    C6S15205   6.396   1.747   2.801  0.5209 -0.0857 -0.5275
  140OSM    H6S15206   6.286   1.764   2.807 -0.1775 -3.8874 -1.4445
  140OSM    H6T15207   6.445   1.812   2.877 -1.2965 -1.1214  1.6132
  140OSM    C7S15208   6.419   1.595   2.836 -0.3706  0.1701  0.0143
  140OSM    H7S15209   6.527   1.569   2.827 -0.6030 -0.7349 -0.2320
  140OSM    H7T15210   6.362   1.530   2.766  1.3395 -0.4902 -0.7782
  140OSM    C8S15211   6.378   1.550   2.975  0.4164  0.0308  0.1095
  140OSM    H8S15212   6.342   1.445   2.969 -0.8159  0.4827 -0.7306
  140OSM    H8T15213   6.288   1.610   3.001 -0.8503 -1.9762  0.4710
  140OSM    C9S15214   6.481   1.554   3.092 -0.5021  0.2490 -0.2553
  140OSM    H9S15215   6.537   1.650   3.085  1.6728 -0.9331  0.3049
  140OSM    H9T15216   6.552   1.468   3.089  0.0506  0.7433 -3.9699
  140OSM   C10S15217   6.414   1.552   3.232 -0.3415  0.1662 -0.3528
  140OSM   H10S15218   6.393   1.449   3.269 -3.3185  0.4567 -1.1616
  140OSM   H10T15219   6.320   1.610   3.223  0.5185  1.5207 -0.7538
  140OSM   C11S15220   6.494   1.621   3.345 -0.3148 -0.1148  0.0140
  140OSM   H11S15221   6.447   1.594   3.441 -1.5047 -1.4720 -0.9218
  140OSM   H11T15222   6.495   1.731   3.329  1.7527 -0.5229 -3.1797
  140OSM   C12S15223   6.647   1.586   3.352  0.7283  0.5658 -0.1859
  140OSM   H12S15224   6.687   1.620   3.254 -0.3509  1.1993 -0.4170
  140OSM   H12T15225   6.650   1.476   3.363  0.3208  0.5997  0.2896
  140OSM   C13S15226   6.712   1.661   3.466  0.8959  0.2886 -0.2953
  140OSM   H13S15227   6.640   1.647   3.550  0.5966  0.9671 -0.4306
  140OSM   H13T15228   6.711   1.769   3.440 -0.4206  0.5354  0.6813
  140OSM   C14S15229   6.855   1.610   3.503  0.0439 -0.7096  0.1502
  140OSM   H14S15230   6.900   1.599   3.402  0.0868 -0.5602  0.1536
  140OSM   H14T15231   6.844   1.506   3.542  0.3323 -0.6781  0.3100
  140OSM   C15S15232   6.933   1.700   3.598  0.3618  0.2548  0.4630
  140OSM   H15S15233   6.942   1.799   3.550  2.6653 -0.9114 -1.6743
  140OSM   H15T15234   7.038   1.664   3.603  0.4745  0.4953 -0.1361
  140OSM   C16S15235   6.863   1.708   3.731 -0.1999  0.0601 -0.0585
  140OSM   H16S15236   6.879   1.607   3.774 -2.0972  0.7155  2.3419
  140OSM   H16T15237   6.754   1.729   3.737 -0.5075 -1.8444  1.5729
  140OSM   C17S15238   6.937   1.812   3.829  0.1338 -0.4434  0.2466
  140OSM   H17S15239   6.917   1.910   3.780 -0.5316 -0.4329  0.5292
  140OSM   H17T15240   7.046   1.790   3.825  0.2643  0.1385  0.5804
  140OSM   C18S15241   6.883   1.782   3.966 -0.4895 -0.1066 -0.2001
  140OSM   H18S15242   6.932   1.688   4.001 -0.1805 -0.3765 -1.3436
  140OSM   H18T15243   6.772   1.776   3.960 -0.4219 -2.8616  0.5646
  140OSM   H18U15244   6.895   1.871   4.032  0.5772 -1.1170  1.0173
  140OSM    C1F15245   6.858   1.587   2.515  0.4588  0.0322 -0.3766
  140OSM     OF15246   6.971   1.631   2.520  0.7270  0.1020 -0.8817
  140OSM    C2F15247   6.819   1.439   2.507 -0.0446  0.3582  0.6275
  140OSM    H2F15248   6.838   1.402   2.404 -1.7510 -0.0661  0.4457
  140OSM    H2G15249   6.710   1.434   2.526 -0.2726 -3.3056 -1.2329
  140OSM    C3F15250   6.890   1.356   2.626 -0.0324 -0.5575  0.9114
  140OSM    H3F15251   6.998   1.381   2.622  0.1823 -1.3155  1.8190
  140OSM    H3G15252   6.874   1.251   2.594 -1.9318 -0.1083  0.3159
  140OSM    C4F15253   6.823   1.376   2.759  0.4868  0.2857  0.6263
  140OSM    H4F15254   6.714   1.397   2.746  0.3407 -0.3298  0.8238
  140OSM    H4G15255   6.859   1.466   2.812  0.8282  0.2713  0.4126
  140OSM    C5F15256   6.838   1.256   2.852 -0.2039 -0.1874 -0.2007
  140OSM    H5F15257   6.947   1.239   2.864 -0.2157  2.1667  4.0030
  140OSM    H5G15258   6.784   1.172   2.803 -1.0757  1.4834 -2.1996
  140OSM    C6F15259   6.782   1.282   2.990 -0.2849  0.4473  0.2248
  140OSM    H6F15260   6.674   1.302   2.970 -1.1791 -1.7917  2.5168
  140OSM    H6G15261   6.822   1.372   3.041  0.9280 -0.0879  0.2388
  140OSM    C7F15262   6.778   1.158   3.081  0.3349 -0.5894 -0.2282
  140OSM    H7F15263   6.878   1.111   3.084  0.9397  0.4716 -2.3049
  140OSM    H7G15264   6.708   1.084   3.036  1.5804 -0.7881 -1.8791
  140OSM    C8F15265   6.729   1.199   3.221 -0.6345 -0.0994  0.1183
  140OSM    H8F15266   6.623   1.230   3.207  0.0371  2.0192 -0.4808
  140OSM    H8G15267   6.782   1.291   3.256  1.1873 -1.7520  1.8223
  140OSM    C9F15268   6.738   1.084   3.317 -0.0953  0.0262  0.4060
  140OSM    H9F15269   6.724   0.984   3.273  1.8909 -0.0522 -0.1221
  140OSM   C10F15270   6.751   1.105   3.451 -0.4545 -0.7933  0.6913
  140OSM   H10F15271   6.758   1.017   3.517 -3.9574  0.3337  2.7040
  140OSM   C11F15272   6.757   1.231   3.535 -0.2220 -0.2378  0.5024
  140OSM   H11F15273   6.726   1.314   3.468 -0.7614 -3.4233 -3.3831
  140OSM   H11G15274   6.861   1.252   3.569 -0.1373  1.1711 -0.5758
  140OSM   C12F15275   6.660   1.229   3.653  0.6287 -0.8013  0.0595
  140OSM   H12F15276   6.691   1.155   3.730  1.1643 -0.0021  0.6227
  140OSM   H12G15277   6.557   1.196   3.630  0.2389  0.0715  0.5017
  140OSM   C13F15278   6.639   1.374   3.715  0.0579  0.4922  0.0920
  140OSM   H13F15279   6.569   1.436   3.656 -0.2252  0.8268  0.7773
  140OSM   H13G15280   6.739   1.424   3.714  0.1748  0.2681  0.3762
  140OSM   C14F15281   6.584   1.367   3.857 -0.5072 -0.3496  0.4340
  140OSM   H14F15282   6.654   1.320   3.929 -0.3968  0.5389  0.9164
  140OSM   H14G15283   6.491   1.307   3.860 -1.2904  0.8605  1.0738
  140OSM   C15F15284   6.556   1.509   3.908 -0.6202  0.4103  0.2957
  140OSM   H15F15285   6.496   1.567   3.834  1.2347  1.5718 -0.3283
  140OSM   H15G15286   6.649   1.569   3.905 -2.3076  3.0384 -2.2781
  140OSM   C16F15287   6.484   1.517   4.042  0.5237  0.4150  0.0143
  140OSM   H16F15288   6.384   1.468   4.038  1.4581 -1.5075 -0.8036
  140OSM   H16G15289   6.463   1.625   4.059  1.8564  0.6216  0.3905
  140OSM   C17F15290   6.564   1.461   4.158 -0.3761  0.3140  0.1855
  140OSM   H17F15291   6.581   1.351   4.153 -0.1223  0.3438  0.3498
  140OSM   H17G15292   6.508   1.471   4.253 -1.7188  2.0728 -0.7881
  140OSM   C18F15293   6.698   1.530   4.175 -0.4481 -0.0397 -0.0278
  140OSM   H18F15294   6.681   1.637   4.152 -0.9471  0.1326  1.0956
  140OSM   H18G15295   6.774   1.495   4.103 -0.7138  0.3739 -0.5109
  140OSM   H18H15296   6.730   1.511   4.280  2.7356 -1.3681 -1.1870
  141OSM      N15297   1.490   6.909   2.265 -0.7543  1.0691  0.3677
  141OSM    C1515298   1.544   6.795   2.184 -0.4990 -0.0148  0.0501
  141OSM   H15A15299   1.649   6.817   2.172 -0.4874  0.4885  1.0690
  141OSM   H15B15300   1.493   6.787   2.089  1.4286 -1.6892 -0.8994
  141OSM   H15C15301   1.539   6.695   2.225 -0.8984  1.1905  3.0284
  141OSM    C1415302   1.555   6.909   2.402 -0.2844  0.1886 -0.1597
  141OSM   H14A15303   1.514   6.824   2.454 -2.8543 -0.4948 -3.1339
  141OSM   H14B15304   1.526   6.993   2.464 -3.2831  0.5592 -1.9499
  141OSM   H14C15305   1.663   6.909   2.402 -0.2709  0.8567  1.8772
  141OSM    C1315306   1.522   7.035   2.186 -0.1967 -0.1981 -0.1891
  141OSM   H13A15307   1.623   7.023   2.148 -0.0934 -1.5187  0.4695
  141OSM   H13B15308   1.511   7.123   2.247  0.3142 -0.0269 -0.3432
  141OSM   H13C15309   1.469   7.037   2.092  3.2514 -1.7832 -2.2717
  141OSM    C1215310   1.336   6.887   2.276 -0.8209  0.0912 -0.0788
  141OSM   H12A15311   1.292   6.882   2.178  0.7978  3.8547 -1.1220
  141OSM   H12B15312   1.305   6.980   2.322  1.3317  0.0848  1.4224
  141OSM    C1115313   1.295   6.765   2.357 -0.8460 -0.2261  0.5571
  141OSM   H11A15314   1.185   6.774   2.372 -0.9736  0.6321 -0.8137
  141OSM   H11B15315   1.351   6.773   2.452 -0.3247  1.6152  0.1127
  141OSM      P15316   1.247   6.598   2.158 -0.0574 -0.1203 -0.1425
  141OSM    O1315317   1.220   6.713   2.072  0.1207 -0.1766  0.1382
  141OSM    O1415318   1.329   6.482   2.104  0.1359  0.1066  0.3289
  141OSM    O1115319   1.111   6.549   2.218 -0.3930  0.1042 -0.7420
  141OSM    O1215320   1.324   6.644   2.286 -0.0731  0.2756  0.1251
  141OSM    C1S15321   1.092   6.430   2.300 -0.3016  0.1877  0.2368
  141OSM    H1S15322   1.187   6.382   2.328  0.0278  0.8614  0.2824
  141OSM    H1T15323   1.048   6.349   2.237  1.7101 -1.0010  0.3284
  141OSM     NF15324   0.997   6.328   2.498  0.3944  0.7111  0.0247
  141OSM    HNF15325   0.917   6.268   2.501  2.3956 -2.0955 -0.9349
  141OSM    C2S15326   1.002   6.449   2.422  0.2532  0.4650 -0.3961
  141OSM    H2S15327   1.039   6.535   2.482 -0.0863 -0.5565  1.2890
  141OSM    C3S15328   0.862   6.484   2.360 -0.0323 -0.0303 -0.2160
  141OSM    H3S15329   0.826   6.424   2.274 -3.0310  0.8252  0.3703
  141OSM     O315330   0.865   6.607   2.295  0.3744 -0.2099 -0.5064
  141OSM    HO315331   0.955   6.638   2.286 -0.2066  1.1092 -1.9128
  141OSM    C4S15332   0.753   6.493   2.466  0.2395 -0.2890  0.1116
  141OSM    H4S15333   0.769   6.581   2.531  1.2045 -1.8710  2.0750
  141OSM    C5S15334   0.647   6.415   2.483  0.4889  0.4163  0.0375
  141OSM    H5S15335   0.635   6.328   2.417  0.8900 -0.4206  1.0582
  141OSM    C6S15336   0.543   6.435   2.593  0.4863 -0.2648  0.6432
  141OSM    H6S15337   0.534   6.336   2.643  0.8971 -1.3750 -1.4402
  141OSM    H6T15338   0.445   6.459   2.547  0.5940 -0.1049  0.4961
  141OSM    C7S15339   0.566   6.547   2.702 -0.4005 -0.2479 -0.3801
  141OSM    H7S15340   0.470   6.549   2.758 -0.3423  0.6183 -0.3127
  141OSM    H7T15341   0.578   6.642   2.646  1.5618 -0.0657  0.3086
  141OSM    C8S15342   0.678   6.532   2.809 -0.4624 -0.1355 -0.5677
  141OSM    H8S15343   0.768   6.508   2.749  0.2024  0.8019  0.0541
  141OSM    H8T15344   0.667   6.435   2.864 -1.2042 -0.6453 -1.5986
  141OSM    C9S15345   0.707   6.640   2.913  0.3663 -0.1778  0.1105
  141OSM    H9S15346   0.653   6.732   2.882 -1.9569 -0.3511  3.4340
  141OSM    H9T15347   0.811   6.673   2.894  0.3082 -0.1040 -0.0768
  141OSM   C10S15348   0.685   6.603   3.056 -0.1844 -0.0900  0.1927
  141OSM   H10S15349   0.736   6.674   3.125 -3.6265  1.1874  1.4892
  141OSM   H10T15350   0.726   6.503   3.083  0.0162 -0.1939 -0.4739
  141OSM   C11S15351   0.534   6.612   3.088  0.6315 -0.6107  0.2180
  141OSM   H11S15352   0.484   6.569   2.998  1.0905  0.4684 -0.5726
  141OSM   H11T15353   0.492   6.715   3.092  0.0373 -0.9065  1.7417
  141OSM   C12S15354   0.492   6.525   3.207 -0.4399 -0.6114  0.4667
  141OSM   H12S15355   0.579   6.464   3.239  1.5821  1.6785 -0.4308
  141OSM   H12T15356   0.419   6.452   3.168 -0.4957  0.1057 -0.7849
  141OSM   C13S15357   0.443   6.601   3.330  0.4405  0.3819 -0.4178
  141OSM   H13S15358   0.411   6.526   3.406 -0.6192  1.2493  0.0068
  141OSM   H13T15359   0.356   6.663   3.301  0.3420  0.4418 -0.0096
  141OSM   C14S15360   0.542   6.699   3.395  0.5487 -0.3612 -0.2726
  141OSM   H14S15361   0.562   6.783   3.325 -1.3551  0.6948  0.3923
  141OSM   H14T15362   0.643   6.654   3.405 -0.6446 -2.6239  2.4393
  141OSM   C15S15363   0.505   6.745   3.534 -0.4296  0.2238 -0.1593
  141OSM   H15S15364   0.526   6.670   3.613  1.7459  1.0438  0.0936
  141OSM   H15T15365   0.396   6.766   3.535 -0.1458  1.7518 -0.4642
  141OSM   C16S15366   0.591   6.862   3.586  0.4294 -0.5949 -0.5258
  141OSM   H16S15367   0.546   6.948   3.532  1.0729 -0.9314 -1.6056
  141OSM   H16T15368   0.696   6.861   3.552  0.8789  1.6309  0.6831
  141OSM   C17S15369   0.583   6.897   3.735  0.0391 -0.4414 -0.8283
  141OSM   H17S15370   0.635   6.818   3.794  2.6644  0.2753 -2.1033
  141OSM   H17T15371   0.474   6.892   3.757 -0.1581 -0.4220 -1.7862
  141OSM   C18S15372   0.626   7.034   3.765 -0.2556  0.1027 -0.2228
  141OSM   H18S15373   0.581   7.108   3.696 -0.1171  0.4622  0.0745
  141OSM   H18T15374   0.736   7.042   3.760 -0.1761 -0.3875  0.6850
  141OSM   H18U15375   0.591   7.068   3.865 -1.3536  0.1671 -0.6250
  141OSM    C1F15376   1.101   6.291   2.570 -0.4819  0.5142  0.5653
  141OSM     OF15377   1.193   6.374   2.585  0.7091  0.4911  0.1834
  141OSM    C2F15378   1.122   6.150   2.634  0.3687  0.1509  0.2370
  141OSM    H2F15379   1.217   6.113   2.590  0.9345  0.3147  1.2926
  141OSM    H2G15380   1.051   6.074   2.595  0.3719  0.8631 -1.1955
  141OSM    C3F15381   1.129   6.160   2.785 -0.1160  0.8069 -0.0192
  141OSM    H3F15382   1.208   6.234   2.809 -0.5712  0.7548  1.6914
  141OSM    H3G15383   1.153   6.064   2.835 -0.1888  0.6883 -0.2114
  141OSM    C4F15384   0.989   6.204   2.840  0.5466  0.7465  0.0431
  141OSM    H4F15385   0.918   6.120   2.825  0.7418  0.4210  0.9276
  141OSM    H4G15386   0.954   6.301   2.798  0.1479  0.5947  0.0188
  141OSM    C5F15387   0.972   6.219   2.994 -0.4207 -0.2449  0.0444
  141OSM    H5F15388   0.980   6.117   3.037  1.5916 -0.5602 -0.9750
  141OSM    H5G15389   0.863   6.230   3.009 -0.4806  1.2238 -1.2884
  141OSM    C6F15390   1.068   6.332   3.052 -0.4967  0.7619 -0.0857
  141OSM    H6F15391   1.167   6.306   3.008 -1.8652 -1.9976 -1.6327
  141OSM    H6G15392   1.077   6.310   3.160 -0.1367 -1.0394 -0.4619
  141OSM    C7F15393   1.029   6.479   3.022  0.6435  0.4674 -0.1259
  141OSM    H7F15394   0.928   6.497   3.064  1.3048 -0.3430  1.9014
  141OSM    H7G15395   1.020   6.498   2.913  2.6775 -1.5943 -0.7051
  141OSM    C8F15396   1.136   6.579   3.075 -0.7720  1.0682 -0.3197
  141OSM    H8F15397   1.236   6.565   3.027 -0.6462  3.2908 -0.7412
  141OSM    H8G15398   1.148   6.569   3.185  1.7867  0.0039 -0.6614
  141OSM    C9F15399   1.098   6.719   3.039  0.0280 -0.2634 -0.0511
  141OSM    H9F15400   1.094   6.746   2.932 -2.2834  1.4804  0.4260
  141OSM   C10F15401   1.057   6.822   3.115 -0.5153  0.4085  0.3702
  141OSM   H10F15402   1.049   6.920   3.065  1.7880  0.4557 -0.0052
  141OSM   C11F15403   1.049   6.823   3.265  0.3178  0.2133 -0.1034
  141OSM   H11F15404   1.022   6.925   3.300 -0.0382 -0.2101  0.8730
  141OSM   H11G15405   1.150   6.812   3.311 -0.2663  0.2736  1.2095
  141OSM   C12F15406   0.948   6.720   3.323 -0.0577  0.5121 -0.0402
  141OSM   H12F15407   0.956   6.624   3.267  0.8100  1.2125 -1.1471
  141OSM   H12G15408   0.846   6.762   3.316 -0.2226  0.9421  3.8434
  141OSM   C13F15409   0.978   6.691   3.476 -1.1221  0.3498  0.5049
  141OSM   H13F15410   0.984   6.791   3.524  1.2304 -0.4058  1.8513
  141OSM   H13G15411   1.072   6.633   3.484 -1.5697 -0.4376  0.0754
  141OSM   C14F15412   0.892   6.604   3.558  0.8356 -0.5831 -0.3833
  141OSM   H14F15413   0.792   6.653   3.568  1.5506  0.2893  3.2529
  141OSM   H14G15414   0.931   6.589   3.660 -2.1840 -0.9026  0.7944
  141OSM   C15F15415   0.871   6.473   3.488  0.0174 -0.1100  0.3580
  141OSM   H15F15416   0.974   6.436   3.473 -0.7104 -2.7811  1.4871
  141OSM   H15G15417   0.839   6.490   3.383  3.1169 -0.3272 -0.6705
  141OSM   C16F15418   0.776   6.376   3.553 -0.3265 -0.2817  0.4969
  141OSM   H16F15419   0.673   6.417   3.554 -0.8311 -1.5357  0.5377
  141OSM   H16G15420   0.801   6.360   3.660  0.5586 -0.5994  0.2518
  141OSM   C17F15421   0.770   6.245   3.475  0.2997  0.5072 -0.2909
  141OSM   H17F15422   0.875   6.208   3.465 -0.4745 -1.8878 -0.0796
  141OSM   H17G15423   0.715   6.261   3.381 -1.9292  0.2743  0.9474
  141OSM   C18F15424   0.680   6.151   3.553 -0.7015  0.0093  0.0877
  141OSM   H18F15425   0.654   6.058   3.498  1.0957 -0.0903 -0.5978
  141OSM   H18G15426   0.587   6.198   3.593  0.4751  1.4947  1.1103
  141OSM   H18H15427   0.727   6.116   3.647  2.5776  4.4715  0.2809
  142OSM      N15428   1.066   1.306   2.063 -0.1035  0.3872 -0.3389
  142OSM    C1515429   1.203   1.249   2.048 -0.3471  0.0838  0.4236
  142OSM   H15A15430   1.207   1.144   2.075  2.3491 -0.4321 -1.7522
  142OSM   H15B15431   1.267   1.295   2.123  0.0960 -0.9327  0.6835
  142OSM   H15C15432   1.246   1.265   1.950 -1.5776 -1.4930 -0.3952
  142OSM    C1415433   1.075   1.459   2.064  1.2539  0.0257 -0.1789
  142OSM   H14A15434   1.133   1.498   2.146 -1.2700  0.9928  1.2387
  142OSM   H14B15435   0.974   1.497   2.076  0.9660 -0.8167  0.0702
  142OSM   H14C15436   1.123   1.485   1.971  1.7591 -0.9442 -0.1943
  142OSM    C1315437   0.995   1.264   1.944  0.4422 -0.5356  0.9021
  142OSM   H13A15438   0.914   1.329   1.916 -1.0292 -2.3361  0.8841
  142OSM   H13B15439   0.953   1.164   1.946 -1.4559  0.2311  0.6205
  142OSM   H13C15440   1.073   1.269   1.869 -0.8988  0.9919 -0.4238
  142OSM    C1215441   1.003   1.253   2.190 -0.3230  1.1635  1.2394
  142OSM   H12A15442   0.903   1.292   2.198 -0.7714  0.4841 -0.7323
  142OSM   H12B15443   1.042   1.294   2.282 -1.1491 -1.5011  2.8484
  142OSM    C1115444   1.008   1.101   2.200 -0.0548  0.3703 -0.1733
  142OSM   H11A15445   0.978   1.049   2.107  3.1625 -2.2659  0.2229
  142OSM   H11B15446   0.928   1.085   2.276 -1.0110  0.4334 -1.1521
  142OSM      P15447   1.145   0.905   2.309  0.6472 -0.3352  0.4577
  142OSM    O1315448   1.086   0.810   2.208  0.3564 -0.2172  0.2387
  142OSM    O1415449   1.293   0.888   2.339 -0.0110 -0.2429 -0.8987
  142OSM    O1115450   1.063   0.914   2.442 -0.0948  0.5145  0.1364
  142OSM    O1215451   1.128   1.058   2.261 -0.0365  0.2227  0.1432
  142OSM    C1S15452   1.046   0.806   2.530  0.1571 -0.2554 -0.4581
  142OSM    H1S15453   1.128   0.796   2.604 -0.6228 -0.4196  0.3907
  142OSM    H1T15454   1.021   0.715   2.472  2.5587  0.4176 -2.6533
  142OSM     NF15455   0.891   0.696   2.693  0.2946  0.0668 -0.1164
  142OSM    HNF15456   0.816   0.642   2.654 -1.6397  0.9524  2.2019
  142OSM    C2S15457   0.913   0.822   2.616 -0.4712  0.0210  0.0521
  142OSM    H2S15458   0.925   0.908   2.685  0.4718 -0.6699  0.7582
  142OSM    C3S15459   0.787   0.862   2.532 -0.5014  0.9404  0.2370
  142OSM    H3S15460   0.756   0.785   2.458  0.7537 -0.3983  1.0952
  142OSM     O315461   0.809   0.978   2.452 -0.0421 -0.5806  0.0521
  142OSM    HO315462   0.905   0.981   2.456 -0.0380 -1.1004  0.3674
  142OSM    C4S15463   0.670   0.880   2.627  0.0002  0.1333  0.9186
  142OSM    H4S15464   0.618   0.787   2.654  1.9077 -1.0378  0.6499
  142OSM    C5S15465   0.613   1.000   2.671 -0.7481 -0.6351 -0.5072
  142OSM    H5S15466   0.641   1.098   2.629 -1.1863  0.2059  1.1207
  142OSM    C6S15467   0.489   0.994   2.757 -0.2690  0.6366 -0.1780
  142OSM    H6S15468   0.504   0.917   2.836  1.4332  3.2004  2.1035
  142OSM    H6T15469   0.394   0.981   2.702 -0.0555 -1.0009 -0.1892
  142OSM    C7S15470   0.476   1.126   2.829 -0.0853  0.1385 -0.7491
  142OSM    H7S15471   0.378   1.153   2.874  1.2979  0.7768  2.0258
  142OSM    H7T15472   0.478   1.204   2.750 -1.3204 -0.7135 -1.6398
  142OSM    C8S15473   0.582   1.168   2.935 -0.2672  0.0369 -1.1251
  142OSM    H8S15474   0.576   1.278   2.951 -4.6392 -0.2724 -0.1070
  142OSM    H8T15475   0.681   1.144   2.891  0.4623  0.3191  0.3161
  142OSM    C9S15476   0.554   1.120   3.078  0.6749 -0.0971  0.3757
  142OSM    H9S15477   0.645   1.060   3.099  1.4938  1.2480  0.7270
  142OSM    H9T15478   0.455   1.069   3.076 -0.2081  1.5626 -0.2152
  142OSM   C10S15479   0.548   1.241   3.172  0.6402 -0.4572 -0.2107
  142OSM   H10S15480   0.464   1.307   3.142  0.3560  0.1608  1.8753
  142OSM   H10T15481   0.641   1.301   3.159  0.0803 -0.3214 -4.0505
  142OSM   C11S15482   0.520   1.201   3.314 -0.6891 -0.4606 -0.3079
  142OSM   H11S15483   0.598   1.134   3.356 -0.6205 -0.1662  0.0413
  142OSM   H11T15484   0.432   1.134   3.323 -0.7263 -0.4063 -0.2656
  142OSM   C12S15485   0.527   1.326   3.399 -0.7872 -0.3749 -0.3288
  142OSM   H12S15486   0.446   1.396   3.370 -1.2646 -0.9818 -0.4650
  142OSM   H12T15487   0.623   1.382   3.392 -0.2048 -1.4605 -1.1313
  142OSM   C13S15488   0.518   1.290   3.552 -0.2927 -0.0965 -0.1108
  142OSM   H13S15489   0.600   1.224   3.586  1.3894  1.9281 -0.0918
  142OSM   H13T15490   0.423   1.237   3.576 -0.5515  0.9238  1.1547
  142OSM   C14S15491   0.532   1.425   3.630  0.5138  0.4360  0.0138
  142OSM   H14S15492   0.620   1.482   3.592  0.9144  0.4727  0.9744
  142OSM   H14T15493   0.547   1.403   3.738  0.6923  1.1931  0.1466
  142OSM   C15S15494   0.407   1.516   3.628  0.2611 -0.1618 -0.3058
  142OSM   H15S15495   0.330   1.451   3.677 -0.8587  0.0272 -1.7946
  142OSM   H15T15496   0.372   1.555   3.531 -2.5363  0.6522  0.9760
  142OSM   C16S15497   0.403   1.643   3.718  0.4329  0.2630  0.6138
  142OSM   H16S15498   0.302   1.689   3.713  0.3813 -0.0918 -2.0400
  142OSM   H16T15499   0.479   1.707   3.669  3.0801 -1.6057  2.1664
  142OSM   C17S15500   0.453   1.620   3.861  0.3592 -0.2025  0.0185
  142OSM   H17S15501   0.550   1.566   3.865  0.9667  0.9895  1.7983
  142OSM   H17T15502   0.392   1.551   3.922  1.6078 -2.2308 -0.9616
  142OSM   C18S15503   0.471   1.754   3.940 -0.5276 -0.2317  0.4175
  142OSM   H18S15504   0.558   1.816   3.908 -2.0648  1.5045 -0.4933
  142OSM   H18T15505   0.479   1.732   4.049 -0.6516  0.6272  0.6076
  142OSM   H18U15506   0.380   1.817   3.932 -1.1914 -1.3237 -0.6687
  142OSM    C1F15507   0.979   0.665   2.790 -0.6248 -0.0767  0.0119
  142OSM     OF15508   1.049   0.747   2.849 -0.1002  0.2764 -0.0190
  142OSM    C2F15509   0.989   0.524   2.823  0.7086  0.6386 -0.5184
  142OSM    H2F15510   1.024   0.462   2.738  1.3789 -2.8107  2.1573
  142OSM    H2G15511   0.890   0.485   2.854  1.5534  0.2361  1.7711
  142OSM    C3F15512   1.084   0.487   2.938 -0.1745 -0.4679  0.0785
  142OSM    H3F15513   1.181   0.535   2.915  0.0076 -0.3095  1.1434
  142OSM    H3G15514   1.098   0.377   2.939 -0.7411 -0.5410  2.6641
  142OSM    C4F15515   1.042   0.530   3.071  0.2434 -0.1303  0.9168
  142OSM    H4F15516   0.935   0.506   3.088  0.2041 -2.2915 -2.0465
  142OSM    H4G15517   1.058   0.640   3.082 -1.5427  0.5755 -2.6990
  142OSM    C5F15518   1.118   0.454   3.179 -0.1241 -0.0241  0.2029
  142OSM    H5F15519   1.219   0.460   3.132 -0.9231 -2.0659 -1.8802
  142OSM    H5G15520   1.084   0.349   3.190  0.0023 -0.1776 -0.8532
  142OSM    C6F15521   1.119   0.523   3.317  0.3053  0.4103  0.1240
  142OSM    H6F15522   1.123   0.633   3.301  0.9063  0.5574  1.2817
  142OSM    H6G15523   1.209   0.502   3.378 -0.0889  1.3911  1.0585
  142OSM    C7F15524   0.989   0.507   3.401 -0.4615  0.5186 -0.3045
  142OSM    H7F15525   0.971   0.400   3.421  0.3417  0.8300  2.2933
  142OSM    H7G15526   0.921   0.551   3.324  1.0953  0.6836 -1.6293
  142OSM    C8F15527   0.972   0.600   3.526 -0.2037  0.2096 -0.0323
  142OSM    H8F15528   0.873   0.573   3.568 -0.2322  0.4368  0.0461
  142OSM    H8G15529   0.973   0.706   3.494 -2.0880  0.8764  2.0596
  142OSM    C9F15530   1.081   0.566   3.628 -0.0879  0.2361 -0.1322
  142OSM    H9F15531   1.179   0.538   3.587 -0.7277 -3.5961  0.7314
  142OSM   C10F15532   1.053   0.555   3.760  0.1487 -0.2955 -0.4823
  142OSM   H10F15533   1.125   0.504   3.826 -1.3851  0.9088  2.1908
  142OSM   C11F15534   0.917   0.576   3.835  0.7693 -0.3036 -0.3946
  142OSM   H11F15535   0.829   0.528   3.788  0.3022  0.4007 -0.2417
  142OSM   H11G15536   0.902   0.685   3.828 -0.5831 -0.3741  1.0994
  142OSM   C12F15537   0.920   0.531   3.980  0.3548  0.1068 -0.3113
  142OSM   H12F15538   0.952   0.425   3.983  1.5701  0.4292 -1.1492
  142OSM   H12G15539   0.816   0.545   4.016 -0.4352  0.1209 -2.5286
  142OSM   C13F15540   1.024   0.610   4.063  0.1680 -0.0631  0.3319
  142OSM   H13F15541   0.991   0.716   4.069  0.5437  0.0357  0.7121
  142OSM   H13G15542   1.123   0.616   4.012 -0.1668  1.0093 -0.1963
  142OSM   C14F15543   1.042   0.558   4.196  1.0648  0.2198 -0.4409
  142OSM   H14F15544   1.062   0.449   4.188 -0.8730 -0.6199  4.3484
  142OSM   H14G15545   0.947   0.567   4.254  0.3841  1.6107 -1.7408
  142OSM   C15F15546   1.149   0.638   4.273 -0.3634 -0.4135 -0.7777
  142OSM   H15F15547   1.126   0.746   4.262  3.3182  0.6153  0.5937
  142OSM   H15G15548   1.246   0.633   4.218  0.3154  4.0008 -0.1543
  142OSM   C16F15549   1.177   0.584   4.413 -0.0631 -0.1321  0.0609
  142OSM   H16F15550   1.094   0.526   4.458  0.2133  0.4331  1.3280
  142OSM   H16G15551   1.216   0.661   4.484  2.5664 -1.2317 -0.1300
  142OSM   C17F15552   1.285   0.461   4.409  0.5323  0.3868  0.9123
  142OSM   H17F15553   1.373   0.498   4.352  0.3711 -0.4640  0.0946
  142OSM   H17G15554   1.238   0.375   4.356 -0.0545  1.2848 -0.0271
  142OSM   C18F15555   1.332   0.407   4.546  0.0197 -0.5549  0.0670
  142OSM   H18F15556   1.248   0.372   4.609 -0.3238  0.9094  0.4272
  142OSM   H18G15557   1.382   0.495   4.592  1.6107 -0.5288 -1.6481
  142OSM   H18H15558   1.403   0.322   4.535 -0.5787 -0.9915 -0.4450
  143OSM      N15559   0.469   6.527   2.043  0.5135 -0.0244  0.6741
  143OSM    C1515560   0.549   6.422   1.975  0.9484 -0.3719 -0.0513
  143OSM   H15A15561   0.572   6.351   2.052 -0.3491  0.9962  1.6515
  143OSM   H15B15562   0.638   6.469   1.936 -0.1084  0.9312 -0.9606
  143OSM   H15C15563   0.501   6.373   1.892 -0.1837 -1.2202  1.0901
  143OSM    C1415564   0.545   6.588   2.157 -0.0238 -0.8829 -1.0409
  143OSM   H14A15565   0.598   6.513   2.214 -0.8253 -0.7390 -0.0983
  143OSM   H14B15566   0.475   6.642   2.219  1.7519 -1.1921  1.3422
  143OSM   H14C15567   0.628   6.651   2.128  0.2000 -1.1572 -0.9969
  143OSM    C1315568   0.444   6.636   1.942 -0.1776 -0.3812  0.2049
  143OSM   H13A15569   0.370   6.703   1.982  1.4631  1.5411  0.0478
  143OSM   H13B15570   0.411   6.602   1.845 -1.0296 -1.4170  0.8454
  143OSM   H13C15571   0.534   6.695   1.936  0.0296 -0.5056  1.9533
  143OSM    C1215572   0.344   6.454   2.101 -0.1305 -0.4223 -0.3287
  143OSM   H12A15573   0.296   6.391   2.027  1.5253 -0.7420 -1.1617
  143OSM   H12B15574   0.274   6.530   2.132  0.5699 -0.0129  0.2442
  143OSM    C1115575   0.364   6.363   2.228 -0.1424 -0.7901 -0.5514
  143OSM   H11A15576   0.268   6.310   2.246 -0.9981  0.7986 -0.3068
  143OSM   H11B15577   0.400   6.433   2.306  0.7055  0.9553 -2.4650
  143OSM      P15578   0.462   6.124   2.184  0.0623 -0.3556  0.1551
  143OSM    O1315579   0.321   6.087   2.151 -0.3147 -0.4178  0.4887
  143OSM    O1415580   0.566   6.088   2.080  0.3527 -0.6169 -0.1906
  143OSM    O1115581   0.502   6.044   2.318  0.0771 -0.1301 -0.0346
  143OSM    O1215582   0.468   6.272   2.202  0.1501  0.4481 -0.1998
  143OSM    C1S15583   0.404   6.036   2.419 -1.0190  1.0526  0.1308
  143OSM    H1S15584   0.311   5.988   2.381 -1.6064 -0.0199  2.8093
  143OSM    H1T15585   0.376   6.131   2.468 -0.7936  0.8455  0.6539
  143OSM     NF15586   0.349   5.932   2.637  0.2299 -0.3581 -0.3220
  143OSM    HNF15587   0.354   5.998   2.711  0.7215 -1.9288  1.0976
  143OSM    C2S15588   0.456   5.944   2.541  1.1721  0.1476  0.5576
  143OSM    H2S15589   0.491   5.850   2.494  0.4883 -1.5546  3.3554
  143OSM    C3S15590   0.581   6.025   2.595  0.4195  0.4399 -0.1589
  143OSM    H3S15591   0.558   6.132   2.617 -2.4964  0.6264 -3.6383
  143OSM     O315592   0.688   6.029   2.505  0.5224 -0.4362  0.2361
  143OSM    HO315593   0.645   5.992   2.427 -0.6411 -1.0743  1.1711
  143OSM    C4S15594   0.629   5.957   2.726  0.4044 -1.0292  0.5020
  143OSM    H4S15595   0.687   5.864   2.713 -1.5808 -2.2936  0.4655
  143OSM    C5S15596   0.596   6.009   2.845 -0.3134 -0.0806 -0.1014
  143OSM    H5S15597   0.528   6.095   2.852  1.2870  1.1223  1.0016
  143OSM    C6S15598   0.636   5.943   2.976  0.3005  0.0131  1.0310
  143OSM    H6S15599   0.731   5.995   3.002  0.2666  0.9529 -0.6663
  143OSM    H6T15600   0.677   5.840   2.961  2.3522  0.5378  2.7566
  143OSM    C7S15601   0.540   5.950   3.097  0.0421  0.7147 -0.2754
  143OSM    H7S15602   0.581   5.909   3.192 -1.3195  2.2836  1.0249
  143OSM    H7T15603   0.452   5.888   3.070  1.7970 -1.7270 -0.5232
  143OSM    C8S15604   0.483   6.088   3.125 -0.3240  0.5182  0.0443
  143OSM    H8S15605   0.423   6.133   3.044 -0.3526 -0.9227 -0.7432
  143OSM    H8T15606   0.573   6.154   3.127 -0.3005  0.4596  0.9754
  143OSM    C9S15607   0.385   6.089   3.249  0.0302  0.0956  0.0278
  143OSM    H9S15608   0.441   6.036   3.329  1.2336 -1.7998 -2.0109
  143OSM    H9T15609   0.297   6.031   3.214  0.3774 -0.3850 -0.0605
  143OSM   C10S15610   0.351   6.223   3.296  0.1223 -0.6867  0.4465
  143OSM   H10S15611   0.313   6.279   3.207 -1.1900 -0.4576  1.1417
  143OSM   H10T15612   0.443   6.272   3.333  0.5662  0.7219 -2.3508
  143OSM   C11S15613   0.242   6.211   3.407  0.2239 -0.3978  0.6018
  143OSM   H11S15614   0.139   6.184   3.373  0.6896 -2.0520  0.4648
  143OSM   H11T15615   0.229   6.310   3.456 -1.4563 -0.5360  0.4776
  143OSM   C12S15616   0.288   6.124   3.521  0.6752 -0.0784  0.6434
  143OSM   H12S15617   0.398   6.138   3.518  0.6686 -0.0528  0.5280
  143OSM   H12T15618   0.265   6.019   3.494 -0.2948  0.4726 -0.7200
  143OSM   C13S15619   0.224   6.154   3.662 -0.2572 -0.1747  0.1427
  143OSM   H13S15620   0.113   6.161   3.652 -0.1309 -0.2153 -1.3410
  143OSM   H13T15621   0.262   6.249   3.704  1.2631 -0.6928 -0.0127
  143OSM   C14S15622   0.254   6.049   3.766 -0.7292  0.1385 -0.0662
  143OSM   H14S15623   0.364   6.037   3.772 -0.7541  0.7454  1.9238
  143OSM   H14T15624   0.207   5.952   3.738 -1.0903  0.3806 -0.2960
  143OSM   C15S15625   0.198   6.088   3.906 -0.4166 -0.2281  0.3749
  143OSM   H15S15626   0.088   6.079   3.898 -0.3067 -1.5365  0.2807
  143OSM   H15T15627   0.238   6.189   3.931  0.0457 -0.5457  0.9319
  143OSM   C16S15628   0.250   6.004   4.015 -0.3989 -0.5872 -0.0646
  143OSM   H16S15629   0.360   5.996   4.003 -0.2960  1.6468 -0.9482
  143OSM   H16T15630   0.206   5.902   4.025  1.0379 -1.0318  2.0204
  143OSM   C17S15631   0.222   6.063   4.159 -0.4520  0.1851  0.9355
  143OSM   H17S15632   0.265   6.165   4.168  0.6996 -0.2556  0.5052
  143OSM   H17T15633   0.263   5.992   4.234 -0.9206  1.6402  2.6087
  143OSM   C18S15634   0.075   6.083   4.200 -0.0164 -0.1185 -0.8510
  143OSM   H18S15635   0.016   6.019   4.130  0.9941 -1.9582 -0.0649
  143OSM   H18T15636   0.032   6.184   4.181 -0.6466  0.1455  1.7887
  143OSM   H18U15637   0.047   6.053   4.303  0.3974 -1.1345 -1.0317
  143OSM    C1F15638   0.239   5.859   2.626  0.1556  0.1464  0.0954
  143OSM     OF15639   0.217   5.779   2.542  0.5279  0.0222 -0.2130
  143OSM    C2F15640   0.139   5.881   2.737  0.6075  0.2638 -0.8300
  143OSM    H2F15641   0.059   5.805   2.727 -1.3189  2.2763 -0.9143
  143OSM    H2G15642   0.107   5.987   2.732  1.1914  0.4711 -0.2428
  143OSM    C3F15643   0.196   5.845   2.877  0.0261  0.4057 -0.3571
  143OSM    H3F15644   0.266   5.927   2.903  1.0715 -1.4823  3.0630
  143OSM    H3G15645   0.242   5.745   2.860  1.0414  0.0298  4.0524
  143OSM    C4F15646   0.085   5.829   2.987  0.1047 -0.3570 -0.2304
  143OSM    H4F15647   0.133   5.819   3.087 -2.2605  0.6761  1.0379
  143OSM    H4G15648   0.019   5.742   2.968 -0.9195  0.5182 -0.7108
  143OSM    C5F15649  -0.015   5.944   2.994 -0.1232  0.0106  0.4582
  143OSM    H5F15650  -0.089   5.940   3.077  0.5820 -1.2467  1.0458
  143OSM    H5G15651  -0.077   5.939   2.902 -0.1846  1.6508  0.3994
  143OSM    C6F15652   0.034   6.086   2.999  0.4643  0.0159  0.4882
  143OSM    H6F15653   0.076   6.114   2.900  1.5107 -2.1368  0.2869
  143OSM    H6G15654   0.114   6.110   3.073  0.6515  2.9365 -0.6158
  143OSM    C7F15655  -0.085   6.184   3.019  0.0799 -0.0312  0.0552
  143OSM    H7F15656  -0.131   6.180   3.120  0.7598 -0.1184  0.3609
  143OSM    H7G15657  -0.157   6.149   2.942 -0.2964 -1.3166  0.9769
  143OSM    C8F15658  -0.038   6.329   2.992 -0.7369  0.0746 -0.2998
  143OSM    H8F15659  -0.026   6.341   2.882 -0.1724 -3.0800 -0.6193
  143OSM    H8G15660   0.058   6.350   3.043 -0.5382 -2.9361  0.6933
  143OSM    C9F15661  -0.144   6.437   3.031  0.0848 -0.3959  0.7060
  143OSM    H9F15662  -0.224   6.442   2.955 -0.0172 -1.7548  0.6947
  143OSM   C10F15663  -0.162   6.507   3.141  0.1029 -0.0573 -0.1087
  143OSM   H10F15664  -0.264   6.544   3.160 -0.2247 -0.7383 -0.5336
  143OSM   C11F15665  -0.072   6.492   3.266  0.0199  0.4073 -0.4308
  143OSM   H11F15666  -0.060   6.591   3.316 -0.0619  0.2236 -0.0428
  143OSM   H11G15667   0.030   6.468   3.230  0.7416  1.8433  0.6183
  143OSM   C12F15668  -0.143   6.396   3.361  0.1777 -0.1870 -0.4386
  143OSM   H12F15669  -0.143   6.288   3.332 -0.6332 -0.4521  0.5243
  143OSM   H12G15670  -0.248   6.427   3.377 -0.2624 -0.7604 -2.0335
  143OSM   C13F15671  -0.081   6.410   3.500  0.1788  0.3596 -0.0851
  143OSM   H13F15672  -0.072   6.519   3.521 -2.0176  0.7480 -0.9963
  143OSM   H13G15673   0.020   6.363   3.502  0.5615  1.1861  0.2362
  143OSM   C14F15674  -0.163   6.352   3.612 -0.3858 -0.3863  0.4403
  143OSM   H14F15675  -0.169   6.241   3.604 -0.4870 -0.4567  1.4176
  143OSM   H14G15676  -0.265   6.397   3.613  0.1047  0.7004  1.7126
  143OSM   C15F15677  -0.107   6.382   3.750 -0.0440  0.3965 -0.3386
  143OSM   H15F15678  -0.119   6.488   3.778  1.8764  1.2148 -2.4980
  143OSM   H15G15679   0.002   6.362   3.745 -0.2289 -0.4700 -1.2166
  143OSM   C16F15680  -0.183   6.303   3.857  0.2560  0.7794  0.1663
  143OSM   H16F15681  -0.152   6.199   3.834  2.5476  1.6150 -0.6681
  143OSM   H16G15682  -0.292   6.314   3.836 -0.0032  0.9973  1.5519
  143OSM   C17F15683  -0.148   6.328   4.001 -0.7460 -0.3415 -0.1178
  143OSM   H17F15684  -0.179   6.434   4.015 -3.1082 -1.2055  1.4927
  143OSM   H17G15685  -0.037   6.329   4.014 -0.9480  2.4486  1.6269
  143OSM   C18F15686  -0.221   6.234   4.089  0.2048 -0.3306 -0.3676
  143OSM   H18F15687  -0.225   6.133   4.043  2.3321 -0.5187 -0.2048
  143OSM   H18G15688  -0.322   6.271   4.116 -0.2289 -0.1077 -2.2149
  143OSM   H18H15689  -0.170   6.219   4.187 -1.4371 -0.5775  0.4544
  144OSM      N15690   6.613   7.259   2.110  0.0480  0.3376 -0.2321
  144OSM    C1515691   6.520   7.209   2.006  0.8312  0.4474  0.5255
  144OSM   H15A15692   6.527   7.101   2.007 -0.5306  0.3483  2.4213
  144OSM   H15B15693   6.543   7.241   1.906 -1.7572 -0.6856 -0.4816
  144OSM   H15C15694   6.417   7.242   2.010  0.6896  0.2135 -0.9380
  144OSM    C1415695   6.636   7.404   2.087 -0.2638  0.0267  0.4851
  144OSM   H14A15696   6.678   7.448   2.176 -1.2576  2.5321 -0.2470
  144OSM   H14B15697   6.540   7.447   2.059  0.3669  2.2650  1.6497
  144OSM   H14C15698   6.708   7.415   2.007 -1.4187 -3.1108 -1.0556
  144OSM    C1315699   6.556   7.240   2.255 -0.8960 -0.7857  0.5012
  144OSM   H13A15700   6.458   7.285   2.263 -0.2180  1.0824 -1.3936
  144OSM   H13B15701   6.619   7.280   2.333  1.8942 -0.6558 -1.6999
  144OSM   H13C15702   6.540   7.135   2.275 -0.5400 -0.8619  0.3883
  144OSM    C1215703   6.749   7.186   2.102  0.1408 -0.4330 -0.0115
  144OSM   H12A15704   6.745   7.082   2.131 -2.2621 -0.8384 -1.5675
  144OSM   H12B15705   6.821   7.235   2.165 -0.5250  2.5795 -1.5283
  144OSM    C1115706   6.816   7.188   1.955 -0.2006  0.4833 -0.6135
  144OSM   H11A15707   6.743   7.164   1.876  0.7747  1.4147 -1.8181
  144OSM   H11B15708   6.899   7.114   1.956 -0.5055  0.1284 -1.2822
  144OSM      P15709   7.004   7.371   1.969  0.2115 -0.1430 -0.1401
  144OSM    O1315710   7.107   7.288   1.912 -0.1230 -0.5429 -0.2247
  144OSM    O1415711   7.013   7.512   1.943  0.5044  0.2349 -0.3927
  144OSM    O1115712   7.011   7.341   2.123 -0.1820  0.3507 -0.0580
  144OSM    O1215713   6.862   7.322   1.929  0.0816  0.3694  0.2658
  144OSM    C1S15714   6.968   7.434   2.221  0.0551  0.3712  1.3802
  144OSM    H1S15715   6.861   7.461   2.211  0.2458 -0.0667 -2.6588
  144OSM    H1T15716   7.031   7.525   2.222  0.9973 -0.2212 -0.9926
  144OSM     NF15717   6.942   7.480   2.462  0.3198 -0.3864 -0.1013
  144OSM    HNF15718   7.016   7.539   2.493 -0.9448  0.7124  0.8684
  144OSM    C2S15719   6.991   7.380   2.365 -0.0056 -0.5636  0.3985
  144OSM    H2S15720   6.929   7.288   2.365  1.9408 -1.9174 -1.7171
  144OSM    C3S15721   7.137   7.345   2.388  0.9867  0.2273 -0.6211
  144OSM    H3S15722   7.209   7.428   2.374 -0.9977  1.9416 -0.8615
  144OSM     O315723   7.180   7.231   2.317 -0.0201  0.1159 -0.7818
  144OSM    HO315724   7.113   7.219   2.250 -0.7296 -1.0262  0.1097
  144OSM    C4S15725   7.156   7.303   2.531 -0.3145 -0.3303  0.3399
  144OSM    H4S15726   7.091   7.219   2.558  0.0589 -0.5878  0.4443
  144OSM    C5S15727   7.235   7.370   2.617  0.0295  0.0977 -0.3869
  144OSM    H5S15728   7.278   7.464   2.580  0.7969 -0.9866 -2.3698
  144OSM    C6S15729   7.242   7.309   2.755  0.3753  0.2006 -0.4111
  144OSM    H6S15730   7.336   7.345   2.802 -1.4071  1.7758  2.0392
  144OSM    H6T15731   7.252   7.198   2.759  2.0803  0.3728  1.4021
  144OSM    C7S15732   7.124   7.352   2.836  0.2740  0.0667 -0.8212
  144OSM    H7S15733   7.026   7.332   2.790 -0.7190 -0.5387  1.4849
  144OSM    H7T15734   7.124   7.461   2.861  1.7105 -0.4115  1.4386
  144OSM    C8S15735   7.121   7.275   2.969  0.9551 -0.3535  0.4594
  144OSM    H8S15736   7.195   7.301   3.048  2.4403 -1.6772 -0.4754
  144OSM    H8T15737   7.159   7.175   2.940 -0.5540 -1.1323  1.1006
  144OSM    C9S15738   6.980   7.266   3.030  0.2478 -0.0290 -0.1947
  144OSM    H9S15739   6.910   7.210   2.964 -0.5610 -1.4769  1.8215
  144OSM    H9T15740   6.945   7.370   3.045 -1.6804 -0.8291  1.0673
  144OSM   C10S15741   6.985   7.197   3.167  1.0649 -0.0109  0.6418
  144OSM   H10S15742   7.060   7.117   3.153 -0.2745 -1.3507  0.9643
  144OSM   H10T15743   6.883   7.153   3.163  1.2094 -0.2375 -1.2359
  144OSM   C11S15744   6.995   7.284   3.298 -0.3021  0.5642  0.3827
  144OSM   H11S15745   7.011   7.224   3.390 -2.8869  0.4390  0.7871
  144OSM   H11T15746   6.892   7.325   3.299 -1.5111 -2.2517 -1.1584
  144OSM   C12S15747   7.096   7.400   3.294 -0.3351 -0.2046  0.1410
  144OSM   H12S15748   7.069   7.466   3.209  2.2764 -1.2888 -1.6086
  144OSM   H12T15749   7.202   7.370   3.279 -0.1726  1.3861 -2.1154
  144OSM   C13S15750   7.091   7.486   3.420 -0.0941  0.0348  0.3199
  144OSM   H13S15751   7.192   7.522   3.451 -0.8713 -1.2938  4.7367
  144OSM   H13T15752   7.049   7.426   3.504  0.6420  1.3458  1.6549
  144OSM   C14S15753   6.994   7.613   3.406 -0.5079  0.3383  0.9044
  144OSM   H14S15754   6.959   7.655   3.503 -0.6514 -0.3640  1.1641
  144OSM   H14T15755   6.906   7.576   3.350 -0.2434  2.0987 -0.7187
  144OSM   C15S15756   7.061   7.723   3.315  0.0883 -0.1434  1.1449
  144OSM   H15S15757   6.982   7.791   3.277  0.0303 -0.6324  0.3750
  144OSM   H15T15758   7.105   7.672   3.227 -0.1058  0.7592  0.5260
  144OSM   C16S15759   7.168   7.801   3.386 -0.0399 -0.4266  0.3111
  144OSM   H16S15760   7.190   7.891   3.325  1.4620 -0.5798  0.6142
  144OSM   H16T15761   7.261   7.748   3.412  0.3503  1.3537  2.7997
  144OSM   C17S15762   7.123   7.872   3.517 -0.2523 -0.5500 -0.1932
  144OSM   H17S15763   7.205   7.937   3.554 -0.8008 -0.0785  0.2216
  144OSM   H17T15764   7.100   7.799   3.597  1.5279  0.2869  1.1062
  144OSM   C18S15765   7.002   7.964   3.515  0.4155 -0.3105 -0.0894
  144OSM   H18S15766   7.027   8.058   3.462  1.2122 -0.1881  0.4935
  144OSM   H18T15767   6.974   7.978   3.622  2.1103  0.3749  0.2850
  144OSM   H18U15768   6.931   7.911   3.448  1.2044  0.0032 -1.1889
  144OSM    C1F15769   6.816   7.515   2.483 -0.7508  0.3869 -0.5012
  144OSM     OF15770   6.715   7.466   2.428  0.0441 -0.0001  0.4332
  144OSM    C2F15771   6.795   7.630   2.577 -0.0268  0.7193 -1.1423
  144OSM    H2F15772   6.717   7.694   2.532  0.1165  2.0491  0.4298
  144OSM    H2G15773   6.887   7.691   2.592 -1.0170  1.9968 -0.1297
  144OSM    C3F15774   6.752   7.577   2.710 -0.1138  0.0512  0.4283
  144OSM    H3F15775   6.753   7.657   2.788 -0.5982  0.8992 -0.4293
  144OSM    H3G15776   6.822   7.502   2.754 -0.2170  0.3305  1.0753
  144OSM    C4F15777   6.613   7.512   2.702 -0.0515  0.4703 -0.4164
  144OSM    H4F15778   6.616   7.410   2.656  1.0282  0.5994 -0.6470
  144OSM    H4G15779   6.547   7.576   2.641  0.6404 -1.0547 -2.8467
  144OSM    C5F15780   6.543   7.497   2.839 -0.1481  0.0638 -0.0220
  144OSM    H5F15781   6.439   7.456   2.832 -0.1130  0.0021 -0.1908
  144OSM    H5G15782   6.531   7.601   2.876  0.4089 -0.6361  2.1628
  144OSM    C6F15783   6.632   7.420   2.937  0.3701 -0.5226  0.0432
  144OSM    H6F15784   6.733   7.466   2.945 -0.0445  0.7236 -1.4938
  144OSM    H6G15785   6.646   7.317   2.899  0.3050 -0.4046 -0.3071
  144OSM    C7F15786   6.575   7.408   3.084  0.0715  0.0016 -0.7210
  144OSM    H7F15787   6.641   7.343   3.145  0.6568  1.2544  0.0134
  144OSM    H7G15788   6.476   7.357   3.079  0.0249  0.1037 -0.8357
  144OSM    C8F15789   6.566   7.547   3.159 -0.6145 -0.0490 -0.3782
  144OSM    H8F15790   6.527   7.627   3.092 -0.2747  0.7702  0.4069
  144OSM    H8G15791   6.670   7.575   3.185 -0.3021 -0.1912 -1.4239
  144OSM    C9F15792   6.470   7.546   3.272 -0.1397 -0.5590  0.2277
  144OSM    H9F15793   6.378   7.600   3.245  0.2593 -0.5923 -1.2255
  144OSM   C10F15794   6.474   7.508   3.398 -0.3954 -0.4130 -0.1568
  144OSM   H10F15795   6.378   7.508   3.452  0.3181  0.2691  1.1482
  144OSM   C11F15796   6.604   7.450   3.458  0.7662 -0.0144  0.8948
  144OSM   H11F15797   6.649   7.522   3.530  0.7208 -0.9535  1.8599
  144OSM   H11G15798   6.681   7.445   3.378 -0.8480  2.5044 -0.8943
  144OSM   C12F15799   6.583   7.315   3.525  0.2299 -0.6310 -0.3540
  144OSM   H12F15800   6.521   7.250   3.459  0.1891 -2.4347  1.3994
  144OSM   H12G15801   6.529   7.329   3.621  0.1465 -2.2711 -0.1475
  144OSM   C13F15802   6.711   7.228   3.547  0.2273 -0.5239 -0.1689
  144OSM   H13F15803   6.764   7.217   3.450  1.1519  1.4414  0.0920
  144OSM   H13G15804   6.690   7.124   3.579  1.7601 -1.1387 -1.1465
  144OSM   C14F15805   6.811   7.301   3.633 -0.3056  0.0007  0.0868
  144OSM   H14F15806   6.844   7.401   3.596 -2.2592  1.0202  1.0722
  144OSM   H14G15807   6.906   7.245   3.651 -0.3062  0.8555  2.9715
  144OSM   C15F15808   6.768   7.319   3.787 -0.4270 -0.1206  0.6491
  144OSM   H15F15809   6.690   7.398   3.795 -0.3216  0.0287  0.2358
  144OSM   H15G15810   6.856   7.355   3.845 -0.6386 -0.0881  0.9502
  144OSM   C16F15811   6.707   7.197   3.851 -0.0919 -0.9097 -0.2693
  144OSM   H16F15812   6.779   7.115   3.872 -0.6989 -1.5249 -0.5628
  144OSM   H16G15813   6.631   7.148   3.786  0.4322 -3.2017  0.8082
  144OSM   C17F15814   6.624   7.226   3.975  0.3380  0.5076  0.1521
  144OSM   H17F15815   6.567   7.135   4.002 -3.0025  2.7587  1.0473
  144OSM   H17G15816   6.551   7.295   3.928  0.5036  1.2334  0.9429
  144OSM   C18F15817   6.700   7.277   4.092  0.2535  0.1257  0.5222
  144OSM   H18F15818   6.639   7.284   4.185  0.6680 -0.2814  0.8294
  144OSM   H18G15819   6.733   7.381   4.074 -2.5797  0.6504 -1.9480
  144OSM   H18H15820   6.793   7.222   4.119  1.3445  1.1792 -0.9989
  145SAPE     N15821   2.066   3.132   6.414 -0.1183  0.3502 -0.5345
  145SAPE   HN115822   2.147   3.183   6.374  0.1188 -0.6496 -1.3416
  145SAPE   HN215823   2.082   3.095   6.510 -0.4731 -0.9398 -0.9667
  145SAPE   HN315824   2.035   3.058   6.348 -0.5178 -0.0026  0.0399
  145SAPE   C1215825   1.965   3.241   6.440  0.2611 -0.2247 -0.4916
  145SAPE  H12A15826   2.024   3.329   6.474 -0.1856 -0.5128  1.1042
  145SAPE  H12B15827   1.893   3.204   6.516 -2.3402  2.4945 -1.5399
  145SAPE   C1115828   1.908   3.276   6.299 -0.3821 -0.0902  0.9147
  145SAPE  H11A15829   1.998   3.309   6.244 -0.5042  0.3118  0.9548
  145SAPE  H11B15830   1.842   3.365   6.309 -0.3613  0.3019 -2.1482
  145SAPE     P15831   1.703   3.127   6.238 -0.1617  0.1159 -0.3231
  145SAPE   O1315832   1.693   2.982   6.264 -0.2948 -0.7188  0.5810
  145SAPE   O1415833   1.642   3.214   6.345  0.1306  0.2180  0.3508
  145SAPE   O1215834   1.851   3.164   6.225 -0.9537  0.6887 -0.2322
  145SAPE   O1115835   1.648   3.162   6.084 -0.2143  0.7577  0.2442
  145SAPE    C115836   1.737   3.215   5.985  0.3884 -0.1177 -0.7746
  145SAPE    HA15837   1.841   3.179   6.004  1.1115  2.0022 -0.5496
  145SAPE    HB15838   1.704   3.179   5.886  2.4431  0.3938 -1.6671
  145SAPE    C215839   1.750   3.369   6.003 -0.0354 -0.4119 -0.2969
  145SAPE    HS15840   1.742   3.400   6.109  0.9244  0.6819 -0.5448
  145SAPE   O2115841   1.648   3.429   5.925  0.5899 -0.1023  0.2586
  145SAPE   C2115842   1.610   3.548   5.962 -0.2229 -0.0871  0.0761
  145SAPE   O2215843   1.651   3.611   6.063  0.1519  0.1992  0.2229
  145SAPE   C2215844   1.512   3.603   5.860 -1.0883 -0.2487 -0.3960
  145SAPE   H2R15845   1.423   3.538   5.847 -1.6599 -0.5302  4.1506
  145SAPE   H2S15846   1.471   3.696   5.907 -1.1580  0.7946 -2.4773
  145SAPE    C315847   1.885   3.416   5.955  0.0445  0.8058  1.4386
  145SAPE    HX15848   1.965   3.356   6.004 -0.3965 -1.4619 -0.5226
  145SAPE    HY15849   1.897   3.520   5.991  0.4945  1.7943 -1.4525
  145SAPE   O3115850   1.901   3.395   5.811 -0.2439 -0.2779  0.0807
  145SAPE   C3115851   1.961   3.502   5.748  0.2459  0.5445 -0.1031
  145SAPE   O3215852   1.997   3.597   5.808 -0.1121  0.5704  0.3999
  145SAPE   C3215853   1.977   3.483   5.594 -0.0344  0.1491 -0.2137
  145SAPE   H2X15854   1.994   3.584   5.550  1.4299  1.1878  2.6029
  145SAPE   H2Y15855   1.883   3.439   5.555  0.1636 -1.3707  0.9904
  145SAPE   C2315856   1.572   3.649   5.721 -0.1123 -0.2603 -0.6237
  145SAPE   H3R15857   1.665   3.705   5.745 -0.7570  0.1251  1.0482
  145SAPE   H3S15858   1.506   3.722   5.671  0.9330  0.1587 -1.4196
  145SAPE   C2415859   1.607   3.533   5.627 -0.5100 -0.2841 -0.6629
  145SAPE   H4R15860   1.520   3.469   5.601 -0.4331 -2.2455  3.5826
  145SAPE   H4S15861   1.679   3.462   5.673 -1.3437 -0.6671  0.0609
  145SAPE   C2515862   1.669   3.592   5.504  0.1124 -0.0139  0.0655
  145SAPE   H5R15863   1.751   3.662   5.522  0.6563  0.0496 -2.4399
  145SAPE   C2615864   1.665   3.537   5.377 -0.5964  1.1672 -0.3640
  145SAPE   H6R15865   1.724   3.592   5.302  1.6834  1.4540  1.5782
  145SAPE   C2715866   1.591   3.410   5.344 -0.2470  0.6534 -0.6528
  145SAPE   H7R15867   1.486   3.423   5.311 -0.6063 -2.4420 -0.8258
  145SAPE   H7S15868   1.577   3.347   5.435  0.4724  0.2115 -0.8446
  145SAPE   C2815869   1.656   3.316   5.245 -0.2311  0.3745  0.6929
  145SAPE   H8R15870   1.730   3.244   5.282  0.7669  0.9169 -0.2185
  145SAPE   C2915871   1.644   3.332   5.110  0.8539  0.3894  0.3124
  145SAPE   H9R15872   1.696   3.260   5.045  0.8260  1.4080 -0.8472
  145SAPE  C21015873   1.568   3.442   5.044  0.2091 -0.1540  0.3301
  145SAPE  H10R15874   1.641   3.513   5.000  0.0336 -0.2724 -0.1591
  145SAPE  H10S15875   1.505   3.501   5.114  1.5130  2.2297 -0.4480
  145SAPE  C21115876   1.493   3.382   4.931  0.8269  0.3635 -0.7224
  145SAPE  H11R15877   1.385   3.368   4.944  0.8939  0.8189  0.3704
  145SAPE  C21215878   1.538   3.365   4.805  0.9869 -0.2626  0.4089
  145SAPE  H12R15879   1.467   3.328   4.730  2.8433  1.2139 -2.1724
  145SAPE  C21315880   1.674   3.402   4.749 -0.1727  0.0319 -0.4028
  145SAPE  H13R15881   1.724   3.309   4.717  1.0748  0.6341 -0.2238
  145SAPE  H13S15882   1.747   3.442   4.823 -0.7859  0.2573  0.0889
  145SAPE  C21415883   1.664   3.508   4.638 -0.0159  0.8983 -0.2432
  145SAPE  H14R15884   1.659   3.612   4.676 -2.1460  0.2099  1.4555
  145SAPE  C21515885   1.684   3.486   4.511 -0.1454  0.1401 -0.4250
  145SAPE  H15R15886   1.692   3.570   4.440  1.2796 -0.5417 -1.1041
  145SAPE  C21615887   1.718   3.360   4.440  0.2714 -0.9451 -0.1294
  145SAPE  H16R15888   1.738   3.283   4.518 -1.7736  0.2926  1.6874
  145SAPE  H16S15889   1.805   3.389   4.377 -0.8163  0.5508 -0.9498
  145SAPE  C21715890   1.607   3.322   4.340  0.2252 -0.0471 -0.6900
  145SAPE  H17R15891   1.641   3.238   4.276  1.3481 -0.6903  0.7508
  145SAPE  H17S15892   1.595   3.404   4.265  0.6939  0.9900  0.3621
  145SAPE  C21815893   1.476   3.293   4.395 -0.4356  0.1632  0.5157
  145SAPE  H18R15894   1.392   3.316   4.327  0.2050 -0.0759 -0.3700
  145SAPE  H18S15895   1.461   3.345   4.492 -2.1660 -1.4777  1.1661
  145SAPE  C21915896   1.455   3.147   4.408 -0.3630 -0.4655  0.5817
  145SAPE  H19R15897   1.542   3.101   4.461  0.4338  1.1295  0.6869
  145SAPE  H19S15898   1.448   3.106   4.304  0.9804  0.7763 -0.0196
  145SAPE  C22015899   1.327   3.119   4.486 -0.1979  0.7775 -0.0315
  145SAPE  H20R15900   1.317   3.170   4.585 -2.0291  1.5679 -0.6187
  145SAPE  H20S15901   1.321   3.012   4.515 -2.9741  0.6398 -1.0787
  145SAPE  H20T15902   1.236   3.134   4.426  0.3922 -2.0800 -1.7542
  145SAPE   C3315903   2.096   3.394   5.559  0.1959 -0.4683  0.0861
  145SAPE   H3X15904   2.090   3.299   5.617 -2.1251 -1.0680 -1.0542
  145SAPE   H3Y15905   2.189   3.453   5.574 -0.4228  0.6252 -0.3323
  145SAPE   C3415906   2.080   3.341   5.417 -0.3535 -0.5334 -0.9017
  145SAPE   H4X15907   1.972   3.318   5.406 -0.2946 -0.1139 -2.4977
  145SAPE   H4Y15908   2.152   3.261   5.392  3.0811  1.5352  1.8229
  145SAPE   C3515909   2.102   3.453   5.316 -0.4432  0.1029 -0.4125
  145SAPE   H5X15910   2.209   3.482   5.319 -0.7558  1.2976 -0.6523
  145SAPE   H5Y15911   2.042   3.542   5.344  1.1931  1.9440 -2.6043
  145SAPE   C3615912   2.077   3.398   5.178  0.3182 -0.3078  0.7963
  145SAPE   H6X15913   1.990   3.329   5.174 -0.1720  0.4024 -1.0650
  145SAPE   H6Y15914   2.172   3.349   5.146 -0.3552 -1.4499  0.4888
  145SAPE   C3715915   2.057   3.501   5.068 -0.6892 -0.2779 -0.3777
  145SAPE   H7X15916   2.141   3.572   5.085 -1.4686  1.1996 -2.5025
  145SAPE   H7Y15917   1.953   3.536   5.084 -1.0795  0.0346 -3.3480
  145SAPE   C3815918   2.060   3.444   4.925 -0.1053 -0.0268  0.3191
  145SAPE   H8X15919   1.970   3.379   4.919  0.1951 -0.7017  2.6693
  145SAPE   H8Y15920   2.151   3.380   4.924 -0.3662 -0.3828 -0.8042
  145SAPE   C3915921   2.065   3.555   4.814  0.2354  0.5511 -0.2547
  145SAPE   H9X15922   2.124   3.641   4.852 -1.6999  1.1059  1.5677
  145SAPE   H9Y15923   1.965   3.603   4.809 -0.9607 -1.9047 -0.9012
  145SAPE  C31015924   2.102   3.510   4.675 -0.3032  0.2781 -0.3453
  145SAPE  H10X15925   2.121   3.599   4.611 -0.5268  1.3868  1.1001
  145SAPE  H10Y15926   2.026   3.451   4.619 -2.2085  1.3768  1.0267
  145SAPE  C31115927   2.222   3.414   4.672  0.3736  0.3102  0.4015
  145SAPE  H11X15928   2.190   3.330   4.737 -1.7355 -0.3599 -1.4742
  145SAPE  H11Y15929   2.312   3.461   4.718  0.5257  2.4467 -1.9618
  145SAPE  C31215930   2.253   3.364   4.524 -0.1527 -1.0162 -0.1280
  145SAPE  H12X15931   2.359   3.334   4.514 -0.2542 -2.2093  2.2137
  145SAPE  H12Y15932   2.244   3.453   4.458 -1.5197 -0.0092  1.3792
  145SAPE  C31315933   2.144   3.263   4.480 -0.4614  0.2070  0.4779
  145SAPE  H13X15934   2.038   3.290   4.503 -0.4019  1.2002 -0.3758
  145SAPE  H13Y15935   2.162   3.163   4.524 -0.4573 -0.5234 -1.1353
  145SAPE  C31415936   2.164   3.242   4.325  0.2710  0.9980  0.2155
  145SAPE  H14X15937   2.261   3.188   4.325 -0.9201 -1.2191 -1.7547
  145SAPE  H14Y15938   2.155   3.349   4.296  1.5817  0.6020 -1.6894
  145SAPE  C31515939   2.071   3.146   4.249  0.1152 -0.1348 -0.0946
  145SAPE  H15X15940   2.105   3.126   4.145 -2.0584 -0.4894 -0.7457
  145SAPE  H15Y15941   1.967   3.185   4.246 -0.8506 -2.5209  1.3390
  145SAPE  C31615942   2.060   3.010   4.325  0.1923 -0.4830  0.5858
  145SAPE  H16X15943   2.013   3.030   4.423  0.6159  1.1510  0.4829
  145SAPE  H16Y15944   2.159   2.961   4.337  0.3067 -1.0949 -2.3908
  145SAPE  C31715945   1.979   2.906   4.245  0.0295  0.2334  0.6991
  145SAPE  H17X15946   2.042   2.864   4.164 -0.5855  1.2016 -0.2939
  145SAPE  H17Y15947   1.895   2.964   4.202  3.0018  3.0868 -1.4660
  145SAPE  C31815948   1.930   2.793   4.337 -0.1477  0.3256  0.1062
  145SAPE  H18X15949   2.019   2.750   4.388  0.1045 -0.0815 -0.6661
  145SAPE  H18Y15950   1.889   2.718   4.267  0.4931  1.7019 -1.8035
  145SAPE  H18Z15951   1.856   2.833   4.409 -1.6599 -0.0241 -1.2372
  146SAPE     N15952   4.525   2.753   6.183 -0.2653 -0.2236  0.3282
  146SAPE   HN115953   4.616   2.804   6.185  0.4937 -1.5530  0.3655
  146SAPE   HN215954   4.454   2.813   6.136  1.2678  1.0016 -0.4947
  146SAPE   HN315955   4.489   2.744   6.280 -1.2683 -0.4228 -0.0567
  146SAPE   C1215956   4.526   2.630   6.115 -0.9701 -0.1677 -0.3838
  146SAPE  H12A15957   4.550   2.654   6.009  4.5221  1.9081  1.1323
  146SAPE  H12B15958   4.437   2.564   6.122 -1.2414  0.0956 -1.2520
  146SAPE   C1115959   4.641   2.548   6.174  0.4911  0.0089  0.0914
  146SAPE  H11A15960   4.658   2.456   6.113  1.8293  0.0735  0.3541
  146SAPE  H11B15961   4.604   2.515   6.274 -0.1440 -0.0911 -0.1746
  146SAPE     P15962   4.875   2.552   6.267  0.4053 -0.2557 -0.0639
  146SAPE   O1315963   4.971   2.664   6.284 -0.0428 -0.2346 -0.3723
  146SAPE   O1415964   4.817   2.489   6.386  0.3154  0.3319  0.3265
  146SAPE   O1215965   4.756   2.617   6.180 -0.2289 -0.1158 -0.3787
  146SAPE   O1115966   4.938   2.433   6.180  0.0469 -0.1863 -0.5163
  146SAPE    C115967   4.955   2.440   6.039  1.0939 -0.1029 -1.1739
  146SAPE    HA15968   4.948   2.336   6.000 -0.6736 -0.6248  0.4459
  146SAPE    HB15969   4.878   2.505   5.994 -1.5009  0.3409  3.5336
  146SAPE    C215970   5.104   2.488   6.001 -0.0138 -0.7552  0.3053
  146SAPE    HS15971   5.129   2.578   6.061  0.4860 -1.1567  0.6990
  146SAPE   O2115972   5.110   2.502   5.859  0.3217  0.8850 -0.3028
  146SAPE   C2115973   5.224   2.557   5.820 -0.1986  0.2418 -0.1727
  146SAPE   O2215974   5.303   2.614   5.894  0.2199 -0.0382  0.6502
  146SAPE   C2215975   5.250   2.533   5.674 -0.1376 -0.3906  0.6588
  146SAPE   H2R15976   5.314   2.442   5.667  0.5025  0.1180 -0.1978
  146SAPE   H2S15977   5.154   2.527   5.620  0.7520  0.3996 -1.0403
  146SAPE    C315978   5.205   2.388   6.062  0.3990 -0.0750 -0.4024
  146SAPE    HX15979   5.194   2.398   6.172  1.3025  2.0310 -0.4857
  146SAPE    HY15980   5.308   2.426   6.049  0.1445  0.3035 -1.2854
  146SAPE   O3115981   5.184   2.251   6.024 -0.0864 -0.0498 -0.0061
  146SAPE   C3115982   5.258   2.210   5.915 -0.4971 -0.1699  0.4932
  146SAPE   O3215983   5.355   2.266   5.875 -0.0537 -0.2121  0.6546
  146SAPE   C3215984   5.201   2.077   5.865 -0.6070  0.9404  0.0707
  146SAPE   H2X15985   5.103   2.058   5.913  0.1979 -2.5023  0.4666
  146SAPE   H2Y15986   5.271   2.001   5.907  2.1372  3.7463  0.7671
  146SAPE   C2315987   5.330   2.654   5.614  0.4178 -0.9147  0.3264
  146SAPE   H3R15988   5.433   2.661   5.654 -0.5826  1.4078  2.5954
  146SAPE   H3S15989   5.287   2.752   5.644 -0.3440 -1.2087  0.2011
  146SAPE   C2415990   5.323   2.650   5.462  0.4918 -0.5789  0.2536
  146SAPE   H4R15991   5.386   2.734   5.424  0.0987 -0.2220  0.3792
  146SAPE   H4S15992   5.217   2.676   5.440 -0.0458 -2.8331  0.0516
  146SAPE   C2515993   5.367   2.519   5.399  0.2033 -0.4618  0.6178
  146SAPE   H5R15994   5.455   2.473   5.446  2.0499  3.3161  1.0474
  146SAPE   C2615995   5.312   2.449   5.296 -0.4375  0.2152 -0.3260
  146SAPE   H6R15996   5.360   2.355   5.267  3.0980  0.3264  4.5555
  146SAPE   C2715997   5.190   2.489   5.219  0.0145  0.3805 -0.0560
  146SAPE   H7R15998   5.104   2.493   5.289  0.0357 -2.3775  0.1654
  146SAPE   H7S15999   5.161   2.407   5.150 -1.3207 -0.8977  1.9769
  146SAPE   C2816000   5.197   2.626   5.148 -0.2376  0.1206 -0.2457
  146SAPE   H8R16001   5.135   2.709   5.184  0.3172  1.6929 -2.7706
  146SAPE   C2916002   5.281   2.649   5.048 -0.7588 -0.6010  0.1446
  146SAPE   H9R16003   5.281   2.748   5.001  0.2844 -0.6423  0.0422
  146SAPE  C21016004   5.381   2.553   4.988 -0.0825 -0.6930 -0.2302
  146SAPE  H10R16005   5.458   2.523   5.062 -0.4639  0.3854  0.6084
  146SAPE  H10S16006   5.431   2.611   4.908  0.9111 -1.2523 -0.0154
  146SAPE  C21116007   5.319   2.435   4.923  0.5838  0.4962  0.3587
  146SAPE  H11R16008   5.337   2.338   4.971 -2.5506  0.0591  0.7412
  146SAPE  C21216009   5.253   2.422   4.809  0.0200  0.9487 -0.2186
  146SAPE  H12R16010   5.207   2.325   4.786  2.8072 -0.6079  0.5291
  146SAPE  C21316011   5.218   2.528   4.707  0.1011 -1.3258 -0.5742
  146SAPE  H13R16012   5.138   2.590   4.752 -0.8723 -1.7893 -1.6216
  146SAPE  H13S16013   5.170   2.477   4.621 -0.3014 -1.6757 -0.1472
  146SAPE  C21416014   5.323   2.612   4.646  0.0345  0.2194  0.1988
  146SAPE  H14R16015   5.430   2.596   4.667  0.5242  1.2134 -1.4392
  146SAPE  C21516016   5.304   2.712   4.556  0.2979  0.4604  0.7618
  146SAPE  H15R16017   5.392   2.763   4.513 -0.2494  0.3397 -0.5342
  146SAPE  C21616018   5.178   2.757   4.500 -1.4006  0.0905  0.4112
  146SAPE  H16R16019   5.181   2.868   4.500  0.2939  0.0682 -1.2717
  146SAPE  H16S16020   5.096   2.732   4.571  0.1440 -4.0500  0.8657
  146SAPE  C21716021   5.136   2.707   4.355 -0.6857  0.5649  0.1353
  146SAPE  H17R16022   5.068   2.773   4.298  1.5326  2.3738 -0.4965
  146SAPE  H17S16023   5.088   2.609   4.374  0.1091  0.5867  2.4035
  146SAPE  C21816024   5.254   2.676   4.263 -0.1396 -0.6605  0.1418
  146SAPE  H18R16025   5.215   2.604   4.188  0.3789 -0.0040 -0.7818
  146SAPE  H18S16026   5.337   2.615   4.305  0.7770 -0.0620 -0.7717
  146SAPE  C21916027   5.294   2.801   4.182 -0.9804  0.3190  0.4402
  146SAPE  H19R16028   5.206   2.855   4.140  0.2089  2.4142  0.5267
  146SAPE  H19S16029   5.354   2.772   4.093 -1.9234  3.3915 -1.2722
  146SAPE  C22016030   5.384   2.906   4.260  0.2464  0.1103 -0.0719
  146SAPE  H20R16031   5.472   2.851   4.299  0.1803 -0.0258 -0.1169
  146SAPE  H20S16032   5.329   2.953   4.345  0.4246 -0.6206  0.4527
  146SAPE  H20T16033   5.427   2.981   4.191  0.1072  0.7512  0.5326
  146SAPE   C3316034   5.203   2.076   5.710  0.4192  0.7718 -0.1125
  146SAPE   H3X16035   5.158   1.981   5.673  0.5759  0.6125  0.1065
  146SAPE   H3Y16036   5.309   2.073   5.677  0.9356  1.0486  1.4766
  146SAPE   C3416037   5.126   2.190   5.646 -0.4148 -0.0082 -0.5341
  146SAPE   H4X16038   5.168   2.209   5.545  4.4195  0.2666  1.3683
  146SAPE   H4Y16039   5.135   2.285   5.702  0.8495 -0.1150 -0.5493
  146SAPE   C3516040   4.974   2.158   5.647 -0.0868  0.3672 -0.1336
  146SAPE   H5X16041   4.948   2.156   5.755  0.7019 -0.0799  0.0479
  146SAPE   H5Y16042   4.952   2.057   5.604  1.4504 -0.5965  1.3198
  146SAPE   C3616043   4.896   2.271   5.586  0.0584 -0.5498 -0.1305
  146SAPE   H6X16044   4.939   2.366   5.625  2.5415 -1.8882  0.5724
  146SAPE   H6Y16045   4.788   2.265   5.608  0.5641 -0.9791  2.3811
  146SAPE   C3716046   4.901   2.276   5.432 -0.4297  0.2126 -0.1544
  146SAPE   H7X16047   4.876   2.177   5.390 -0.1166 -0.6501  1.6550
  146SAPE   H7Y16048   5.002   2.304   5.395 -0.3326  0.5264  0.3403
  146SAPE   C3816049   4.795   2.376   5.372 -0.2206  0.1562  0.2008
  146SAPE   H8X16050   4.794   2.478   5.417 -0.9092 -0.0707  0.7088
  146SAPE   H8Y16051   4.699   2.330   5.401 -0.2426 -0.4247 -0.7939
  146SAPE   C3916052   4.798   2.391   5.221 -0.1954  0.0466  0.7948
  146SAPE   H9X16053   4.793   2.291   5.172 -0.1061  0.6692 -0.4882
  146SAPE   H9Y16054   4.893   2.445   5.201  0.2785 -1.2039 -0.3943
  146SAPE  C31016055   4.682   2.473   5.159  0.4719 -0.4872  0.0423
  146SAPE  H10X16056   4.695   2.576   5.199  2.1991  0.5639 -3.0466
  146SAPE  H10Y16057   4.585   2.428   5.189  0.4510 -0.5753 -0.1624
  146SAPE  C31116058   4.687   2.465   4.998  0.1616  0.0080 -0.1009
  146SAPE  H11X16059   4.625   2.546   4.954  1.9875  1.0337 -0.8351
  146SAPE  H11Y16060   4.652   2.365   4.963  0.1461 -0.5348  1.4302
  146SAPE  C31216061   4.825   2.495   4.936  0.4509 -0.8125 -0.7505
  146SAPE  H12X16062   4.900   2.421   4.971  1.0058  0.5863  1.1264
  146SAPE  H12Y16063   4.856   2.596   4.973  0.9287 -1.6583  1.2590
  146SAPE  C31316064   4.841   2.489   4.786 -0.1071 -0.5081  0.2419
  146SAPE  H13X16065   4.815   2.382   4.768 -0.4446 -0.2124 -1.1039
  146SAPE  H13Y16066   4.948   2.503   4.759 -0.2547  0.5354  0.1940
  146SAPE  C31416067   4.742   2.579   4.710  0.1173  0.7704 -0.2692
  146SAPE  H14X16068   4.642   2.537   4.732 -0.9750  3.7093  0.5977
  146SAPE  H14Y16069   4.764   2.578   4.601  0.0012 -0.5099 -0.2869
  146SAPE  C31516070   4.737   2.731   4.746 -0.0481 -0.4590  0.5166
  146SAPE  H15X16071   4.718   2.739   4.855  2.3271  0.3222  0.8995
  146SAPE  H15Y16072   4.660   2.787   4.688 -0.5130 -0.5706  1.0103
  146SAPE  C31616073   4.869   2.802   4.720 -0.1686  0.5331  0.6738
  146SAPE  H16X16074   4.886   2.797   4.610 -1.9252 -0.6037  0.4310
  146SAPE  H16Y16075   4.954   2.745   4.762 -2.1711 -3.2064 -0.1560
  146SAPE  C31716076   4.884   2.944   4.774  0.4715 -0.8005 -0.5725
  146SAPE  H17X16077   4.879   2.953   4.884  0.4806  0.1423 -0.6451
  146SAPE  H17Y16078   4.787   2.988   4.740  1.3585  0.1617 -1.9391
  146SAPE  C31816079   5.006   3.014   4.716 -0.1085 -0.5424  0.5864
  146SAPE  H18X16080   5.101   2.976   4.758  0.0893 -0.1822  0.4745
  146SAPE  H18Y16081   4.998   3.123   4.737 -0.2511 -0.0993 -1.6365
  146SAPE  H18Z16082   5.009   3.018   4.605  0.6522  1.1949  0.6466
  147SAPE     N16083   3.609   6.124   6.420 -0.1820 -0.0582 -0.0737
  147SAPE   HN116084   3.556   6.063   6.484 -0.7248 -1.2168 -1.6097
  147SAPE   HN216085   3.705   6.140   6.458 -0.2077  0.9703 -0.4257
  147SAPE   HN316086   3.560   6.214   6.400  0.6863  0.2463 -0.8692
  147SAPE   C1216087   3.610   6.055   6.292 -0.6368  0.1861  0.0335
  147SAPE  H12A16088   3.610   5.945   6.306 -0.5189  0.0409 -1.0802
  147SAPE  H12B16089   3.702   6.072   6.233 -0.1060  1.2795  1.1577
  147SAPE   C1116090   3.488   6.095   6.200 -0.4319  0.2903 -0.3776
  147SAPE  H11A16091   3.491   6.039   6.104 -0.1950  0.4803 -0.4803
  147SAPE  H11B16092   3.506   6.202   6.174  1.3019 -0.4674 -2.4934
  147SAPE     P16093   3.284   5.946   6.257  0.0938 -0.1669 -0.3072
  147SAPE   O1316094   3.345   5.842   6.350 -0.3617 -0.3930  0.5444
  147SAPE   O1416095   3.144   5.992   6.298  0.3441 -0.0061  0.8867
  147SAPE   O1216096   3.368   6.082   6.266  0.1780 -0.3473 -0.5434
  147SAPE   O1116097   3.286   5.888   6.109 -0.3467 -0.1838 -0.3908
  147SAPE    C116098   3.209   5.964   6.013 -0.0082  0.0962  1.1716
  147SAPE    HA16099   3.100   5.955   6.028 -0.1073 -0.4031  0.1639
  147SAPE    HB16100   3.229   6.074   6.015 -1.5179  0.3662  1.7248
  147SAPE    C216101   3.231   5.904   5.869  0.1471 -0.2037  0.7496
  147SAPE    HS16102   3.207   5.795   5.869 -0.1707 -0.1341  0.6727
  147SAPE   O2116103   3.367   5.923   5.825 -0.5750 -0.2720  0.4635
  147SAPE   C2116104   3.456   5.830   5.851 -0.2050 -0.2194  0.0883
  147SAPE   O2216105   3.431   5.720   5.899 -0.2071 -0.4190  0.3291
  147SAPE   C2216106   3.594   5.875   5.784 -0.5499  0.2451 -0.4187
  147SAPE   H2R16107   3.588   5.979   5.746  2.1515  0.1317 -1.3080
  147SAPE   H2S16108   3.674   5.867   5.861  1.3333  1.4940 -2.2023
  147SAPE    C316109   3.133   5.974   5.774  0.3726 -0.4092  0.6352
  147SAPE    HX16110   3.171   6.079   5.769  0.2170 -0.3808  0.0332
  147SAPE    HY16111   3.030   5.976   5.816  0.1970  0.4055  0.1757
  147SAPE   O3116112   3.125   5.903   5.652 -0.1476  0.1964  0.5624
  147SAPE   C3116113   3.058   5.964   5.553  0.3892  0.2543  0.3766
  147SAPE   O3216114   3.017   6.081   5.573  0.1658  0.1156 -0.2616
  147SAPE   C3216115   3.062   5.887   5.421  0.5535 -0.0661  0.2197
  147SAPE   H2X16116   3.142   5.924   5.354 -0.5320 -2.8215 -2.7594
  147SAPE   H2Y16117   2.965   5.907   5.370 -0.1861 -0.2102  1.5598
  147SAPE   C2316118   3.641   5.784   5.663  0.4883 -0.3253  0.4344
  147SAPE   H3R16119   3.573   5.798   5.576  0.3372 -0.3356  0.5520
  147SAPE   H3S16120   3.626   5.677   5.689  1.0161 -0.7921 -1.1231
  147SAPE   C2416121   3.785   5.806   5.617 -0.6279  0.1181 -0.3067
  147SAPE   H4R16122   3.856   5.805   5.703  1.4601  0.0777 -2.0036
  147SAPE   H4S16123   3.801   5.905   5.568 -1.6466  0.5722  0.2709
  147SAPE   C2516124   3.842   5.705   5.527 -0.6400  0.1486 -1.1790
  147SAPE   H5R16125   3.909   5.636   5.580 -2.1124  0.0610  0.6074
  147SAPE   C2616126   3.824   5.704   5.390 -0.4079 -0.3683 -0.4470
  147SAPE   H6R16127   3.870   5.621   5.335 -0.5748 -1.3743  0.8868
  147SAPE   C2716128   3.743   5.807   5.320  0.1097  0.0358 -0.7017
  147SAPE   H7R16129   3.660   5.828   5.390 -0.5942  0.2424 -1.5857
  147SAPE   H7S16130   3.696   5.758   5.232  0.8222  0.3429 -1.2545
  147SAPE   C2816131   3.812   5.932   5.283 -0.2060 -0.1429  0.9353
  147SAPE   H8R16132   3.871   5.972   5.367  1.8772 -0.2075 -0.4681
  147SAPE   C2916133   3.800   6.009   5.180 -0.2089 -0.0540  0.3421
  147SAPE   H9R16134   3.840   6.112   5.186 -0.8748  0.1945  0.5073
  147SAPE  C21016135   3.714   5.985   5.065 -0.2104  0.7504  0.5962
  147SAPE  H10R16136   3.638   6.066   5.059  0.0010  0.7943 -1.7362
  147SAPE  H10S16137   3.658   5.890   5.074 -1.8796  1.6415 -0.0575
  147SAPE  C21116138   3.788   5.983   4.935 -0.8813 -0.8649 -0.4865
  147SAPE  H11R16139   3.890   6.024   4.941 -0.9417 -0.8248  0.4478
  147SAPE  C21216140   3.754   5.935   4.818  0.7764 -0.8292 -0.1459
  147SAPE  H12R16141   3.827   5.942   4.737 -0.0900  2.5640 -0.7119
  147SAPE  C21316142   3.623   5.866   4.785  0.4759  0.3233 -1.4032
  147SAPE  H13R16143   3.537   5.908   4.841  0.7809  0.8197 -1.3042
  147SAPE  H13S16144   3.639   5.762   4.819 -2.7527 -0.0594 -0.8380
  147SAPE  C21416145   3.599   5.851   4.636  0.2678 -0.0557 -0.8918
  147SAPE  H14R16146   3.680   5.799   4.582  3.2380  2.9768  0.4748
  147SAPE  C21516147   3.496   5.894   4.574 -0.5101  0.2948  0.9025
  147SAPE  H15R16148   3.506   5.899   4.465  1.9600  1.6647  1.1538
  147SAPE  C21616149   3.372   5.968   4.623 -0.7150  0.3882 -1.0101
  147SAPE  H16R16150   3.357   6.060   4.563 -1.9212  0.5323 -0.4836
  147SAPE  H16S16151   3.392   6.007   4.725 -0.8394  2.0372 -1.6061
  147SAPE  C21716152   3.246   5.878   4.611  0.2960 -0.8043  0.1111
  147SAPE  H17R16153   3.237   5.822   4.515 -0.8756 -2.9064  1.4025
  147SAPE  H17S16154   3.154   5.940   4.618 -1.5709 -3.5416  0.7111
  147SAPE  C21816155   3.234   5.782   4.723 -0.0522  0.1715  0.1606
  147SAPE  H18R16156   3.325   5.721   4.743 -0.9999 -2.0013 -2.0034
  147SAPE  H18S16157   3.153   5.713   4.692 -1.4094  0.5356  2.7984
  147SAPE  C21916158   3.191   5.850   4.847 -0.0848  0.0787  0.0936
  147SAPE  H19R16159   3.150   5.950   4.823  0.0343 -0.3224 -1.8908
  147SAPE  H19S16160   3.271   5.877   4.919  0.2159  1.0982 -0.6058
  147SAPE  C22016161   3.083   5.778   4.929  0.3278  0.3158 -0.3959
  147SAPE  H20R16162   3.125   5.693   4.986  2.4521  1.7012  0.1608
  147SAPE  H20S16163   3.003   5.733   4.866 -0.0753 -2.6782  2.1542
  147SAPE  H20T16164   3.043   5.851   5.002  0.8630  0.1070  0.1028
  147SAPE   C3316165   3.087   5.737   5.427  0.4429  0.7432  0.4776
  147SAPE   H3X16166   3.036   5.695   5.338 -1.3433  0.4238  1.6117
  147SAPE   H3Y16167   3.032   5.693   5.513  1.6282 -2.8871 -0.5502
  147SAPE   C3416168   3.231   5.693   5.439 -0.1550  0.0807  0.7754
  147SAPE   H4X16169   3.220   5.609   5.511 -0.4970  0.4761  1.1874
  147SAPE   H4Y16170   3.293   5.773   5.485 -1.5779  0.1066  2.6948
  147SAPE   C3516171   3.282   5.640   5.305  0.0381  0.4705 -0.7990
  147SAPE   H5X16172   3.275   5.716   5.224  1.1503  1.0297 -0.3805
  147SAPE   H5Y16173   3.226   5.548   5.277  0.1641 -0.4620  1.8791
  147SAPE   C3616174   3.427   5.592   5.310  0.5769  0.0568 -0.4355
  147SAPE   H6X16175   3.430   5.486   5.345  0.5392  1.4066  4.0201
  147SAPE   H6Y16176   3.500   5.655   5.365  1.1199 -0.7071 -0.2663
  147SAPE   C3716177   3.487   5.578   5.173  0.1175  0.2272  0.3113
  147SAPE   H7X16178   3.593   5.551   5.192  0.6016  3.1087  2.1036
  147SAPE   H7Y16179   3.495   5.682   5.134 -0.0172  0.3256  0.5412
  147SAPE   C3816180   3.425   5.470   5.084  0.6785  0.4828  0.4361
  147SAPE   H8X16181   3.314   5.469   5.075  0.6931  0.3776  0.2498
  147SAPE   H8Y16182   3.440   5.377   5.143 -1.0665  0.9267  1.6267
  147SAPE   C3916183   3.487   5.445   4.944  0.1644  1.1609 -0.3181
  147SAPE   H9X16184   3.597   5.428   4.948  0.5806  3.9742  1.8673
  147SAPE   H9Y16185   3.483   5.530   4.873 -0.6200 -0.1010 -1.8182
  147SAPE  C31016186   3.422   5.327   4.872  0.6727  0.1653  0.5758
  147SAPE  H10X16187   3.311   5.339   4.868  0.5994 -0.5719  0.4155
  147SAPE  H10Y16188   3.443   5.230   4.921 -1.4732 -0.1443  0.9407
  147SAPE  C31116189   3.472   5.297   4.728 -0.4243 -0.9971  0.4590
  147SAPE  H11X16190   3.407   5.224   4.674 -0.8825  1.3012 -2.1682
  147SAPE  H11Y16191   3.570   5.245   4.742  0.7859  1.9497  3.5476
  147SAPE  C31216192   3.488   5.417   4.645 -0.6356  0.5422  0.3327
  147SAPE  H12X16193   3.578   5.466   4.687  1.2284 -0.3760 -2.4437
  147SAPE  H12Y16194   3.391   5.470   4.630 -0.3149  0.9236 -0.4266
  147SAPE  C31316195   3.532   5.380   4.494  0.0918  0.3018  0.3710
  147SAPE  H13X16196   3.455   5.313   4.451  2.0731  0.0306 -2.8929
  147SAPE  H13Y16197   3.615   5.307   4.497  2.2875  2.5862 -1.7633
  147SAPE  C31416198   3.556   5.498   4.397 -0.5219  1.0047  0.1139
  147SAPE  H14X16199   3.612   5.581   4.446  0.3854 -0.3336  1.3811
  147SAPE  H14Y16200   3.453   5.531   4.370  0.2560  2.6313 -0.9465
  147SAPE  C31516201   3.618   5.456   4.263  0.4663  0.0301 -0.4480
  147SAPE  H15X16202   3.546   5.384   4.217  0.7147  0.5668 -1.7185
  147SAPE  H15Y16203   3.720   5.413   4.272  1.0770  1.6041  0.1662
  147SAPE  C31616204   3.628   5.567   4.154 -0.3260 -0.0521  0.3218
  147SAPE  H16X16205   3.673   5.654   4.208  0.8650 -0.3946 -0.1147
  147SAPE  H16Y16206   3.526   5.606   4.133 -0.1622 -0.2715 -0.8787
  147SAPE  C31716207   3.716   5.531   4.037  0.1916  0.1834  0.5523
  147SAPE  H17X16208   3.659   5.476   3.959 -0.3607 -0.7474  1.6028
  147SAPE  H17Y16209   3.791   5.457   4.073  0.4680  0.3266  0.2733
  147SAPE  C31816210   3.806   5.642   3.985 -0.5202  0.8050  0.5922
  147SAPE  H18X16211   3.739   5.721   3.946 -0.7637 -0.9366 -2.7361
  147SAPE  H18Y16212   3.865   5.600   3.901 -0.8159 -1.8575  1.6536
  147SAPE  H18Z16213   3.862   5.695   4.065  0.1391  1.3484 -0.2157
  148SAPE     N16214   2.069   2.252   5.970 -0.5708 -0.5806  0.1470
  148SAPE   HN116215   2.077   2.155   6.008  2.7461  0.0542  1.1620
  148SAPE   HN216216   2.148   2.278   5.907 -0.5254 -2.1570 -0.4855
  148SAPE   HN316217   2.060   2.321   6.047  1.2253  0.2490 -0.3592
  148SAPE   C1216218   1.942   2.276   5.899 -0.5352  0.1652  0.4738
  148SAPE  H12A16219   1.876   2.187   5.901  1.2621 -1.2555 -1.2001
  148SAPE  H12B16220   1.956   2.296   5.790  0.0984 -0.2561  0.4718
  148SAPE   C1116221   1.872   2.394   5.976  0.0821  0.6902  0.4688
  148SAPE  H11A16222   1.768   2.416   5.941  0.3774 -0.8043 -1.4412
  148SAPE  H11B16223   1.935   2.482   5.951 -1.6710  1.2520 -2.3219
  148SAPE     P16224   1.946   2.448   6.212  0.1128  0.1945 -0.3481
  148SAPE   O1316225   1.911   2.431   6.357 -0.2305  0.2344 -0.4063
  148SAPE   O1416226   2.084   2.422   6.177  0.0369  0.2812 -0.9165
  148SAPE   O1216227   1.864   2.360   6.114 -0.7792  0.0892 -0.4659
  148SAPE   O1116228   1.921   2.596   6.164  0.0269 -0.3198  0.7836
  148SAPE    C116229   1.813   2.664   6.224  0.4764 -0.7273 -0.1695
  148SAPE    HA16230   1.770   2.621   6.317  0.9283 -0.0397  0.3619
  148SAPE    HB16231   1.850   2.763   6.258 -1.2443 -0.4932  1.0411
  148SAPE    C216232   1.702   2.703   6.123 -0.5456  0.4730  0.4470
  148SAPE    HS16233   1.630   2.765   6.181 -2.2545 -2.1952  1.2358
  148SAPE   O2116234   1.631   2.586   6.068 -0.2788 -0.5031  0.2400
  148SAPE   C2116235   1.557   2.520   6.154  0.1803  0.4802 -0.0762
  148SAPE   O2216236   1.521   2.554   6.266  0.8164 -0.2673 -0.4463
  148SAPE   C2216237   1.519   2.379   6.086 -0.2926 -0.1667 -0.4356
  148SAPE   H2R16238   1.611   2.319   6.072 -0.2915 -0.6292  1.4754
  148SAPE   H2S16239   1.460   2.325   6.164  0.4079 -0.0621  0.1761
  148SAPE    C316240   1.757   2.796   6.005  0.3878 -0.2055  0.2969
  148SAPE    HX16241   1.773   2.898   6.046 -2.5285  0.2025  0.5219
  148SAPE    HY16242   1.670   2.806   5.936  0.8086  0.9092 -0.0972
  148SAPE   O3116243   1.868   2.741   5.931 -0.2923  0.3114 -0.1411
  148SAPE   C3116244   1.980   2.812   5.924  0.1010  0.2991  0.0026
  148SAPE   O3216245   1.999   2.929   5.948 -0.4847  0.0922  0.4781
  148SAPE   C3216246   2.094   2.716   5.877  0.0762 -0.3488  0.7707
  148SAPE   H2X16247   2.056   2.680   5.779 -1.0187 -1.4558  1.5739
  148SAPE   H2Y16248   2.096   2.630   5.948 -0.8112  0.9139  2.3693
  148SAPE   C2316249   1.449   2.391   5.944  0.0897  0.8217 -0.1681
  148SAPE   H3R16250   1.497   2.473   5.888  1.1443  2.3866  2.8934
  148SAPE   H3S16251   1.339   2.398   5.952 -0.2077 -2.1030 -1.0066
  148SAPE   C2416252   1.494   2.267   5.862 -0.6550 -0.6508 -0.0859
  148SAPE   H4R16253   1.462   2.168   5.901 -0.4834 -0.8970 -0.5617
  148SAPE   H4S16254   1.604   2.249   5.866 -0.6386 -0.1385  2.3329
  148SAPE   C2516255   1.457   2.273   5.712  0.0165  0.3814 -0.3823
  148SAPE   H5R16256   1.403   2.181   5.685  1.5886 -1.2374  1.8326
  148SAPE   C2616257   1.512   2.355   5.626 -0.7301  0.6778  0.5002
  148SAPE   H6R16258   1.475   2.348   5.522 -0.7414 -1.5927  0.6230
  148SAPE   C2716259   1.623   2.452   5.645  0.0335 -0.6848 -0.2091
  148SAPE   H7R16260   1.664   2.445   5.748 -0.3701 -1.2798 -0.0811
  148SAPE   H7S16261   1.571   2.550   5.636  1.0658  0.0922  2.0288
  148SAPE   C2816262   1.738   2.448   5.546 -0.0794  0.1880 -0.6483
  148SAPE   H8R16263   1.806   2.362   5.550  0.5124  0.6730 -0.1195
  148SAPE   C2916264   1.764   2.549   5.455  0.5643 -0.4405  0.2969
  148SAPE   H9R16265   1.829   2.509   5.377 -1.3764  0.6628 -1.9561
  148SAPE  C21016266   1.695   2.679   5.430  0.8488  0.0493  0.0921
  148SAPE  H10R16267   1.588   2.653   5.420  1.0134  0.0293 -1.6903
  148SAPE  H10S16268   1.740   2.717   5.336  2.1077  3.5741  2.0285
  148SAPE  C21116269   1.709   2.772   5.543  0.8301 -0.3752 -0.6113
  148SAPE  H11R16270   1.696   2.726   5.642  0.7464  2.1868  0.6073
  148SAPE  C21216271   1.731   2.903   5.532 -0.9096 -0.9526  0.4695
  148SAPE  H12R16272   1.730   2.964   5.623 -3.0691  0.9543 -0.7880
  148SAPE  C21316273   1.745   2.994   5.408 -0.2775  0.5192 -0.4473
  148SAPE  H13R16274   1.684   3.084   5.433  1.0749  2.1890 -2.9690
  148SAPE  H13S16275   1.691   2.936   5.330 -0.6952 -0.5143  0.5790
  148SAPE  C21416276   1.888   3.024   5.365 -0.2777 -0.8894  0.4959
  148SAPE  H14R16277   1.954   3.050   5.449  0.0450  0.3519 -0.1261
  148SAPE  C21516278   1.946   3.020   5.245  0.5020  0.7263  0.5500
  148SAPE  H15R16279   2.053   3.044   5.235  1.6703 -2.7271  3.5898
  148SAPE  C21616280   1.874   2.987   5.118 -0.1035  0.5362 -1.0314
  148SAPE  H16R16281   1.767   3.011   5.136  0.1439 -1.1030  3.0929
  148SAPE  H16S16282   1.881   2.880   5.090  3.1572  0.1167  1.0328
  148SAPE  C21716283   1.912   3.068   4.992  0.1118  0.2409  0.5977
  148SAPE  H17R16284   2.017   3.040   4.966 -0.9669 -2.1042 -1.3929
  148SAPE  H17S16285   1.901   3.176   5.015 -0.7466  0.2779  0.0323
  148SAPE  C21816286   1.815   3.038   4.876  0.8988 -0.0075  0.2343
  148SAPE  H18R16287   1.722   3.098   4.889  0.8134 -0.3826  1.4409
  148SAPE  H18S16288   1.783   2.932   4.890  1.2011 -0.0029  0.9762
  148SAPE  C21916289   1.874   3.055   4.736 -0.1752  0.0344 -0.3277
  148SAPE  H19R16290   1.952   2.976   4.731 -1.1189 -0.9154 -0.1148
  148SAPE  H19S16291   1.918   3.156   4.719 -1.1975  0.7202  1.0432
  148SAPE  C22016292   1.771   3.008   4.631 -0.3143  0.3068 -0.4354
  148SAPE  H20R16293   1.765   2.901   4.663  0.2826  0.9981  2.0983
  148SAPE  H20S16294   1.813   3.014   4.528  1.2453 -1.4830  0.0623
  148SAPE  H20T16295   1.683   3.075   4.638 -0.6390 -0.2160  0.6311
  148SAPE   C3316296   2.243   2.768   5.885  0.1989  0.1804 -0.2143
  148SAPE   H3X16297   2.268   2.763   5.993 -1.8056  1.5787  0.3484
  148SAPE   H3Y16298   2.239   2.869   5.840  1.6199 -0.4643 -1.8678
  148SAPE   C3416299   2.343   2.685   5.800 -0.0793  0.1054  1.1467
  148SAPE   H4X16300   2.373   2.598   5.862  4.4263  0.9503  0.3363
  148SAPE   H4Y16301   2.432   2.750   5.788 -0.4005  0.5759  1.2809
  148SAPE   C3516302   2.293   2.635   5.663  0.1059 -0.7254 -0.4105
  148SAPE   H5X16303   2.195   2.584   5.677 -0.1187 -1.4325 -4.0687
  148SAPE   H5Y16304   2.358   2.550   5.634 -1.0858 -0.9242 -2.5825
  148SAPE   C3616305   2.288   2.740   5.546  0.0971  0.2942 -0.6910
  148SAPE   H6X16306   2.390   2.785   5.545  0.5255 -0.6609 -2.0188
  148SAPE   H6Y16307   2.206   2.811   5.571  0.3767 -0.0737  1.3453
  148SAPE   C3716308   2.264   2.658   5.421  0.8463  0.7494 -0.1845
  148SAPE   H7X16309   2.178   2.587   5.429 -0.0600  2.0908  2.8034
  148SAPE   H7Y16310   2.360   2.607   5.398  1.1623  0.6087  1.4056
  148SAPE   C3816311   2.241   2.743   5.300 -0.4512  0.0892  0.1285
  148SAPE   H8X16312   2.331   2.800   5.269 -1.1237  0.6854 -0.7362
  148SAPE   H8Y16313   2.165   2.818   5.330 -0.3232 -0.0522  0.8006
  148SAPE   C3916314   2.185   2.687   5.168 -0.3127 -0.3942  0.0446
  148SAPE   H9X16315   2.263   2.620   5.126 -0.2714  0.1058 -0.7026
  148SAPE   H9Y16316   2.165   2.770   5.097 -0.9619 -0.0734  0.5954
  148SAPE  C31016317   2.052   2.609   5.191 -0.1243 -0.0086  0.6393
  148SAPE  H10X16318   1.981   2.691   5.216 -0.6584 -0.2078 -0.2134
  148SAPE  H10Y16319   2.052   2.540   5.278  0.3928 -1.4683 -0.5196
  148SAPE  C31116320   1.996   2.528   5.074 -0.0704  0.0821  0.2108
  148SAPE  H11X16321   1.916   2.459   5.109  0.5536 -1.9612 -2.2071
  148SAPE  H11Y16322   2.082   2.473   5.030 -0.2565  0.2316 -0.3514
  148SAPE  C31216323   1.924   2.615   4.964  0.1291  0.2679 -0.4832
  148SAPE  H12X16324   1.975   2.691   4.902 -0.2970  0.4260 -0.6451
  148SAPE  H12Y16325   1.841   2.668   5.015  2.3458  3.9893 -0.6307
  148SAPE  C31316326   1.854   2.514   4.870  0.9248 -0.0255  0.4650
  148SAPE  H13X16327   1.780   2.449   4.921 -0.5583  1.1222 -0.1998
  148SAPE  H13Y16328   1.925   2.444   4.821  0.3087  1.9952 -3.4663
  148SAPE  C31416329   1.782   2.594   4.765 -0.2378  0.2179 -0.6849
  148SAPE  H14X16330   1.853   2.662   4.714 -0.3296 -0.0467 -1.1664
  148SAPE  H14Y16331   1.705   2.659   4.811  1.7621  1.5642  0.8731
  148SAPE  C31516332   1.720   2.510   4.661  0.5998  0.3438 -0.2103
  148SAPE  H15X16333   1.633   2.459   4.708  0.9927  0.2541  0.4198
  148SAPE  H15Y16334   1.783   2.432   4.613  0.4583 -0.2116  0.5026
  148SAPE  C31616335   1.651   2.588   4.545  0.1947  0.2737 -0.3777
  148SAPE  H16X16336   1.609   2.517   4.471 -2.3257 -1.1476  2.3167
  148SAPE  H16Y16337   1.722   2.659   4.497 -0.7746  0.7535 -1.1173
  148SAPE  C31716338   1.535   2.674   4.589  0.7920  0.4470  0.1253
  148SAPE  H17X16339   1.568   2.760   4.652  1.3533  1.3326 -1.3391
  148SAPE  H17Y16340   1.476   2.618   4.664  0.2111  1.7876  0.6859
  148SAPE  C31816341   1.446   2.719   4.473  0.3418  0.4570 -0.9483
  148SAPE  H18X16342   1.392   2.630   4.435 -2.0096  0.9511  1.1269
  148SAPE  H18Y16343   1.510   2.773   4.400  2.8379 -1.9561 -0.6639
  148SAPE  H18Z16344   1.371   2.788   4.517  1.1265  0.0061  1.1589
  149SAPE     N16345   2.667   1.842   6.343 -0.2060  0.3203 -0.3907
  149SAPE   HN116346   2.606   1.883   6.268 -1.9460  1.0588  1.3803
  149SAPE   HN216347   2.621   1.749   6.340 -1.7764  0.8825  3.2424
  149SAPE   HN316348   2.657   1.866   6.443  0.0420 -0.5097 -0.1672
  149SAPE   C1216349   2.809   1.825   6.293  0.5175 -0.0447  0.0937
  149SAPE  H12A16350   2.802   1.786   6.189  0.3286  0.3674 -0.0489
  149SAPE  H12B16351   2.854   1.750   6.361 -3.6175 -0.2270  2.7974
  149SAPE   C1116352   2.888   1.958   6.284  0.5657  0.5611  0.5266
  149SAPE  H11A16353   2.984   1.935   6.233  1.3275  0.9689  1.7553
  149SAPE  H11B16354   2.907   2.006   6.382 -1.1898  4.0737 -0.7450
  149SAPE     P16355   2.903   2.186   6.169  0.1284  0.0291  0.4176
  149SAPE   O1316356   2.802   2.278   6.113  0.9579  0.5345 -0.4795
  149SAPE   O1416357   2.983   2.236   6.286  0.2172  0.2366  0.0801
  149SAPE   O1216358   2.825   2.052   6.205 -0.8634  0.2791  0.4574
  149SAPE   O1116359   3.002   2.122   6.065  0.4932  0.7530  0.3501
  149SAPE    C116360   2.967   2.066   5.936 -0.5791 -0.6535 -0.1539
  149SAPE    HA16361   2.865   2.090   5.899 -0.1146  0.5200 -0.6765
  149SAPE    HB16362   3.036   2.109   5.861 -1.6614  0.6630 -0.4058
  149SAPE    C216363   2.982   1.911   5.943  0.1613 -0.7282  0.2431
  149SAPE    HS16364   2.909   1.882   6.022  1.1666  1.0559  1.8548
  149SAPE   O2116365   3.113   1.883   5.999  0.6488  0.3175 -0.1612
  149SAPE   C2116366   3.132   1.768   6.068  0.0402 -0.4080 -0.4648
  149SAPE   O2216367   3.042   1.693   6.107  0.6472 -0.2582  0.4832
  149SAPE   C2216368   3.276   1.740   6.094  0.3660  0.2330 -0.2211
  149SAPE   H2R16369   3.340   1.820   6.050 -0.7368  1.0018 -0.4615
  149SAPE   H2S16370   3.301   1.746   6.202 -1.3894 -0.0245  0.2155
  149SAPE    C316371   2.971   1.840   5.804  0.3905  0.4295  0.6195
  149SAPE    HX16372   2.969   1.730   5.823  0.8860  0.2297 -0.4852
  149SAPE    HY16373   3.047   1.875   5.731  0.2171  1.9123  1.1393
  149SAPE   O3116374   2.848   1.880   5.732  0.2490 -0.0182  0.1313
  149SAPE   C3116375   2.750   1.788   5.730 -0.3817 -1.1291 -1.0196
  149SAPE   O3216376   2.756   1.677   5.774 -0.2609 -0.0975  0.0861
  149SAPE   C3216377   2.635   1.854   5.656 -0.2056  0.0757 -0.9098
  149SAPE   H2X16378   2.640   1.964   5.668  0.6298 -0.0516 -0.0590
  149SAPE   H2Y16379   2.545   1.815   5.708 -0.8851  1.1531 -1.2660
  149SAPE   C2316380   3.316   1.603   6.035  0.0391 -0.1175 -0.2305
  149SAPE   H3R16381   3.307   1.585   5.926 -2.4655  2.3159 -0.4811
  149SAPE   H3S16382   3.278   1.514   6.089  0.0503  0.8686  1.4751
  149SAPE   C2416383   3.472   1.595   6.050  0.1940  0.7485 -0.5509
  149SAPE   H4R16384   3.503   1.489   6.042 -2.4447 -0.0874 -0.2472
  149SAPE   H4S16385   3.502   1.637   6.149 -0.9631  1.7166 -0.5918
  149SAPE   C2516386   3.549   1.676   5.947  0.6512  0.4255 -0.3968
  149SAPE   H5R16387   3.565   1.780   5.980 -1.0584  0.7684 -0.6084
  149SAPE   C2616388   3.604   1.636   5.830 -0.0575  0.6086  0.3665
  149SAPE   H6R16389   3.641   1.711   5.758 -0.1819 -0.9753 -1.3897
  149SAPE   C2716390   3.588   1.498   5.777 -0.5330 -0.0639 -0.0196
  149SAPE   H7R16391   3.566   1.430   5.862 -0.9736  1.6087  1.2247
  149SAPE   H7S16392   3.685   1.462   5.735  0.5171  1.6167  0.9264
  149SAPE   C2816393   3.472   1.460   5.688 -0.5527  0.0090 -0.1565
  149SAPE   H8R16394   3.375   1.449   5.740  0.1837 -0.4729  1.1354
  149SAPE   C2916395   3.481   1.438   5.561 -0.1920  1.2556 -0.2007
  149SAPE   H9R16396   3.388   1.406   5.514 -1.6038  2.9252  1.3726
  149SAPE  C21016397   3.608   1.445   5.481  0.0650  0.0882  0.1204
  149SAPE  H10R16398   3.686   1.508   5.528 -0.5127  1.2491 -0.4510
  149SAPE  H10S16399   3.589   1.498   5.385 -0.8459 -0.1037  0.1827
  149SAPE  C21116400   3.667   1.308   5.456 -0.0986  0.2030  0.1445
  149SAPE  H11R16401   3.651   1.239   5.539 -0.8145 -1.8035 -1.6213
  149SAPE  C21216402   3.715   1.258   5.346  0.8641  0.1828 -0.0113
  149SAPE  H12R16403   3.754   1.155   5.348 -1.7830 -0.8837 -1.3898
  149SAPE  C21316404   3.734   1.323   5.211  0.2786 -0.0663  0.8266
  149SAPE  H13R16405   3.708   1.431   5.215 -1.7452 -0.3456 -2.5901
  149SAPE  H13S16406   3.668   1.285   5.129  3.7749  1.1481 -2.7262
  149SAPE  C21416407   3.884   1.310   5.169  0.0030  0.7226 -0.2311
  149SAPE  H14R16408   3.952   1.288   5.253  1.4224 -1.7682 -1.9767
  149SAPE  C21516409   3.934   1.299   5.048  0.3974 -0.4300  0.4669
  149SAPE  H15R16410   4.043   1.289   5.037  0.2752 -0.5827 -0.6697
  149SAPE  C21616411   3.863   1.303   4.919 -0.3991  0.3080 -0.8164
  149SAPE  H16R16412   3.905   1.385   4.856 -2.1009  1.4478 -0.5123
  149SAPE  H16S16413   3.753   1.315   4.920 -0.4349 -0.0557  0.2753
  149SAPE  C21716414   3.872   1.166   4.846  0.5275 -0.1954  0.2843
  149SAPE  H17R16415   3.823   1.087   4.906 -2.4706  2.6260  1.6942
  149SAPE  H17S16416   3.976   1.140   4.818  2.1206  4.4787  1.3869
  149SAPE  C21816417   3.808   1.178   4.704  0.6965 -0.4128  0.0420
  149SAPE  H18R16418   3.846   1.097   4.639  1.0390  0.0367 -0.3261
  149SAPE  H18S16419   3.866   1.258   4.651  0.9295 -0.1456  0.7005
  149SAPE  C21916420   3.658   1.196   4.692 -0.2438  0.2354  0.1993
  149SAPE  H19R16421   3.630   1.294   4.736 -1.1549 -1.0407  2.5434
  149SAPE  H19S16422   3.605   1.115   4.746  1.0075 -0.5316  0.2987
  149SAPE  C22016423   3.603   1.189   4.550  0.2157 -0.3546 -0.5055
  149SAPE  H20R16424   3.664   1.244   4.476  0.8602  0.1819  0.4116
  149SAPE  H20S16425   3.496   1.218   4.544  0.2202 -0.6405 -2.2004
  149SAPE  H20T16426   3.617   1.086   4.513  1.5112 -0.7705  1.0610
  149SAPE   C3316427   2.626   1.821   5.500  0.5112  0.1841  0.0045
  149SAPE   H3X16428   2.528   1.863   5.469 -0.5306 -1.6938  0.6876
  149SAPE   H3Y16429   2.607   1.714   5.479  0.9544  0.2682 -0.8580
  149SAPE   C3416430   2.737   1.885   5.420  0.3567 -0.4019 -0.5150
  149SAPE   H4X16431   2.777   1.974   5.473 -2.7320  1.0850 -0.5636
  149SAPE   H4Y16432   2.704   1.920   5.320  2.6533  0.9062 -0.8639
  149SAPE   C3516433   2.856   1.787   5.390  0.1868  0.1432 -0.8671
  149SAPE   H5X16434   2.917   1.798   5.481 -3.5634  1.9770  1.5587
  149SAPE   H5Y16435   2.905   1.839   5.305 -3.0590  0.9955 -2.3276
  149SAPE   C3616436   2.815   1.648   5.357 -0.8392 -0.6740  0.7050
  149SAPE   H6X16437   2.727   1.659   5.291 -1.7160  2.3247  2.2748
  149SAPE   H6Y16438   2.780   1.598   5.449 -1.4670 -1.6495 -0.0596
  149SAPE   C3716439   2.918   1.570   5.278  0.1294  0.0901  0.2687
  149SAPE   H7X16440   3.019   1.575   5.325 -0.4999 -0.2686  1.6754
  149SAPE   H7Y16441   2.930   1.609   5.175  0.0514 -1.6250 -0.4024
  149SAPE   C3816442   2.873   1.419   5.252  0.0411  0.4934  0.2812
  149SAPE   H8X16443   2.766   1.411   5.282  0.2392 -1.3140  0.5781
  149SAPE   H8Y16444   2.933   1.353   5.319  1.1716 -0.4214 -1.6045
  149SAPE   C3916445   2.894   1.376   5.109  0.6690  0.6196  0.6545
  149SAPE   H9X16446   2.877   1.266   5.108 -1.0889  0.8831 -0.7723
  149SAPE   H9Y16447   2.999   1.399   5.082  1.0051 -0.6916  0.7889
  149SAPE  C31016448   2.816   1.450   4.993  0.4460  0.0546 -0.0084
  149SAPE  H10X16449   2.840   1.558   4.986  0.0029  0.1739  0.2996
  149SAPE  H10Y16450   2.705   1.449   5.006  0.4698 -2.2582  0.2658
  149SAPE  C31116451   2.842   1.384   4.851  0.4213  0.1944  0.2823
  149SAPE  H11X16452   2.765   1.418   4.778  0.8063  0.6321  0.0820
  149SAPE  H11Y16453   2.835   1.274   4.862 -1.1122  0.3216  0.7019
  149SAPE  C31216454   2.980   1.415   4.787 -0.0367 -0.7705  0.1750
  149SAPE  H12X16455   3.071   1.393   4.846  1.5812  2.3172 -1.0807
  149SAPE  H12Y16456   2.974   1.525   4.771 -2.6415 -0.9264 -0.1120
  149SAPE  C31316457   2.992   1.340   4.652 -0.0750  0.6382  0.5225
  149SAPE  H13X16458   2.910   1.368   4.584 -1.1494 -0.6039  1.2993
  149SAPE  H13Y16459   2.983   1.230   4.665 -0.0798  0.7033  1.1219
  149SAPE  C31416460   3.134   1.360   4.598 -0.2877 -0.6346 -0.5520
  149SAPE  H14X16461   3.151   1.282   4.521  0.6416 -0.0983 -0.9015
  149SAPE  H14Y16462   3.200   1.343   4.686 -0.8345  1.8366  0.3707
  149SAPE  C31516463   3.172   1.489   4.520  0.1753  0.0966 -0.1855
  149SAPE  H15X16464   3.170   1.576   4.589  2.7566  0.3197 -0.3202
  149SAPE  H15Y16465   3.093   1.490   4.442 -0.2802  0.8813  0.2779
  149SAPE  C31616466   3.311   1.500   4.444 -0.7228  0.2356  0.2173
  149SAPE  H16X16467   3.311   1.585   4.373 -1.0354  0.2870  0.2804
  149SAPE  H16Y16468   3.340   1.412   4.382  3.1087  2.2717 -0.9868
  149SAPE  C31716469   3.437   1.509   4.538  0.1619  0.5883 -0.6319
  149SAPE  H17X16470   3.445   1.415   4.596 -0.0898 -0.0781 -1.6501
  149SAPE  H17Y16471   3.413   1.585   4.615  0.4273 -1.5980  1.6656
  149SAPE  C31816472   3.564   1.547   4.465  1.6327  1.0873  0.1151
  149SAPE  H18X16473   3.576   1.654   4.440  1.1134  0.7627 -1.5652
  149SAPE  H18Y16474   3.570   1.497   4.366 -0.8188 -1.7008  1.2792
  149SAPE  H18Z16475   3.647   1.517   4.532  2.1626 -0.1654 -1.1002
  150SAPE     N16476   5.879   4.192   6.201 -0.6717 -0.0945 -0.3083
  150SAPE   HN116477   5.807   4.268   6.206 -0.3564  0.2330 -0.6793
  150SAPE   HN216478   5.959   4.236   6.151 -2.0386  3.1730  0.2093
  150SAPE   HN316479   5.854   4.108   6.145  0.1514 -2.0892  2.2153
  150SAPE   C1216480   5.915   4.150   6.339  0.2187 -0.5582  0.3126
  150SAPE  H12A16481   5.817   4.135   6.389  0.2238 -1.7045 -0.0093
  150SAPE  H12B16482   5.976   4.229   6.388 -0.3167  0.2972 -0.3976
  150SAPE   C1116483   5.996   4.020   6.347 -0.4651  0.3485 -0.2770
  150SAPE  H11A16484   6.026   4.004   6.452 -0.8395 -0.6642 -0.3129
  150SAPE  H11B16485   6.087   4.035   6.286 -1.0031 -1.4691 -1.5703
  150SAPE     P16486   5.890   3.865   6.159 -0.0053  0.3043 -0.0408
  150SAPE   O1316487   5.850   3.727   6.157  0.1344  0.5177  0.2138
  150SAPE   O1416488   5.790   3.960   6.111 -0.2215 -0.0547  0.4887
  150SAPE   O1216489   5.918   3.909   6.303 -0.3487 -0.0463  0.3552
  150SAPE   O1116490   6.023   3.890   6.084  0.4232  0.5191 -0.7080
  150SAPE    C116491   6.030   3.951   5.960  0.0054  0.0383 -0.0707
  150SAPE    HA16492   5.965   3.895   5.889 -0.3854 -1.3932  1.3821
  150SAPE    HB16493   6.004   4.059   5.960 -0.2302 -0.0190 -0.5863
  150SAPE    C216494   6.174   3.954   5.898  0.5436 -0.8576 -1.0808
  150SAPE    HS16495   6.235   3.993   5.983 -1.2566 -2.0459  0.8095
  150SAPE   O2116496   6.174   4.039   5.784  0.3729  0.1640 -0.5775
  150SAPE   C2116497   6.305   4.086   5.763  0.0867  0.2867  0.1160
  150SAPE   O2216498   6.401   4.057   5.830 -0.2101  0.5540  0.0017
  150SAPE   C2216499   6.298   4.176   5.641 -0.1097  0.5322 -0.3289
  150SAPE   H2R16500   6.270   4.113   5.554  0.4716 -3.1088  2.0289
  150SAPE   H2S16501   6.214   4.246   5.661  1.3868  2.1132  0.4988
  150SAPE    C316502   6.222   3.817   5.860  0.5648 -0.2266 -0.0039
  150SAPE    HX16503   6.202   3.760   5.953 -3.7016 -0.7955 -1.1778
  150SAPE    HY16504   6.331   3.811   5.840  0.9831  4.6243  0.0802
  150SAPE   O3116505   6.140   3.755   5.760 -0.5170  0.1401 -0.1018
  150SAPE   C3116506   6.189   3.755   5.632 -0.1224  0.4853  0.2805
  150SAPE   O3216507   6.288   3.806   5.588 -0.1021  0.3747 -0.0508
  150SAPE   C3216508   6.090   3.670   5.552 -0.2004 -0.2595  0.6213
  150SAPE   H2X16509   5.990   3.678   5.600 -1.4105  0.8784 -1.9626
  150SAPE   H2Y16510   6.135   3.569   5.557  2.8112  0.9786 -0.1541
  150SAPE   C2316511   6.429   4.249   5.610  0.1150 -0.5200 -0.4025
  150SAPE   H3R16512   6.477   4.282   5.705 -1.3055  2.6339 -0.7297
  150SAPE   H3S16513   6.399   4.330   5.541  2.6290  0.2341 -0.6690
  150SAPE   C2416514   6.538   4.164   5.539 -0.7758 -0.1517 -0.3608
  150SAPE   H4R16515   6.596   4.113   5.619  0.0617  0.9440 -0.2604
  150SAPE   H4S16516   6.607   4.231   5.485 -0.5470 -0.1489 -0.0685
  150SAPE   C2516517   6.483   4.055   5.452 -0.0301 -0.3049 -0.0324
  150SAPE   H5R16518   6.436   3.973   5.509  0.4902 -0.8748 -0.4128
  150SAPE   C2616519   6.467   4.075   5.320 -0.1711  0.0209 -0.1000
  150SAPE   H6R16520   6.419   3.995   5.261  0.6114  0.3732 -1.2321
  150SAPE   C2716521   6.496   4.199   5.236 -0.6667  0.4335  0.1548
  150SAPE   H7R16522   6.603   4.192   5.207 -0.8796 -1.6744 -0.2285
  150SAPE   H7S16523   6.484   4.292   5.295 -0.1599  1.1647 -0.8823
  150SAPE   C2816524   6.400   4.215   5.119  0.4837  0.4854 -0.0081
  150SAPE   H8R16525   6.310   4.275   5.140  0.4360  0.1912  0.6407
  150SAPE   C2916526   6.410   4.133   5.009  1.2063  0.1602 -0.3996
  150SAPE   H9R16527   6.339   4.147   4.925 -0.8376 -0.8347  1.1279
  150SAPE  C21016528   6.513   4.025   4.978 -0.4547  0.6954  0.4792
  150SAPE  H10R16529   6.465   3.925   4.977  2.4627 -0.7583  1.2691
  150SAPE  H10S16530   6.580   4.007   5.064  1.9731 -0.2332 -1.5509
  150SAPE  C21116531   6.578   4.053   4.845  0.4839 -0.4303 -0.1834
  150SAPE  H11R16532   6.653   4.133   4.838  1.0359 -0.6697  2.4692
  150SAPE  C21216533   6.553   3.989   4.729  0.4665  0.5219 -0.7185
  150SAPE  H12R16534   6.604   4.025   4.638 -1.1604  2.9597 -0.6944
  150SAPE  C21316535   6.454   3.877   4.700  0.1594  0.5524  0.0421
  150SAPE  H13R16536   6.390   3.847   4.786  1.3246  0.4046  0.8708
  150SAPE  H13S16537   6.492   3.775   4.678 -0.5022  0.3789 -0.3019
  150SAPE  C21416538   6.372   3.919   4.581 -0.3412  0.2610 -0.1493
  150SAPE  H14R16539   6.324   4.017   4.586  0.1298  0.4743  0.2023
  150SAPE  C21516540   6.351   3.849   4.465 -0.8603 -0.7935 -0.0572
  150SAPE  H15R16541   6.273   3.887   4.398 -0.4829 -1.8706 -1.1292
  150SAPE  C21616542   6.397   3.712   4.426 -0.3298  0.0211  0.1037
  150SAPE  H16R16543   6.478   3.675   4.492 -1.2977  1.9687  2.4706
  150SAPE  H16S16544   6.426   3.709   4.319  2.3928 -0.6153  0.8336
  150SAPE  C21716545   6.278   3.613   4.432 -0.2485  0.4716 -0.2064
  150SAPE  H17R16546   6.292   3.519   4.374 -1.7874  0.4053 -0.4974
  150SAPE  H17S16547   6.201   3.666   4.372  1.2459  2.6147 -0.2893
  150SAPE  C21816548   6.241   3.578   4.581 -1.0970 -0.0474  0.1304
  150SAPE  H18R16549   6.212   3.668   4.639  0.4475  1.0984 -0.8210
  150SAPE  H18S16550   6.332   3.528   4.623 -1.4122  1.2128  2.3817
  150SAPE  C21916551   6.125   3.480   4.596 -0.0695  0.7815 -1.1937
  150SAPE  H19R16552   6.126   3.404   4.516  0.1451 -0.1110 -0.3523
  150SAPE  H19S16553   6.039   3.546   4.572 -2.4465 -1.5234  0.7305
  150SAPE  C22016554   6.123   3.406   4.729 -0.3144 -0.1486 -0.1515
  150SAPE  H20R16555   6.203   3.332   4.752  1.0637  1.4083  0.1577
  150SAPE  H20S16556   6.029   3.348   4.727 -1.7296  2.1013 -2.2872
  150SAPE  H20T16557   6.120   3.473   4.818 -1.1490 -0.1970 -0.1450
  150SAPE   C3316558   6.085   3.725   5.416 -0.3342  0.0951 -0.6079
  150SAPE   H3X16559   6.093   3.835   5.407  0.1427  0.1095 -0.1164
  150SAPE   H3Y16560   5.981   3.706   5.384 -0.0595  0.6813 -1.8898
  150SAPE   C3416561   6.191   3.650   5.337  0.6444  0.0423  0.1483
  150SAPE   H4X16562   6.173   3.540   5.344 -0.5162  0.3487  2.8835
  150SAPE   H4Y16563   6.290   3.676   5.380 -0.1218  0.0504  1.9509
  150SAPE   C3516564   6.172   3.696   5.194 -0.1589  0.1066 -0.2946
  150SAPE   H5X16565   6.265   3.672   5.138  1.0262  1.1504  1.1744
  150SAPE   H5Y16566   6.164   3.807   5.190  0.6101  0.1717 -0.1595
  150SAPE   C3616567   6.051   3.631   5.131  1.2237  0.2991  0.3734
  150SAPE   H6X16568   5.957   3.661   5.184  2.3872 -0.6767  3.1091
  150SAPE   H6Y16569   6.054   3.520   5.133 -0.8166  0.2029 -0.6793
  150SAPE   C3716570   6.039   3.673   4.982 -1.1712 -0.1914  0.3225
  150SAPE   H7X16571   5.960   3.603   4.947 -1.0359 -0.9926  1.5919
  150SAPE   H7Y16572   6.130   3.636   4.930 -1.0892  0.0577  0.2900
  150SAPE   C3816573   6.001   3.817   4.955 -0.0326 -0.2472  0.1730
  150SAPE   H8X16574   6.068   3.869   5.027  0.5447  0.0636 -0.5903
  150SAPE   H8Y16575   5.894   3.829   4.984  0.2234  1.4175  0.4973
  150SAPE   C3916576   6.035   3.864   4.812 -0.5221 -0.1991 -0.7786
  150SAPE   H9X16577   6.110   3.793   4.772  0.0427 -0.9658  1.5458
  150SAPE   H9Y16578   6.073   3.969   4.810  0.0814 -0.3917 -0.0073
  150SAPE  C31016579   5.909   3.857   4.720 -0.5004 -0.2353 -0.0738
  150SAPE  H10X16580   5.831   3.925   4.760 -0.2141 -1.0700  1.9763
  150SAPE  H10Y16581   5.864   3.758   4.744 -0.1407 -1.1208 -2.8169
  150SAPE  C31116582   5.929   3.856   4.570 -0.2479 -0.0415  0.3033
  150SAPE  H11X16583   5.844   3.808   4.518 -1.5863  0.7628  1.7366
  150SAPE  H11Y16584   6.017   3.790   4.553 -0.8567 -0.5748 -0.8596
  150SAPE  C31216585   5.968   3.989   4.503  0.5191 -0.3844 -0.1083
  150SAPE  H12X16586   6.026   3.968   4.411 -2.4810 -0.1666 -2.1271
  150SAPE  H12Y16587   6.032   4.038   4.580  0.4358 -0.8804  0.2793
  150SAPE  C31316588   5.835   4.064   4.476  0.1197  0.2757 -0.0660
  150SAPE  H13X16589   5.791   4.102   4.570  0.9364  4.0705 -1.1580
  150SAPE  H13Y16590   5.763   3.997   4.425 -0.7122  2.9890 -2.5354
  150SAPE  C31416591   5.852   4.174   4.369 -0.0240 -0.3309  0.1108
  150SAPE  H14X16592   5.749   4.207   4.343  0.0809  0.5413  0.7618
  150SAPE  H14Y16593   5.892   4.128   4.276 -0.4530 -2.3018  0.8768
  150SAPE  C31516594   5.937   4.293   4.411  0.2755  0.3814  0.1209
  150SAPE  H15X16595   6.029   4.253   4.460 -0.7183 -3.8253 -1.2134
  150SAPE  H15Y16596   5.884   4.353   4.487 -0.8170  3.0284 -2.6079
  150SAPE  C31616597   5.985   4.389   4.303 -0.2644 -0.3879  0.1815
  150SAPE  H16X16598   5.898   4.398   4.235  0.1473 -2.5467 -0.6896
  150SAPE  H16Y16599   6.072   4.349   4.246  0.0583  1.0442 -0.3426
  150SAPE  C31716600   6.039   4.521   4.367  0.1539  0.5746 -0.4661
  150SAPE  H17X16601   6.134   4.509   4.422 -1.7501 -1.1898  2.5847
  150SAPE  H17Y16602   5.959   4.563   4.432 -0.6933 -0.0612 -1.0892
  150SAPE  C31816603   6.056   4.622   4.256 -0.0019 -0.5228  0.3619
  150SAPE  H18X16604   5.954   4.656   4.227  0.4628  0.6347  0.0444
  150SAPE  H18Y16605   6.111   4.575   4.172  1.1652 -1.4049  1.5818
  150SAPE  H18Z16606   6.116   4.708   4.294 -0.2719 -0.0833 -0.2006
  151SAPE     N16607   4.790   2.187   6.388  0.6106 -0.4985 -0.0052
  151SAPE   HN116608   4.687   2.181   6.400  0.4403  1.6707 -0.2312
  151SAPE   HN216609   4.830   2.111   6.446  1.1796 -0.0562  0.1836
  151SAPE   HN316610   4.823   2.282   6.415  1.1456 -0.7250  0.1469
  151SAPE   C1216611   4.841   2.153   6.256 -0.5364 -0.4887  0.0937
  151SAPE  H12A16612   4.948   2.183   6.250 -1.4393  3.2101  1.1187
  151SAPE  H12B16613   4.783   2.206   6.178 -2.4300 -1.0385  1.1018
  151SAPE   C1116614   4.840   2.003   6.232  0.6237 -0.1297  0.5887
  151SAPE  H11A16615   4.888   1.988   6.133 -0.5554  1.4550 -0.2510
  151SAPE  H11B16616   4.735   1.967   6.225  0.8253 -0.6537  0.2183
  151SAPE     P16617   5.062   1.905   6.332  0.0043 -0.3010 -0.5233
  151SAPE   O1316618   5.125   2.017   6.410 -0.4036 -0.3015  0.3042
  151SAPE   O1416619   5.093   1.775   6.390 -0.1750 -0.7296  0.8376
  151SAPE   O1216620   4.901   1.932   6.335 -0.7644  0.1198  0.2821
  151SAPE   O1116621   5.113   1.907   6.185  0.6172  0.5511 -0.0240
  151SAPE    C116622   5.107   1.788   6.109 -0.2580  0.2127 -0.1994
  151SAPE    HA16623   5.026   1.717   6.136 -0.7768  1.1334  0.7020
  151SAPE    HB16624   5.086   1.822   6.005  2.2994 -0.9564 -1.1538
  151SAPE    C216625   5.241   1.712   6.104  0.0984 -0.1147 -0.4094
  151SAPE    HS16626   5.298   1.721   6.199 -1.3191  1.7585  0.2832
  151SAPE   O2116627   5.323   1.759   5.993  0.2954  0.0466 -0.0117
  151SAPE   C2116628   5.450   1.711   5.995 -0.3106 -0.7508 -0.5560
  151SAPE   O2216629   5.505   1.658   6.092 -0.1359 -0.1470 -0.1829
  151SAPE   C2216630   5.511   1.727   5.856  0.5094  0.1582 -0.1312
  151SAPE   H2R16631   5.546   1.829   5.826  0.2344 -0.5113 -2.8176
  151SAPE   H2S16632   5.593   1.651   5.856  1.0405  0.7033  1.3649
  151SAPE    C316633   5.210   1.559   6.091  0.3500 -0.8435 -0.2470
  151SAPE    HX16634   5.146   1.541   6.181 -0.1539  0.7505 -0.2647
  151SAPE    HY16635   5.305   1.502   6.089  1.7343  1.3897 -1.2095
  151SAPE   O3116636   5.138   1.543   5.968  0.3724 -0.5882 -0.6595
  151SAPE   C3116637   5.064   1.437   5.974  0.0137  0.2715  0.5347
  151SAPE   O3216638   5.054   1.371   6.076 -0.1749 -0.0718 -0.2497
  151SAPE   C3216639   4.987   1.404   5.846  0.1550  0.2590  0.0863
  151SAPE   H2X16640   4.895   1.465   5.831  0.5438  0.8411  0.0547
  151SAPE   H2Y16641   4.962   1.296   5.842 -0.1040  0.3257 -0.1694
  151SAPE   C2316642   5.417   1.697   5.737  0.0994  0.2067 -0.5047
  151SAPE   H3R16643   5.367   1.783   5.688 -0.8900 -1.8276 -3.2140
  151SAPE   H3S16644   5.341   1.625   5.777  1.1805  0.0133  1.2662
  151SAPE   C2416645   5.506   1.635   5.623  0.0039 -0.7218  0.5233
  151SAPE   H4R16646   5.565   1.550   5.663  1.3055  0.8624  2.0100
  151SAPE   H4S16647   5.571   1.718   5.589 -1.0756  0.2555  0.7938
  151SAPE   C2516648   5.426   1.590   5.505  0.1576  0.7415  0.2155
  151SAPE   H5R16649   5.407   1.482   5.499 -2.7383  1.3065 -1.4833
  151SAPE   C2616650   5.373   1.659   5.409 -0.0007  0.3575 -0.1609
  151SAPE   H6R16651   5.328   1.600   5.327 -2.0359 -0.3833  1.4573
  151SAPE   C2716652   5.379   1.812   5.400 -0.1897  0.3608 -0.0096
  151SAPE   H7R16653   5.406   1.839   5.295 -2.5820  0.9513 -0.4910
  151SAPE   H7S16654   5.442   1.855   5.481  2.5824 -0.1792 -1.7876
  151SAPE   C2816655   5.232   1.846   5.420  0.7578 -0.3290 -0.5256
  151SAPE   H8R16656   5.182   1.784   5.495  1.8574 -0.0374  0.4625
  151SAPE   C2916657   5.178   1.958   5.373  0.5743 -0.3597 -0.3715
  151SAPE   H9R16658   5.075   1.969   5.409  1.5437  1.2706  2.0530
  151SAPE  C21016659   5.238   2.073   5.297  0.0254 -0.0996  0.0900
  151SAPE  H10R16660   5.332   2.088   5.354 -0.0190 -0.2480  0.2040
  151SAPE  H10S16661   5.178   2.166   5.311 -0.8072 -0.1654 -2.8307
  151SAPE  C21116662   5.265   2.054   5.148  0.5682 -0.0888  0.1355
  151SAPE  H11R16663   5.365   2.025   5.114  1.3648  2.2306  0.3769
  151SAPE  C21216664   5.173   2.074   5.051 -0.4941 -0.2555  0.1984
  151SAPE  H12R16665   5.220   2.078   4.952 -0.6704 -0.2792  0.1159
  151SAPE  C21316666   5.037   2.124   5.069  0.7719  0.1242  0.2665
  151SAPE  H13R16667   5.018   2.197   4.988  1.2937 -0.1351 -0.0943
  151SAPE  H13S16668   5.035   2.191   5.157 -0.1235  1.8113 -1.0211
  151SAPE  C21416669   4.934   2.017   5.082  0.7947  0.5132 -0.2141
  151SAPE  H14R16670   4.956   1.940   5.157 -0.0566  1.6497  1.2253
  151SAPE  C21516671   4.835   1.996   4.992 -0.3522  0.6231 -0.6826
  151SAPE  H15R16672   4.781   1.900   4.999  1.7779 -0.5956 -0.5507
  151SAPE  C21616673   4.818   2.081   4.864  0.2532 -0.2868  0.2660
  151SAPE  H16R16674   4.820   2.190   4.887  0.7741 -0.5656  1.6356
  151SAPE  H16S16675   4.725   2.051   4.812 -0.2829 -1.6882  1.9710
  151SAPE  C21716676   4.926   2.037   4.757 -0.0893  0.6149 -0.6030
  151SAPE  H17R16677   4.900   1.948   4.696 -1.6629  1.2836 -0.9315
  151SAPE  H17S16678   5.016   2.019   4.819 -1.4003  0.5000  1.2801
  151SAPE  C21816679   4.953   2.144   4.659  0.1698 -0.3826 -0.0862
  151SAPE  H18R16680   4.976   2.242   4.707  0.9506 -2.2416  3.4831
  151SAPE  H18S16681   4.850   2.168   4.624 -0.8379 -0.3357  2.7350
  151SAPE  C21916682   5.062   2.131   4.544 -0.7081 -0.2318 -0.0871
  151SAPE  H19R16683   5.047   2.030   4.501 -1.3778 -0.4814  0.7080
  151SAPE  H19S16684   5.164   2.118   4.587 -1.5662  0.4843  2.2308
  151SAPE  C22016685   5.061   2.249   4.439  0.3110 -0.0138 -0.3189
  151SAPE  H20R16686   5.162   2.261   4.395  0.7209  0.0271  0.6344
  151SAPE  H20S16687   5.022   2.341   4.486 -3.0889 -1.5461  0.0143
  151SAPE  H20T16688   4.986   2.230   4.359  0.2392  0.1803 -0.2971
  151SAPE   C3316689   5.080   1.427   5.723 -0.4339 -0.0748  0.1384
  151SAPE   H3X16690   5.183   1.385   5.724  0.1374  1.2308 -1.8225
  151SAPE   H3Y16691   5.096   1.537   5.734 -0.5642 -0.1197  0.8329
  151SAPE   C3416692   5.019   1.399   5.587  0.3465  0.4882  0.0245
  151SAPE   H4X16693   4.915   1.437   5.595  0.2618  0.2248  0.1892
  151SAPE   H4Y16694   5.013   1.288   5.578 -1.5774  0.5123  0.7338
  151SAPE   C3516695   5.102   1.434   5.466  0.0513 -0.7588  0.6510
  151SAPE   H5X16696   5.194   1.372   5.459  0.1909 -0.5752  0.8502
  151SAPE   H5Y16697   5.148   1.535   5.474 -0.2053 -0.6538  0.8225
  151SAPE   C3616698   5.019   1.426   5.332 -0.3845  0.3290  0.2964
  151SAPE   H6X16699   4.921   1.475   5.349 -1.1474 -0.9299 -0.3586
  151SAPE   H6Y16700   5.008   1.318   5.308 -0.3370  0.1332  1.1491
  151SAPE   C3716701   5.094   1.502   5.219  0.0810  0.0855 -0.1028
  151SAPE   H7X16702   5.191   1.451   5.204  1.2408  2.7701 -2.1545
  151SAPE   H7Y16703   5.112   1.608   5.246  0.0368  0.0755 -0.0339
  151SAPE   C3816704   5.013   1.499   5.092 -0.1957  0.1897 -0.6651
  151SAPE   H8X16705   4.930   1.569   5.112 -0.3259 -0.8937  3.0185
  151SAPE   H8Y16706   4.975   1.398   5.067  1.8967 -0.1212 -2.7456
  151SAPE   C3916707   5.098   1.544   4.971 -0.3951 -0.2243  0.1095
  151SAPE   H9X16708   5.186   1.477   4.963 -0.8708 -1.0057  1.2174
  151SAPE   H9Y16709   5.128   1.649   4.994 -0.3424  0.0367 -1.1286
  151SAPE  C31016710   5.019   1.548   4.842  0.5867  0.6238 -0.4630
  151SAPE  H10X16711   4.995   1.445   4.806 -0.4615  0.8351 -0.3694
  151SAPE  H10Y16712   5.081   1.595   4.762 -0.3510  1.9369 -0.4187
  151SAPE  C31116713   4.880   1.614   4.852 -0.9203 -0.1108  0.0369
  151SAPE  H11X16714   4.900   1.713   4.898 -1.7863  0.3686 -0.5922
  151SAPE  H11Y16715   4.819   1.556   4.924 -0.2376 -0.1826  0.5629
  151SAPE  C31216716   4.812   1.628   4.717 -0.4600  0.0138  1.0626
  151SAPE  H12X16717   4.818   1.530   4.665 -1.0185 -0.1747  1.3484
  151SAPE  H12Y16718   4.858   1.700   4.646 -0.9894 -0.0360  0.6625
  151SAPE  C31316719   4.661   1.681   4.732  0.7669  0.1063  0.5779
  151SAPE  H13X16720   4.658   1.770   4.798  0.6855  1.2024 -0.8723
  151SAPE  H13Y16721   4.602   1.603   4.784  0.2993  1.7295  2.5420
  151SAPE  C31416722   4.595   1.719   4.603  0.0413  1.1251  0.5079
  151SAPE  H14X16723   4.588   1.624   4.546  1.3485  0.3009  1.6828
  151SAPE  H14Y16724   4.665   1.786   4.548 -0.9919  1.8247  0.0405
  151SAPE  C31516725   4.467   1.800   4.618 -0.0724  0.5341  0.1321
  151SAPE  H15X16726   4.471   1.881   4.542 -2.3905 -1.0521 -1.7568
  151SAPE  H15Y16727   4.460   1.848   4.718 -2.6627 -1.7463  1.1272
  151SAPE  C31616728   4.330   1.729   4.591 -0.2029 -0.4158 -0.1196
  151SAPE  H16X16729   4.326   1.678   4.492  1.0088 -2.1551  0.6918
  151SAPE  H16Y16730   4.246   1.800   4.601  1.0365  0.8230  1.7338
  151SAPE  C31716731   4.308   1.597   4.673 -0.0413  0.0970 -0.7528
  151SAPE  H17X16732   4.306   1.616   4.782 -1.9837 -0.0012 -0.7685
  151SAPE  H17Y16733   4.402   1.540   4.652  1.1625  1.9077 -0.3995
  151SAPE  C31816734   4.196   1.508   4.626  0.1355 -1.4020 -0.0196
  151SAPE  H18X16735   4.094   1.541   4.658 -0.0900 -2.5210  0.4406
  151SAPE  H18Y16736   4.213   1.406   4.667  1.2044 -1.3001 -0.2167
  151SAPE  H18Z16737   4.205   1.477   4.520 -0.6155  0.7582 -0.7309
  152SAPE     N16738   1.057   3.491   6.168  0.2956 -0.3210  0.0992
  152SAPE   HN116739   1.124   3.560   6.128 -1.7647  0.4428 -2.1714
  152SAPE   HN216740   1.083   3.406   6.115  1.9197  0.5883 -0.6250
  152SAPE   HN316741   0.966   3.527   6.133  1.2742  1.4358 -0.7053
  152SAPE   C1216742   1.054   3.473   6.322 -0.2572  0.7453 -0.1589
  152SAPE  H12A16743   1.019   3.571   6.362  1.7092  0.6888  1.7804
  152SAPE  H12B16744   1.155   3.450   6.362 -0.4236 -2.2401 -1.3286
  152SAPE   C1116745   0.977   3.351   6.358  1.2935 -0.5352  0.0088
  152SAPE  H11A16746   0.873   3.364   6.322  0.0428 -0.8752  3.3419
  152SAPE  H11B16747   0.960   3.335   6.467 -1.0586 -0.8376 -0.3732
  152SAPE     P16748   0.951   3.159   6.192 -0.0058  0.2961 -0.3621
  152SAPE   O1316749   0.810   3.156   6.234  0.4500 -0.5900 -0.0876
  152SAPE   O1416750   0.984   3.232   6.065 -0.1291  0.3805  0.2125
  152SAPE   O1216751   1.040   3.232   6.305 -0.0641  0.4557 -0.0280
  152SAPE   O1116752   1.019   3.021   6.193 -0.1260  0.0577  0.1032
  152SAPE    C116753   1.153   2.991   6.232 -0.7477  0.6801  0.1592
  152SAPE    HA16754   1.226   3.054   6.177  1.1496 -1.9921 -0.4918
  152SAPE    HB16755   1.176   3.012   6.339  1.9549 -2.6358  0.3354
  152SAPE    C216756   1.186   2.833   6.199 -0.4258 -0.6621 -0.7273
  152SAPE    HS16757   1.293   2.811   6.221 -0.4510 -0.4065 -0.3505
  152SAPE   O2116758   1.146   2.793   6.067 -0.2029 -0.8725  0.3421
  152SAPE   C2116759   1.235   2.835   5.979 -0.3826  0.2206  0.6090
  152SAPE   O2216760   1.324   2.915   5.994  0.2920 -0.0791  0.2530
  152SAPE   C2216761   1.197   2.769   5.843 -0.6670 -0.2849 -0.1895
  152SAPE   H2R16762   1.231   2.666   5.868  0.5518  0.0377 -0.4796
  152SAPE   H2S16763   1.088   2.785   5.832 -0.4407  3.4355  2.1773
  152SAPE    C316764   1.116   2.743   6.299 -0.1178 -0.4472 -0.1520
  152SAPE    HX16765   1.150   2.768   6.402 -0.2360  1.4947 -0.5695
  152SAPE    HY16766   1.147   2.641   6.269 -0.8591 -1.2891  1.8075
  152SAPE   O3116767   0.972   2.756   6.294 -0.1084 -0.4070  0.5729
  152SAPE   C3116768   0.903   2.694   6.199  0.3622 -0.3761 -0.2228
  152SAPE   O3216769   0.955   2.612   6.125 -0.1157 -0.1652 -0.2020
  152SAPE   C3216770   0.756   2.748   6.187 -0.4256 -0.5542 -0.2764
  152SAPE   H2X16771   0.757   2.840   6.248 -0.7836 -0.8955  0.2552
  152SAPE   H2Y16772   0.687   2.681   6.243 -2.6069  1.0478 -0.9662
  152SAPE   C2316773   1.285   2.826   5.731  0.5565 -0.0872  0.6428
  152SAPE   H3R16774   1.378   2.869   5.773  1.1277 -1.8812  1.2659
  152SAPE   H3S16775   1.237   2.915   5.686 -0.3498 -2.7219 -3.9034
  152SAPE   C2416776   1.326   2.729   5.613  0.0039 -0.5085  0.3422
  152SAPE   H4R16777   1.407   2.664   5.654  0.3561 -1.4721 -1.7881
  152SAPE   H4S16778   1.376   2.794   5.539 -0.1981  0.3077  0.9140
  152SAPE   C2516779   1.205   2.642   5.557  0.3725 -0.0734  0.7848
  152SAPE   H5R16780   1.179   2.556   5.621 -3.6904  0.3193 -0.1979
  152SAPE   C2616781   1.129   2.670   5.446 -0.3219  0.4540 -0.6051
  152SAPE   H6R16782   1.041   2.608   5.423  0.2405 -0.9370  0.8871
  152SAPE   C2716783   1.140   2.791   5.355  0.6408 -0.8700 -0.1002
  152SAPE   H7R16784   1.104   2.760   5.254  2.9072  0.8678 -1.5065
  152SAPE   H7S16785   1.247   2.821   5.347  0.8688 -2.2565 -2.9952
  152SAPE   C2816786   1.057   2.907   5.419  0.4964 -0.6908 -0.1852
  152SAPE   H8R16787   1.119   2.973   5.482  0.0040 -1.1183  0.7686
  152SAPE   C2916788   0.934   2.943   5.384 -1.1504  0.4619  0.6808
  152SAPE   H9R16789   0.882   3.010   5.454 -0.6919  0.3203  1.1593
  152SAPE  C21016790   0.845   2.875   5.276 -0.0656  0.6590  0.1041
  152SAPE  H10R16791   0.880   2.770   5.264  0.7408  1.1718 -2.1643
  152SAPE  H10S16792   0.864   2.911   5.173 -2.2185 -1.6808 -1.1696
  152SAPE  C21116793   0.705   2.871   5.313 -0.2000  0.2292  0.5533
  152SAPE  H11R16794   0.681   2.849   5.418 -1.0661  0.2925  0.3703
  152SAPE  C21216795   0.601   2.893   5.228  0.7520  0.8423 -0.3904
  152SAPE  H12R16796   0.507   2.920   5.277  0.8607  1.2439 -0.3950
  152SAPE  C21316797   0.610   2.930   5.083 -0.4475  0.7928  0.3841
  152SAPE  H13R16798   0.704   2.888   5.041 -0.9432 -0.9375  0.9538
  152SAPE  H13S16799   0.617   3.040   5.068 -1.3186  0.8863  0.6542
  152SAPE  C21416800   0.489   2.878   5.007 -0.7155  0.1161 -0.8428
  152SAPE  H14R16801   0.392   2.916   5.044 -1.2398 -1.8808 -0.1219
  152SAPE  C21516802   0.486   2.786   4.913 -0.0001  0.4604  0.1550
  152SAPE  H15R16803   0.385   2.760   4.877  0.4871 -0.7763 -0.3462
  152SAPE  C21616804   0.603   2.703   4.855 -0.8087  0.1456 -0.0123
  152SAPE  H16R16805   0.595   2.594   4.877  0.4988 -0.4243 -2.1652
  152SAPE  H16S16806   0.700   2.732   4.901 -0.3932  2.2438 -2.1303
  152SAPE  C21716807   0.622   2.719   4.704 -0.1357 -0.8221  0.0738
  152SAPE  H17R16808   0.642   2.826   4.680  0.9456 -0.9147  0.5221
  152SAPE  H17S16809   0.527   2.690   4.655  0.3839 -0.2348 -1.2973
  152SAPE  C21816810   0.739   2.637   4.641 -0.1920  0.1386 -0.4140
  152SAPE  H18R16811   0.740   2.528   4.664 -0.2179  0.8140  3.1324
  152SAPE  H18S16812   0.830   2.674   4.693  0.0812 -1.6430  0.4188
  152SAPE  C21916813   0.750   2.655   4.489 -0.2760  0.2975 -0.6381
  152SAPE  H19R16814   0.776   2.761   4.471  1.1235  0.3562  1.5210
  152SAPE  H19S16815   0.654   2.627   4.441 -1.5226  2.2372  0.6899
  152SAPE  C22016816   0.852   2.560   4.434  0.4291  0.1169  0.2794
  152SAPE  H20R16817   0.860   2.559   4.323  0.3287  1.0713  0.2587
  152SAPE  H20S16818   0.821   2.456   4.455  0.6619 -0.1321 -0.5766
  152SAPE  H20T16819   0.950   2.588   4.479  1.1791  0.2497 -1.3859
  152SAPE   C3316820   0.714   2.757   6.041  0.3539 -0.0872 -0.1295
  152SAPE   H3X16821   0.605   2.779   6.033  0.2611 -0.8676 -1.0094
  152SAPE   H3Y16822   0.729   2.667   5.979  1.6777 -1.0122  1.5189
  152SAPE   C3416823   0.777   2.875   5.966  0.0258 -0.9968 -0.0843
  152SAPE   H4X16824   0.886   2.861   5.952  0.3697  0.1304  1.3149
  152SAPE   H4Y16825   0.761   2.965   6.030 -2.1820 -1.4159  0.0231
  152SAPE   C3516826   0.722   2.896   5.827 -0.3966  0.1166  0.2554
  152SAPE   H5X16827   0.613   2.915   5.824 -0.4700 -0.4291 -0.5088
  152SAPE   H5Y16828   0.736   2.793   5.788 -1.7044 -0.3761  1.0450
  152SAPE   C3616829   0.801   2.983   5.737  0.3677 -0.2640  0.4036
  152SAPE   H6X16830   0.750   2.963   5.641  3.3808  3.7230 -2.1854
  152SAPE   H6Y16831   0.909   2.962   5.720  0.5559  0.6793  0.3908
  152SAPE   C3716832   0.790   3.133   5.770 -0.3049  0.4693 -0.5099
  152SAPE   H7X16833   0.825   3.151   5.874 -0.9839 -0.8110 -0.0428
  152SAPE   H7Y16834   0.683   3.162   5.767  0.0723  1.9274 -0.2307
  152SAPE   C3816835   0.873   3.228   5.677 -0.2263  0.2624  0.2208
  152SAPE   H8X16836   0.853   3.330   5.715 -1.1196 -0.2623  1.1975
  152SAPE   H8Y16837   0.833   3.209   5.575 -1.0487  0.5086  0.4915
  152SAPE   C3916838   1.029   3.216   5.679  0.3922 -0.2700  0.9368
  152SAPE   H9X16839   1.066   3.134   5.614 -0.8415  0.4271 -0.6785
  152SAPE   H9Y16840   1.075   3.213   5.781  2.5265  1.7630  0.0920
  152SAPE  C31016841   1.099   3.333   5.609 -0.2229  0.2079  0.1712
  152SAPE  H10X16842   1.067   3.423   5.665  2.0876  1.7860 -0.9645
  152SAPE  H10Y16843   1.060   3.335   5.505  3.3163  0.3192 -1.2275
  152SAPE  C31116844   1.254   3.333   5.601  0.3768 -0.0482  0.5861
  152SAPE  H11X16845   1.299   3.338   5.703 -1.4480  0.6982  1.3768
  152SAPE  H11Y16846   1.284   3.432   5.560 -0.0555 -0.3427 -0.4386
  152SAPE  C31216847   1.302   3.216   5.521  0.8128  0.3200 -0.0671
  152SAPE  H12X16848   1.261   3.123   5.566  0.5984  0.1154 -0.6734
  152SAPE  H12Y16849   1.413   3.219   5.523  0.8909  1.0417 -2.6659
  152SAPE  C31316850   1.247   3.212   5.379  0.4215  0.3864  0.2112
  152SAPE  H13X16851   1.253   3.317   5.342  1.6107 -0.2699 -1.5303
  152SAPE  H13Y16852   1.139   3.186   5.388  0.4288  0.4713  0.5474
  152SAPE  C31416853   1.329   3.119   5.286 -0.0817  0.5585  0.2932
  152SAPE  H14X16854   1.340   3.022   5.339 -0.6699  0.4937  0.3012
  152SAPE  H14Y16855   1.431   3.162   5.278  0.0568  0.3791  1.1377
  152SAPE  C31516856   1.280   3.093   5.140 -0.4422 -0.4065  0.7675
  152SAPE  H15X16857   1.269   3.194   5.093  2.1241 -0.4094  0.1059
  152SAPE  H15Y16858   1.177   3.052   5.147 -0.1369 -1.0804  1.3250
  152SAPE  C31616859   1.368   2.999   5.051 -0.6112 -0.4556 -0.1944
  152SAPE  H16X16860   1.456   3.066   5.043 -0.8329  0.2257  2.3900
  152SAPE  H16Y16861   1.327   2.996   4.948  3.2415 -3.1050 -1.7351
  152SAPE  C31716862   1.420   2.868   5.106 -0.1597  0.2815  0.6259
  152SAPE  H17X16863   1.331   2.813   5.144 -1.4679  0.0649 -2.5739
  152SAPE  H17Y16864   1.484   2.877   5.196  0.5307  2.0682 -0.0137
  152SAPE  C31816865   1.488   2.780   5.011  0.3700  0.4704 -0.2492
  152SAPE  H18X16866   1.429   2.780   4.917 -0.3104 -1.4416  0.1455
  152SAPE  H18Y16867   1.491   2.676   5.052  0.6571 -0.2229 -1.9537
  152SAPE  H18Z16868   1.592   2.802   4.978  0.2834  1.7061  0.2794
  153SAPE     N16869   5.942   3.478   6.075  0.5708  0.1312 -0.3595
  153SAPE   HN116870   5.954   3.421   6.161  1.1155  1.2158  0.3041
  153SAPE   HN216871   5.890   3.565   6.096  0.2105  0.1955 -1.4623
  153SAPE   HN316872   5.883   3.412   6.020  1.0629  0.1629 -0.9371
  153SAPE   C1216873   6.074   3.521   6.009  0.2603  0.2926 -0.4304
  153SAPE  H12A16874   6.108   3.607   6.070  0.2404 -0.3902  0.5690
  153SAPE  H12B16875   6.048   3.542   5.903 -0.1222  1.5363 -0.1031
  153SAPE   C1116876   6.192   3.421   6.028  0.0949 -0.1416  0.0419
  153SAPE  H11A16877   6.289   3.466   5.997  0.9244 -2.0278 -0.1800
  153SAPE  H11B16878   6.183   3.335   5.958  0.1098 -0.0361 -0.0914
  153SAPE     P16879   6.230   3.225   6.200  0.3642  0.2945  0.2741
  153SAPE   O1316880   6.233   3.235   6.344 -0.3675  0.0347  0.0370
  153SAPE   O1416881   6.137   3.128   6.140  0.0719 -0.6485 -0.1014
  153SAPE   O1216882   6.194   3.378   6.161 -0.1692 -0.4436 -0.0901
  153SAPE   O1116883   6.374   3.215   6.149 -0.2485 -0.1936 -0.2264
  153SAPE    C116884   6.494   3.241   6.229  0.2943  1.2756  0.1813
  153SAPE    HA16885   6.468   3.303   6.318 -3.6033 -1.4383  1.0819
  153SAPE    HB16886   6.533   3.147   6.275 -1.2135 -0.7219 -2.4617
  153SAPE    C216887   6.604   3.326   6.152 -0.0639  0.7135 -0.5418
  153SAPE    HS16888   6.691   3.340   6.219  0.6606  0.0297 -1.3187
  153SAPE   O2116889   6.542   3.455   6.135 -0.6414 -0.3363 -0.1847
  153SAPE   C2116890   6.634   3.545   6.091  0.5690 -0.2192 -0.1971
  153SAPE   O2216891   6.755   3.531   6.089  0.4537 -0.6838 -0.2207
  153SAPE   C2216892   6.552   3.662   6.038 -0.1663  0.1300  0.3488
  153SAPE   H2R16893   6.461   3.619   5.993  0.6901 -1.6594  0.2914
  153SAPE   H2S16894   6.516   3.729   6.119 -1.5506 -0.3688  0.1455
  153SAPE    C316895   6.650   3.251   6.022 -0.1188  0.4801  0.3495
  153SAPE    HX16896   6.695   3.156   6.059 -1.1060  0.0237  0.3842
  153SAPE    HY16897   6.735   3.305   5.974  1.2748 -1.0933  0.9873
  153SAPE   O3116898   6.543   3.228   5.930  0.1819  0.6912 -0.2103
  153SAPE   C3116899   6.552   3.302   5.815  0.0947 -0.5932  1.1044
  153SAPE   O3216900   6.641   3.382   5.785  0.6097 -0.1296  0.3229
  153SAPE   C3216901   6.430   3.273   5.726 -0.0502  0.4662 -0.1165
  153SAPE   H2X16902   6.341   3.288   5.790  1.9514  1.1118  2.6363
  153SAPE   H2Y16903   6.435   3.168   5.690  1.7546  0.0989  1.1107
  153SAPE   C2316904   6.623   3.763   5.939  0.5857  0.1359 -0.4067
  153SAPE   H3R16905   6.729   3.784   5.967  1.3495 -1.3549 -2.0989
  153SAPE   H3S16906   6.577   3.864   5.947  1.2154  0.5916 -2.2857
  153SAPE   C2416907   6.618   3.715   5.788  0.2105  0.1379 -0.0795
  153SAPE   H4R16908   6.510   3.696   5.769  0.2451  0.6118 -0.7490
  153SAPE   H4S16909   6.684   3.626   5.787  0.0732  0.0425 -0.7708
  153SAPE   C2516910   6.668   3.826   5.704  0.8240 -0.2755  0.1664
  153SAPE   H5R16911   6.587   3.900   5.703  0.5798 -0.5461 -0.1403
  153SAPE   C2616912   6.780   3.835   5.640 -0.1892 -0.7941  0.0636
  153SAPE   H6R16913   6.794   3.922   5.574 -1.5977 -2.0111 -1.8736
  153SAPE   C2716914   6.893   3.735   5.626 -0.5359  0.1290  0.2412
  153SAPE   H7R16915   6.937   3.688   5.717  2.3829 -1.3932 -1.8941
  153SAPE   H7S16916   6.984   3.791   5.596 -0.8727  1.5940  1.8779
  153SAPE   C2816917   6.869   3.626   5.523  0.0916  0.0482 -0.3264
  153SAPE   H8R16918   6.768   3.583   5.529  0.0720  0.2376  0.7797
  153SAPE   C2916919   6.950   3.586   5.433  0.4548 -0.1096 -1.0120
  153SAPE   H9R16920   6.917   3.515   5.356  0.7431 -0.5315 -0.7501
  153SAPE  C21016921   7.095   3.630   5.412 -0.7952  0.7534  0.5973
  153SAPE  H10R16922   7.141   3.657   5.509 -2.2337  0.4236  1.3752
  153SAPE  H10S16923   7.107   3.722   5.350  0.4998 -0.4223 -0.9366
  153SAPE  C21116924   7.182   3.514   5.357 -1.0686 -0.2391  0.4199
  153SAPE  H11R16925   7.201   3.429   5.424 -1.1741 -0.8048 -0.2650
  153SAPE  C21216926   7.232   3.505   5.231  0.5291  0.4758  0.0090
  153SAPE  H12R16927   7.293   3.419   5.201 -0.6246  0.7496 -3.4560
  153SAPE  C21316928   7.209   3.612   5.125  0.8572  0.8865 -0.2764
  153SAPE  H13R16929   7.102   3.641   5.124  0.4198 -0.6696 -0.4470
  153SAPE  H13S16930   7.211   3.553   5.031  1.0820  3.3440 -1.8534
  153SAPE  C21416931   7.298   3.732   5.124 -0.6248 -0.0901 -0.1071
  153SAPE  H14R16932   7.310   3.780   5.222 -0.4928 -1.4378  0.5405
  153SAPE  C21516933   7.352   3.791   5.020 -0.7968  0.0479 -0.4467
  153SAPE  H15R16934   7.407   3.884   5.038 -2.0938  0.4371  1.7322
  153SAPE  C21616935   7.338   3.750   4.875 -0.2754  0.4937  0.5103
  153SAPE  H16R16936   7.263   3.811   4.820 -1.0363 -1.7530 -1.0294
  153SAPE  H16S16937   7.301   3.646   4.859 -0.0492  0.2102  1.7409
  153SAPE  C21716938   7.480   3.760   4.814 -0.6221 -0.6420 -0.0148
  153SAPE  H17R16939   7.539   3.691   4.877 -0.8254 -0.4879  0.3447
  153SAPE  H17S16940   7.537   3.856   4.815 -1.8803  0.0996  1.2207
  153SAPE  C21816941   7.485   3.709   4.672  0.7518 -0.3638  0.0645
  153SAPE  H18R16942   7.422   3.783   4.617  1.2507 -1.2690 -1.7837
  153SAPE  H18S16943   7.427   3.615   4.660  2.0778 -1.2298  0.3369
  153SAPE  C21916944   7.617   3.658   4.623  0.2880 -0.7684 -0.2030
  153SAPE  H19R16945   7.658   3.586   4.696 -1.4374 -2.7416 -1.1325
  153SAPE  H19S16946   7.686   3.744   4.607  1.7416 -1.8083  0.3913
  153SAPE  C22016947   7.627   3.588   4.488  0.2958  0.7491  0.1965
  153SAPE  H20R16948   7.543   3.516   4.482 -0.6167  1.8646 -0.6920
  153SAPE  H20S16949   7.721   3.529   4.493 -0.2432  0.0747  3.4042
  153SAPE  H20T16950   7.639   3.663   4.406  2.8977  2.1743  1.8122
  153SAPE   C3316951   6.417   3.378   5.610  0.4325 -0.2592 -0.6162
  153SAPE   H3X16952   6.414   3.477   5.661 -1.0212 -0.4580 -0.3036
  153SAPE   H3Y16953   6.315   3.381   5.566 -0.2579 -0.4356  0.9330
  153SAPE   C3416954   6.529   3.369   5.497 -0.0487 -0.0683 -0.7792
  153SAPE   H4X16955   6.523   3.272   5.443 -0.8669 -0.0901 -0.6570
  153SAPE   H4Y16956   6.623   3.409   5.542 -0.3384  1.1676 -1.2709
  153SAPE   C3516957   6.497   3.471   5.396 -0.2552 -0.7119 -0.1396
  153SAPE   H5X16958   6.504   3.572   5.442 -1.4391 -1.4592  1.7551
  153SAPE   H5Y16959   6.394   3.455   5.357 -0.9876  0.3421  1.3401
  153SAPE   C3616960   6.581   3.470   5.271  0.1245  0.1996 -1.0010
  153SAPE   H6X16961   6.597   3.370   5.225 -0.1868  0.7049 -2.2349
  153SAPE   H6Y16962   6.680   3.511   5.300  0.3950 -0.7037 -0.6305
  153SAPE   C3716963   6.523   3.573   5.165  1.8913 -0.3996  0.1787
  153SAPE   H7X16964   6.475   3.657   5.218  1.6312 -1.1114  1.0717
  153SAPE   H7Y16965   6.442   3.521   5.110  0.0053  0.7154  1.8600
  153SAPE   C3816966   6.615   3.625   5.058  0.2640 -0.9373 -0.5737
  153SAPE   H8X16967   6.704   3.673   5.104 -2.1633  1.4731  1.8711
  153SAPE   H8Y16968   6.558   3.707   5.008 -0.5012 -0.0248  1.7171
  153SAPE   C3916969   6.654   3.524   4.943 -0.9015 -0.3474 -0.5381
  153SAPE   H9X16970   6.708   3.439   4.990  0.5965  0.8899  0.0292
  153SAPE   H9Y16971   6.734   3.573   4.884  0.4351  1.3077  2.5382
  153SAPE  C31016972   6.541   3.475   4.849  0.1778  0.4059 -0.3826
  153SAPE  H10X16973   6.477   3.563   4.831 -0.5148 -0.3029 -1.4185
  153SAPE  H10Y16974   6.473   3.402   4.898 -0.3424  1.7449  0.9127
  153SAPE  C31116975   6.584   3.421   4.712  0.7057  0.9136 -0.6710
  153SAPE  H11X16976   6.491   3.390   4.659 -0.7312  1.9672  1.1486
  153SAPE  H11Y16977   6.633   3.324   4.734 -2.5309 -0.6022  0.1522
  153SAPE  C31216978   6.661   3.522   4.634 -0.7475 -0.2552  0.4183
  153SAPE  H12X16979   6.768   3.520   4.665 -0.8960  0.4372  1.0021
  153SAPE  H12Y16980   6.620   3.625   4.646 -2.0364 -0.5154 -1.6797
  153SAPE  C31316981   6.661   3.485   4.482  0.3586  0.5477  0.7376
  153SAPE  H13X16982   6.714   3.567   4.430  0.0810 -0.4651 -1.1993
  153SAPE  H13Y16983   6.563   3.465   4.433  1.2265 -1.4906 -0.2521
  153SAPE  C31416984   6.721   3.351   4.454  0.4156  0.9918  0.3051
  153SAPE  H14X16985   6.698   3.315   4.352  2.0745  1.8346 -0.3926
  153SAPE  H14Y16986   6.698   3.264   4.519  1.6167  1.4940  1.4383
  153SAPE  C31516987   6.878   3.363   4.470 -0.3993 -0.0510  0.0404
  153SAPE  H15X16988   6.919   3.260   4.482 -0.9057 -0.2900 -0.2737
  153SAPE  H15Y16989   6.905   3.414   4.564 -0.8019  1.8261 -0.8460
  153SAPE  C31616990   6.951   3.427   4.346 -0.9001  0.2649 -0.0960
  153SAPE  H16X16991   7.061   3.431   4.359 -0.9519  1.5621 -0.0470
  153SAPE  H16Y16992   6.921   3.533   4.333 -1.0849  0.2699  0.3716
  153SAPE  C31716993   6.916   3.367   4.209 -0.1102  0.1837 -0.1251
  153SAPE  H17X16994   6.974   3.416   4.128 -0.2091 -0.7349 -0.7667
  153SAPE  H17Y16995   6.809   3.386   4.188  0.1385 -0.6311 -2.1950
  153SAPE  C31816996   6.949   3.216   4.200  0.0481 -0.2870 -0.0145
  153SAPE  H18X16997   7.055   3.189   4.178 -0.1069  0.1573 -1.3687
  153SAPE  H18Y16998   6.892   3.176   4.113 -1.4329  2.9989 -0.5977
  153SAPE  H18Z16999   6.917   3.161   4.291  3.2654 -2.7367 -0.2621
  154SAPE     N17000   4.267   0.314   6.244  0.3041 -0.1993  0.0325
  154SAPE   HN117001   4.302   0.318   6.341  0.6849  0.4228 -0.1273
  154SAPE   HN217002   4.257   0.412   6.211  0.1341 -0.6400 -1.2704
  154SAPE   HN317003   4.174   0.269   6.233  0.9667 -1.7831  0.6423
  154SAPE   C1217004   4.351   0.227   6.145  0.7507  0.4086 -0.1407
  154SAPE  H12A17005   4.455   0.247   6.176  0.1066 -0.5003  2.8136
  154SAPE  H12B17006   4.340   0.270   6.043  0.6513 -1.5984 -0.9946
  154SAPE   C1117007   4.321   0.073   6.162  0.2348  0.3342  0.7184
  154SAPE  H11A17008   4.383   0.011   6.095 -2.4722 -0.9832 -0.6304
  154SAPE  H11B17009   4.219   0.033   6.148  0.3075 -1.4139  4.4144
  154SAPE     P17010   4.377  -0.110   6.339 -0.5053 -0.0678  0.1289
  154SAPE   O1317011   4.512  -0.159   6.295  0.4327 -0.0923  0.1888
  154SAPE   O1417012   4.341  -0.109   6.483 -0.1622  0.0349  0.5803
  154SAPE   O1217013   4.353   0.039   6.295  0.2458 -0.1807  0.2732
  154SAPE   O1117014   4.259  -0.182   6.262  0.4125 -0.0305 -1.0138
  154SAPE    C117015   4.219  -0.322   6.280  0.2390  0.5669  0.3449
  154SAPE    HA17016   4.241  -0.355   6.384  0.8409 -0.1108  0.0097
  154SAPE    HB17017   4.113  -0.345   6.258  0.5848 -1.3914  0.5726
  154SAPE    C217018   4.291  -0.420   6.186  0.4823 -0.0155 -0.0060
  154SAPE    HS17019   4.393  -0.434   6.228  0.2696  0.5069  0.6884
  154SAPE   O2117020   4.284  -0.365   6.056 -0.1157  0.5382  0.4608
  154SAPE   C2117021   4.392  -0.372   5.989  0.1703  0.1948  0.1138
  154SAPE   O2217022   4.495  -0.434   6.015 -0.8398  0.3366 -0.2766
  154SAPE   C2217023   4.382  -0.287   5.865  0.4643  0.1182 -0.6016
  154SAPE   H2R17024   4.326  -0.197   5.897  0.6478  0.3290 -0.8676
  154SAPE   H2S17025   4.478  -0.259   5.816  0.0355  1.1647 -0.8533
  154SAPE    C317026   4.234  -0.567   6.175  0.6450  0.0402  0.3653
  154SAPE    HX17027   4.226  -0.601   6.281  1.5286  0.0680  0.4462
  154SAPE    HY17028   4.308  -0.637   6.132 -0.3078 -0.3620 -0.6302
  154SAPE   O3117029   4.100  -0.568   6.117  0.2439 -0.0427 -0.1811
  154SAPE   C3117030   4.088  -0.615   6.000 -0.8724  0.1086  0.1742
  154SAPE   O3217031   4.176  -0.683   5.940  0.3736 -0.6959 -0.3333
  154SAPE   C3217032   3.955  -0.584   5.935 -0.0503  0.6674  0.0338
  154SAPE   H2X17033   3.918  -0.486   5.971 -0.0528  0.3110  1.0367
  154SAPE   H2Y17034   3.877  -0.658   5.961  0.5579 -0.5443 -1.5055
  154SAPE   C2317035   4.283  -0.364   5.756 -0.0014  0.5883 -0.4254
  154SAPE   H3R17036   4.265  -0.285   5.681  0.6614 -0.6725 -1.9377
  154SAPE   H3S17037   4.186  -0.386   5.805  0.8168  2.0128  1.9538
  154SAPE   C2417038   4.357  -0.482   5.696  0.0610 -0.3445  0.5706
  154SAPE   H4R17039   4.388  -0.548   5.781  0.4539 -1.2808 -0.2873
  154SAPE   H4S17040   4.444  -0.447   5.636 -0.5114 -1.9441 -1.2388
  154SAPE   C2517041   4.277  -0.553   5.590 -0.4529 -0.4363  0.0636
  154SAPE   H5R17042   4.233  -0.649   5.619 -0.1584 -0.5928 -0.0165
  154SAPE   C2617043   4.266  -0.514   5.462  0.1365  0.7245 -0.3725
  154SAPE   H6R17044   4.189  -0.566   5.404  1.6319 -0.2435 -1.5270
  154SAPE   C2717045   4.332  -0.390   5.404  0.4381 -0.4020 -0.0459
  154SAPE   H7R17046   4.403  -0.427   5.327  1.8000 -5.1669  3.2807
  154SAPE   H7S17047   4.392  -0.330   5.475 -0.8371 -0.8531  1.4364
  154SAPE   C2817048   4.240  -0.303   5.321  0.1907 -0.4475  0.3602
  154SAPE   H8R17049   4.152  -0.269   5.379  1.5457  0.3338  1.9955
  154SAPE   C2917050   4.270  -0.253   5.200 -0.4725  0.0376 -0.3697
  154SAPE   H9R17051   4.194  -0.188   5.155 -1.0059 -0.5082 -0.2564
  154SAPE  C21017052   4.398  -0.265   5.124 -0.0571  0.2136 -0.3025
  154SAPE  H10R17053   4.390  -0.323   5.029  1.2186 -1.9516  0.8733
  154SAPE  H10S17054   4.474  -0.327   5.176  0.2221  0.8219  0.0208
  154SAPE  C21117055   4.459  -0.126   5.109  0.2038  0.2678 -0.0895
  154SAPE  H11R17056   4.481  -0.082   5.208  1.3662 -0.0342 -0.2164
  154SAPE  C21217057   4.486  -0.050   5.006  0.1756  0.6970  0.3696
  154SAPE  H12R17058   4.524   0.052   5.019 -0.2337  0.5871  2.5752
  154SAPE  C21317059   4.456  -0.098   4.867 -0.1424  0.3180  0.2989
  154SAPE  H13R17060   4.432  -0.203   4.843  0.7467  0.4617 -1.3388
  154SAPE  H13S17061   4.539  -0.083   4.794 -2.6028  0.9127 -2.4593
  154SAPE  C21417062   4.350  -0.010   4.811 -0.0594 -0.0948 -0.4649
  154SAPE  H14R17063   4.377   0.094   4.835  2.2127 -0.3607 -1.6718
  154SAPE  C21517064   4.237  -0.039   4.744  0.6247 -0.2495  0.2627
  154SAPE  H15R17065   4.185   0.047   4.700 -0.0398  0.8860  3.1318
  154SAPE  C21617066   4.191  -0.179   4.706 -0.6267 -0.6521 -0.6000
  154SAPE  H16R17067   4.279  -0.243   4.683  0.3328  0.9893 -1.5648
  154SAPE  H16S17068   4.129  -0.174   4.614 -1.1040 -0.8134 -0.2925
  154SAPE  C21717069   4.099  -0.248   4.813  0.4469 -0.2040 -0.3940
  154SAPE  H17R17070   4.165  -0.302   4.885  0.8768  2.1620  1.0443
  154SAPE  H17S17071   4.050  -0.334   4.763  1.9306 -0.9396 -0.6407
  154SAPE  C21817072   4.004  -0.150   4.889 -0.4124 -0.0500 -0.2150
  154SAPE  H18R17073   3.948  -0.087   4.816 -0.7532 -1.5185 -1.2513
  154SAPE  H18S17074   4.077  -0.088   4.944  0.7992 -1.0937 -0.6250
  154SAPE  C21917075   3.898  -0.225   4.968  0.1577  0.3055  0.2839
  154SAPE  H19R17076   3.958  -0.293   5.033  0.0018 -0.0321  0.0756
  154SAPE  H19S17077   3.833  -0.289   4.905  1.0543 -0.9693  0.6263
  154SAPE  C22017078   3.794  -0.140   5.050 -0.7237  0.8227  0.4782
  154SAPE  H20R17079   3.731  -0.085   4.978  0.7430  3.9948  1.5475
  154SAPE  H20S17080   3.848  -0.069   5.117  0.6335  1.0073 -0.7824
  154SAPE  H20T17081   3.726  -0.213   5.100 -0.4638 -0.0682 -0.4448
  154SAPE   C3317082   3.959  -0.582   5.774  0.3567  0.2890  0.2787
  154SAPE   H3X17083   3.990  -0.682   5.739 -2.5388 -0.8636  0.8361
  154SAPE   H3Y17084   4.032  -0.510   5.733 -0.2348  0.4555 -0.4964
  154SAPE   C3417085   3.817  -0.547   5.720  0.1407 -0.3038  0.1703
  154SAPE   H4X17086   3.790  -0.450   5.767 -0.0851 -1.5729  2.7009
  154SAPE   H4Y17087   3.746  -0.618   5.768  0.8184 -1.5923 -0.7177
  154SAPE   C3517088   3.798  -0.540   5.568  0.7822 -0.5089  0.5136
  154SAPE   H5X17089   3.875  -0.611   5.532 -0.5382 -0.4894 -2.5620
  154SAPE   H5Y17090   3.828  -0.441   5.529 -1.2548 -0.0604 -0.0049
  154SAPE   C3617091   3.659  -0.574   5.504  0.5255 -0.1590 -0.4080
  154SAPE   H6X17092   3.573  -0.536   5.563  1.4260  0.1517  0.7282
  154SAPE   H6Y17093   3.639  -0.684   5.508 -0.4386 -0.0334 -1.8317
  154SAPE   C3717094   3.646  -0.528   5.359 -0.7068 -0.3327  0.1012
  154SAPE   H7X17095   3.735  -0.566   5.303  0.9616  3.3571  0.1288
  154SAPE   H7Y17096   3.654  -0.418   5.353 -0.1872 -0.3985 -0.4508
  154SAPE   C3817097   3.513  -0.574   5.304  1.1262  0.3770 -0.2610
  154SAPE   H8X17098   3.452  -0.604   5.391 -0.4168 -0.2703 -1.5327
  154SAPE   H8Y17099   3.526  -0.676   5.261 -1.7478  0.5872 -1.7000
  154SAPE   C3917100   3.450  -0.478   5.203  0.0619 -0.0969  0.2218
  154SAPE   H9X17101   3.427  -0.384   5.257 -0.3242 -1.2488  2.1056
  154SAPE   H9Y17102   3.352  -0.525   5.179  0.4911 -1.3186  0.8026
  154SAPE  C31017103   3.508  -0.458   5.067 -0.4292 -0.7265 -0.3957
  154SAPE  H10X17104   3.601  -0.398   5.055  0.7467 -2.1963  1.1470
  154SAPE  H10Y17105   3.436  -0.403   5.002 -1.6002  1.1883  2.4122
  154SAPE  C31117106   3.531  -0.587   4.988 -0.2865  0.5817  0.7309
  154SAPE  H11X17107   3.439  -0.649   4.977  2.0858 -2.5102 -2.6158
  154SAPE  H11Y17108   3.598  -0.647   5.052  0.8487 -1.2606 -2.0984
  154SAPE  C31217109   3.601  -0.561   4.853 -0.4908 -0.2693  0.0904
  154SAPE  H12X17110   3.625  -0.660   4.810 -1.0109 -1.1210  1.7403
  154SAPE  H12Y17111   3.696  -0.507   4.875  0.2902 -1.0938 -1.1715
  154SAPE  C31317112   3.522  -0.494   4.745 -0.3057 -0.0427  0.4288
  154SAPE  H13X17113   3.496  -0.388   4.763  2.8125  1.1537 -1.6817
  154SAPE  H13Y17114   3.428  -0.549   4.722 -0.5252  1.1515 -1.5648
  154SAPE  C31417115   3.588  -0.491   4.610 -0.3710  0.1940  0.3432
  154SAPE  H14X17116   3.515  -0.445   4.540  0.4561  0.9623 -0.0421
  154SAPE  H14Y17117   3.613  -0.592   4.573  1.7291  0.0944  1.9180
  154SAPE  C31517118   3.715  -0.402   4.612  1.0473  0.6322  0.3609
  154SAPE  H15X17119   3.799  -0.451   4.665  0.4972  0.2705  0.9195
  154SAPE  H15Y17120   3.694  -0.312   4.675  0.7136  0.5414  0.3842
  154SAPE  C31617121   3.750  -0.345   4.473 -0.7549  0.1219 -0.4738
  154SAPE  H16X17122   3.658  -0.299   4.432 -1.1138  0.1976  0.4060
  154SAPE  H16Y17123   3.772  -0.424   4.398 -2.7115 -1.4914  0.6146
  154SAPE  C31717124   3.874  -0.253   4.486  0.4981 -0.5505 -0.6110
  154SAPE  H17X17125   3.953  -0.323   4.519 -0.0405 -1.0423 -0.3509
  154SAPE  H17Y17126   3.860  -0.173   4.562  1.5343 -1.4651  0.5710
  154SAPE  C31817127   3.913  -0.194   4.348  0.2932 -0.0774 -0.5371
  154SAPE  H18X17128   3.897  -0.271   4.269  0.7899 -1.4772  0.6928
  154SAPE  H18Y17129   4.020  -0.164   4.345 -0.1572  1.5952  0.0726
  154SAPE  H18Z17130   3.845  -0.112   4.321 -0.8226 -0.2530  1.6435
  155SAPE     N17131   5.416   0.094   6.219 -0.6276 -0.0585  0.2110
  155SAPE   HN117132   5.519   0.094   6.205 -0.3372  2.7377  1.9604
  155SAPE   HN217133   5.395   0.137   6.311 -1.5344 -0.1278  0.0402
  155SAPE   HN317134   5.389  -0.006   6.220  1.2960 -0.6097  2.8804
  155SAPE   C1217135   5.341   0.152   6.107 -0.2632 -0.2324  0.3801
  155SAPE  H12A17136   5.382   0.123   6.008 -0.1660  0.5277  0.1931
  155SAPE  H12B17137   5.354   0.262   6.119 -2.0909  0.1532 -0.9567
  155SAPE   C1117138   5.191   0.119   6.121  0.2311 -0.3329 -0.4498
  155SAPE  H11A17139   5.183   0.009   6.110 -0.1930 -0.6013  2.3799
  155SAPE  H11B17140   5.143   0.179   6.040  1.4039  0.8991 -0.2422
  155SAPE     P17141   5.100   0.084   6.361  0.6766  0.1401 -0.0591
  155SAPE   O1317142   5.222   0.027   6.416  0.1577 -0.4562  0.7782
  155SAPE   O1417143   5.009   0.164   6.447  0.0366 -0.3851 -0.0314
  155SAPE   O1217144   5.141   0.173   6.241 -0.2444 -0.6557 -0.2768
  155SAPE   O1117145   5.018  -0.033   6.290 -0.5519 -0.2023 -0.2173
  155SAPE    C117146   4.881   0.000   6.243 -0.5535 -0.1754  0.2880
  155SAPE    HA17147   4.813   0.010   6.330  0.9904  0.3773  1.4649
  155SAPE    HB17148   4.889   0.099   6.192  0.9581 -1.4433 -2.0270
  155SAPE    C217149   4.832  -0.104   6.147 -0.3012 -0.3017 -0.0669
  155SAPE    HS17150   4.796  -0.188   6.211 -2.7917 -0.2676 -1.3769
  155SAPE   O2117151   4.932  -0.153   6.054 -0.3568  0.2375  0.5243
  155SAPE   C2117152   4.998  -0.266   6.078 -0.2604  0.0608  0.4620
  155SAPE   O2217153   4.980  -0.349   6.168  0.0098 -0.1402  0.0988
  155SAPE   C2217154   5.107  -0.273   5.975  0.0046 -0.2584  0.6009
  155SAPE   H2R17155   5.095  -0.200   5.892 -1.2224 -0.5462  0.5289
  155SAPE   H2S17156   5.196  -0.235   6.030  0.3519  1.6541 -1.2280
  155SAPE    C317157   4.714  -0.056   6.057 -0.0041  0.3538 -0.8337
  155SAPE    HX17158   4.645  -0.009   6.129 -1.7223 -1.1095 -1.4557
  155SAPE    HY17159   4.656  -0.140   6.013 -0.6212 -0.2026  1.0213
  155SAPE   O3117160   4.757   0.033   5.949 -0.3756  0.7012  0.3621
  155SAPE   C3117161   4.713   0.157   5.936 -0.5192  0.2999  0.5828
  155SAPE   O3217162   4.633   0.219   6.006 -0.2267  0.0123 -0.4699
  155SAPE   C3217163   4.752   0.210   5.798 -0.4465 -0.2218  0.6414
  155SAPE   H2X17164   4.691   0.300   5.777  0.6595  0.0352 -1.6197
  155SAPE   H2Y17165   4.728   0.134   5.721 -1.4511  0.5502  0.1789
  155SAPE   C2317166   5.134  -0.409   5.912 -0.2704  0.2104  0.0049
  155SAPE   H3R17167   5.110  -0.489   5.985 -1.0875  0.9048  0.5106
  155SAPE   H3S17168   5.244  -0.413   5.895  0.0031  1.0820  1.4778
  155SAPE   C2417169   5.061  -0.426   5.782  0.4068 -0.4717  0.1067
  155SAPE   H4R17170   4.954  -0.401   5.797  0.6332  1.7916 -1.7073
  155SAPE   H4S17171   5.065  -0.532   5.749  0.6018  0.0933 -1.7463
  155SAPE   C2517172   5.114  -0.344   5.670  0.6674  0.3766  0.1344
  155SAPE   H5R17173   5.224  -0.346   5.663  0.5052  0.8493 -3.2628
  155SAPE   C2617174   5.042  -0.276   5.577  0.3949 -0.2216 -0.3509
  155SAPE   H6R17175   5.101  -0.210   5.512 -0.5075  0.6386 -0.3112
  155SAPE   C2717176   4.891  -0.262   5.559 -0.1084 -0.4140  0.2630
  155SAPE   H7R17177   4.848  -0.364   5.547  0.3515 -0.4869 -0.8181
  155SAPE   H7S17178   4.870  -0.212   5.462 -2.2344 -1.3030  0.2314
  155SAPE   C2817179   4.815  -0.191   5.663  0.6408 -0.0703  0.4797
  155SAPE   H8R17180   4.860  -0.187   5.764  0.3222  0.9989  0.5862
  155SAPE   C2917181   4.692  -0.140   5.648  0.4545  0.1130 -0.2979
  155SAPE   H9R17182   4.648  -0.083   5.731  2.6240  2.6717 -0.8369
  155SAPE  C21017183   4.598  -0.151   5.528  0.4560 -0.1068 -0.4395
  155SAPE  H10R17184   4.506  -0.194   5.574  0.2750  1.5897  0.8285
  155SAPE  H10S17185   4.638  -0.213   5.445 -3.8579 -1.3977 -1.6962
  155SAPE  C21117186   4.558  -0.019   5.475 -0.1626 -0.9771 -0.8658
  155SAPE  H11R17187   4.458   0.019   5.499  0.0344  0.1896 -1.8439
  155SAPE  C21217188   4.641   0.067   5.414 -0.0617 -0.3338 -0.2050
  155SAPE  H12R17189   4.596   0.165   5.394  0.5301  0.0634  0.4045
  155SAPE  C21317190   4.787   0.060   5.376  0.2106  1.4539  0.3938
  155SAPE  H13R17191   4.841   0.013   5.461  0.0355  0.8021  0.1504
  155SAPE  H13S17192   4.837   0.157   5.359  3.6507 -0.3831 -0.3460
  155SAPE  C21417193   4.799  -0.022   5.250 -0.1999 -0.4630  0.5035
  155SAPE  H14R17194   4.757  -0.123   5.259 -1.5666  0.2063  1.8656
  155SAPE  C21517195   4.864   0.023   5.134  0.5852 -0.0522 -0.0755
  155SAPE  H15R17196   4.857  -0.047   5.049  2.8065 -0.6179  0.1692
  155SAPE  C21617197   4.931   0.153   5.118 -0.2603  0.1195  0.0192
  155SAPE  H16R17198   5.040   0.152   5.139  0.2133 -0.5357 -2.2681
  155SAPE  H16S17199   4.890   0.237   5.179 -0.2781  1.2279 -1.4955
  155SAPE  C21717200   4.918   0.194   4.969 -0.5600 -0.3375 -0.5354
  155SAPE  H17R17201   4.950   0.300   4.970 -1.1468 -0.1252 -2.1153
  155SAPE  H17S17202   4.811   0.186   4.938 -1.1621  1.1873  1.1444
  155SAPE  C21817203   5.016   0.114   4.884 -0.0272  0.2667 -0.1115
  155SAPE  H18R17204   4.973   0.012   4.882 -0.0208  0.2827 -1.3626
  155SAPE  H18S17205   5.122   0.117   4.918  0.2035  1.7638 -0.9361
  155SAPE  C21917206   5.025   0.169   4.740  0.7311 -0.5296  0.4619
  155SAPE  H19R17207   4.930   0.216   4.707  1.3052  0.4661  0.2219
  155SAPE  H19S17208   5.051   0.075   4.685 -0.7140  0.4916 -2.0575
  155SAPE  C22017209   5.133   0.269   4.711  0.4262  0.1288  0.3856
  155SAPE  H20R17210   5.141   0.344   4.792  0.6139  0.5827 -0.0486
  155SAPE  H20S17211   5.106   0.328   4.621 -0.6431 -0.0041  0.6015
  155SAPE  H20T17212   5.235   0.227   4.703  0.3279 -0.0574  0.1020
  155SAPE   C3317213   4.902   0.244   5.783  0.1553  0.4942  0.3818
  155SAPE   H3X17214   4.919   0.314   5.867 -0.1344  0.0605  0.8033
  155SAPE   H3Y17215   4.922   0.293   5.685  0.7957  0.7524  0.6422
  155SAPE   C3417216   4.995   0.122   5.787  0.3409  0.0868  0.2639
  155SAPE   H4X17217   4.947   0.053   5.714  1.1315 -1.3151  1.0517
  155SAPE   H4Y17218   4.988   0.087   5.892 -0.7856  1.5271  0.6832
  155SAPE   C3517219   5.133   0.149   5.745  0.5343  0.4021 -0.0146
  155SAPE   H5X17220   5.164   0.231   5.813 -1.4862  0.2745  1.0731
  155SAPE   H5Y17221   5.142   0.186   5.641  2.1418 -1.4451 -0.5702
  155SAPE   C3617222   5.220   0.020   5.758 -0.4214 -1.0143  0.7142
  155SAPE   H6X17223   5.176  -0.052   5.686  1.2387 -1.6769  0.3449
  155SAPE   H6Y17224   5.232  -0.010   5.864 -0.0799 -0.1553  0.9264
  155SAPE   C3717225   5.358   0.037   5.690 -0.0956 -0.2243  0.1150
  155SAPE   H7X17226   5.409  -0.060   5.708 -2.3230 -1.4566 -0.0428
  155SAPE   H7Y17227   5.413   0.108   5.756 -0.5838 -2.1793  2.7143
  155SAPE   C3817228   5.364   0.070   5.541 -0.1202 -0.0697 -0.2076
  155SAPE   H8X17229   5.467   0.098   5.509  0.5134 -2.6213 -0.4613
  155SAPE   H8Y17230   5.305   0.163   5.523  1.3198  1.2198  1.4535
  155SAPE   C3917231   5.318  -0.033   5.442  0.2433  0.2326 -0.4931
  155SAPE   H9X17232   5.208  -0.034   5.432  0.0945  0.0223  1.0065
  155SAPE   H9Y17233   5.362  -0.128   5.481 -1.9129 -0.6815 -0.2257
  155SAPE  C31017234   5.377  -0.011   5.305 -0.2467 -0.1642 -0.1299
  155SAPE  H10X17235   5.487   0.004   5.294 -0.3337 -1.0001 -2.3001
  155SAPE  H10Y17236   5.325   0.077   5.262  1.4631  0.1899 -1.5528
  155SAPE  C31117237   5.347  -0.108   5.190 -0.6423  0.4205 -0.0592
  155SAPE  H11X17238   5.246  -0.154   5.190  0.1185 -1.3004 -1.1390
  155SAPE  H11Y17239   5.414  -0.195   5.205 -1.1825 -0.2065 -1.2273
  155SAPE  C31217240   5.373  -0.041   5.054 -0.0938  0.6400  0.5252
  155SAPE  H12X17241   5.453   0.035   5.065  1.2063 -0.7307  0.7498
  155SAPE  H12Y17242   5.282   0.019   5.033 -1.8299 -2.2406 -0.4691
  155SAPE  C31317243   5.415  -0.128   4.925  0.8260 -1.1376 -0.2781
  155SAPE  H13X17244   5.335  -0.204   4.912 -0.9061  0.2665  1.8376
  155SAPE  H13Y17245   5.513  -0.180   4.933  0.5632 -1.6691 -0.4164
  155SAPE  C31417246   5.427  -0.031   4.807  0.1021 -0.6711 -0.6224
  155SAPE  H14X17247   5.495   0.047   4.847 -0.7141  0.0249 -0.5726
  155SAPE  H14Y17248   5.325   0.010   4.791  0.3825  1.2546  2.1916
  155SAPE  C31517249   5.490  -0.082   4.676 -0.7494 -0.1731 -0.2324
  155SAPE  H15X17250   5.455  -0.186   4.658 -0.9474  0.0085 -0.9048
  155SAPE  H15Y17251   5.601  -0.087   4.680 -0.7438 -0.3844 -0.5810
  155SAPE  C31617252   5.449   0.009   4.556  0.1678 -0.2556  0.6011
  155SAPE  H16X17253   5.519   0.001   4.470 -1.7278 -0.3531 -0.9819
  155SAPE  H16Y17254   5.467   0.117   4.574  1.0861 -0.3020 -0.0083
  155SAPE  C31717255   5.306  -0.021   4.503  0.2390  0.0281 -0.3336
  155SAPE  H17X17256   5.243  -0.015   4.595  0.1338  1.4446 -0.4778
  155SAPE  H17Y17257   5.309  -0.126   4.469 -3.4936 -0.6981  1.3348
  155SAPE  C31817258   5.245   0.086   4.403  0.4389 -0.2083  0.2672
  155SAPE  H18X17259   5.301   0.103   4.309 -0.1923 -0.0704 -0.0873
  155SAPE  H18Y17260   5.233   0.189   4.444 -2.5072  0.9248 -3.1974
  155SAPE  H18Z17261   5.146   0.051   4.366  0.9108 -1.1495 -0.1408
  156SAPE     N17262   6.828   2.204   6.312  0.7346  1.0095 -0.3252
  156SAPE   HN117263   6.819   2.137   6.391 -0.2850 -0.5582 -1.7577
  156SAPE   HN217264   6.914   2.262   6.326  0.2745  1.4238  0.8523
  156SAPE   HN317265   6.749   2.272   6.313 -0.2414 -0.1211  2.4881
  156SAPE   C1217266   6.827   2.139   6.171  0.4998 -0.2363 -0.1791
  156SAPE  H12A17267   6.786   2.216   6.103  2.2288  1.9225  1.1439
  156SAPE  H12B17268   6.760   2.051   6.158 -0.2696  0.4704 -1.0411
  156SAPE   C1117269   6.969   2.092   6.119 -0.6306  0.1513  0.0476
  156SAPE  H11A17270   7.039   2.174   6.143  0.4437  0.3592 -3.5018
  156SAPE  H11B17271   6.954   2.093   6.009 -1.0713  1.0127  0.1149
  156SAPE     P17272   7.031   1.838   6.089  0.1803 -0.7014 -0.0455
  156SAPE   O1317273   7.018   1.725   6.171  0.1255 -0.3650 -0.3355
  156SAPE   O1417274   6.942   1.840   5.968 -0.0395 -0.1790  0.0711
  156SAPE   O1217275   7.014   1.961   6.181  0.0008 -0.5704 -0.2796
  156SAPE   O1117276   7.176   1.854   6.053  0.0320  0.1395 -0.5275
  156SAPE    C117277   7.282   1.837   6.153  0.3945 -0.2186  0.6069
  156SAPE    HA17278   7.262   1.897   6.244 -0.0010  1.6778 -0.7160
  156SAPE    HB17279   7.292   1.731   6.187  0.1911 -0.5405 -0.3300
  156SAPE    C217280   7.420   1.878   6.104 -1.0500 -0.5012  0.8022
  156SAPE    HS17281   7.494   1.873   6.187 -0.1891 -0.9318  0.0146
  156SAPE   O2117282   7.430   2.014   6.050 -0.1460  0.9149  0.3382
  156SAPE   C2117283   7.386   2.116   6.114  0.5566 -0.4113 -0.5715
  156SAPE   O2217284   7.373   2.121   6.236 -0.1050  0.2444  0.0983
  156SAPE   C2217285   7.349   2.230   6.014  0.3722  0.1113 -0.0083
  156SAPE   H2R17286   7.433   2.243   5.942  3.4225 -1.9164  3.0653
  156SAPE   H2S17287   7.260   2.187   5.963 -1.5287  2.3896  1.2519
  156SAPE    C317288   7.472   1.778   5.994  0.1723 -0.4757 -0.1629
  156SAPE    HX17289   7.480   1.678   6.042 -2.8519  0.2311  2.0155
  156SAPE    HY17290   7.574   1.813   5.970  0.9674 -0.7341  2.6870
  156SAPE   O3117291   7.398   1.783   5.874 -0.2593  0.1556  0.6215
  156SAPE   C3117292   7.328   1.681   5.840  0.1890 -0.4163 -0.1767
  156SAPE   O3217293   7.315   1.577   5.900 -0.7341 -0.0426  0.0747
  156SAPE   C3217294   7.256   1.717   5.713 -0.3403  0.4403  0.2607
  156SAPE   H2X17295   7.330   1.722   5.630 -1.1121  1.6562 -0.3675
  156SAPE   H2Y17296   7.199   1.811   5.727  0.1445  0.4501  2.2412
  156SAPE   C2317297   7.311   2.368   6.082 -0.0499 -0.6887 -0.2819
  156SAPE   H3R17298   7.403   2.422   6.115 -0.2557 -0.2244 -0.4560
  156SAPE   H3S17299   7.248   2.351   6.171 -0.6908 -2.8617 -1.1310
  156SAPE   C2417300   7.240   2.454   5.974  0.5756  0.3874 -0.4108
  156SAPE   H4R17301   7.296   2.475   5.880  0.1121  0.8791 -0.5814
  156SAPE   H4S17302   7.225   2.554   6.020  2.1008  0.6820 -0.5515
  156SAPE   C2517303   7.100   2.401   5.956  0.4502  0.4550  0.0940
  156SAPE   H5R17304   7.037   2.427   6.042 -2.9817 -0.2052 -2.0796
  156SAPE   C2617305   7.047   2.334   5.854  0.0083  0.0435 -0.0900
  156SAPE   H6R17306   6.941   2.303   5.858  0.2372 -0.7710 -0.3156
  156SAPE   C2717307   7.103   2.293   5.723 -0.2401 -0.9426  0.3178
  156SAPE   H7R17308   7.208   2.330   5.723 -0.4562 -0.3205  1.8501
  156SAPE   H7S17309   7.057   2.353   5.642 -0.6073  0.7049  1.7247
  156SAPE   C2817310   7.094   2.143   5.693  0.2106 -0.3795  0.7496
  156SAPE   H8R17311   7.060   2.077   5.775  2.4444 -0.4682  1.6195
  156SAPE   C2917312   7.107   2.076   5.580 -0.5503  0.7611  0.0003
  156SAPE   H9R17313   7.075   1.971   5.579 -0.2478  0.6697 -1.1729
  156SAPE  C21017314   7.141   2.146   5.449 -0.3142 -0.4028 -0.0658
  156SAPE  H10R17315   7.234   2.205   5.462 -0.1404 -0.2497 -1.8978
  156SAPE  H10S17316   7.068   2.224   5.420  2.0002  0.6943 -3.1695
  156SAPE  C21117317   7.166   2.049   5.334  0.6784  0.8949  0.7113
  156SAPE  H11R17318   7.255   1.984   5.347 -0.0700 -0.3349 -0.1938
  156SAPE  C21217319   7.097   2.029   5.223 -0.0049  0.8839 -0.0193
  156SAPE  H12R17320   7.125   1.950   5.151 -2.2027 -0.7572  0.8499
  156SAPE  C21317321   6.973   2.107   5.191  0.1096  0.9360 -0.1973
  156SAPE  H13R17322   6.929   2.141   5.287 -1.8014 -3.3084  0.5465
  156SAPE  H13S17323   6.900   2.029   5.159  1.0138 -0.2013  0.4952
  156SAPE  C21417324   6.977   2.215   5.085  0.4368  0.8725 -0.4151
  156SAPE  H14R17325   6.967   2.317   5.125  0.7233  0.0947  1.6712
  156SAPE  C21517326   7.012   2.199   4.953  0.7389  0.0556  0.3747
  156SAPE  H15R17327   6.997   2.287   4.889 -2.5677  0.0322  1.0087
  156SAPE  C21617328   7.045   2.068   4.891 -0.3100 -0.6914  0.0684
  156SAPE  H16R17329   6.983   2.033   4.806 -0.3700  1.6674 -0.9182
  156SAPE  H16S17330   7.058   1.987   4.966  0.2293  0.5746  1.3763
  156SAPE  C21717331   7.187   2.078   4.821  0.1135  0.1697  0.4388
  156SAPE  H17R17332   7.266   2.097   4.897  1.6415 -0.5531 -0.9330
  156SAPE  H17S17333   7.196   2.169   4.758 -0.0176 -0.3666 -0.3657
  156SAPE  C21817334   7.214   1.950   4.750 -0.5291 -0.3111 -0.0325
  156SAPE  H18R17335   7.134   1.916   4.681 -0.2933 -0.4720 -0.2297
  156SAPE  H18S17336   7.220   1.868   4.825  0.1758  1.5202  1.9345
  156SAPE  C21917337   7.340   1.946   4.668  0.0429 -0.5051 -0.7223
  156SAPE  H19R17338   7.365   1.842   4.640  1.9255 -0.0622 -0.7597
  156SAPE  H19S17339   7.417   1.989   4.736 -1.4637  1.7985 -0.4104
  156SAPE  C22017340   7.338   2.040   4.547 -0.3920  0.2504  0.1645
  156SAPE  H20R17341   7.413   2.006   4.473 -1.0106 -1.4850  0.3126
  156SAPE  H20S17342   7.347   2.149   4.569 -2.4041  0.5322 -0.2328
  156SAPE  H20T17343   7.239   2.024   4.498 -0.7415 -1.1127  1.2857
  156SAPE   C3317344   7.160   1.601   5.676  1.2357  0.0262  0.5438
  156SAPE   H3X17345   7.098   1.584   5.766 -0.4902 -3.4188 -1.1850
  156SAPE   H3Y17346   7.208   1.506   5.642 -1.6682 -1.0406 -0.7216
  156SAPE   C3417347   7.063   1.647   5.561 -0.3674  0.4915  0.0119
  156SAPE   H4X17348   6.994   1.728   5.592 -1.8527 -0.2379 -1.2521
  156SAPE   H4Y17349   6.997   1.561   5.533 -0.2165 -0.1219  1.5249
  156SAPE   C3517350   7.129   1.691   5.432 -0.1576 -0.6980  0.0164
  156SAPE   H5X17351   7.198   1.777   5.445 -0.7120 -0.1318 -0.8199
  156SAPE   H5Y17352   7.049   1.731   5.367  1.5851 -1.2517 -2.5708
  156SAPE   C3617353   7.189   1.574   5.354  0.2609  0.5896 -0.1951
  156SAPE   H6X17354   7.117   1.491   5.365  1.3028 -0.5073 -1.5372
  156SAPE   H6Y17355   7.281   1.548   5.411 -0.4423 -0.6836  0.3607
  156SAPE   C3717356   7.226   1.606   5.214 -0.4244  0.4419 -0.2657
  156SAPE   H7X17357   7.304   1.685   5.211  1.4969 -1.3901  0.6400
  156SAPE   H7Y17358   7.137   1.647   5.161 -2.0803 -0.7408  1.5043
  156SAPE   C3817359   7.259   1.483   5.125 -0.1236  0.2980  0.1208
  156SAPE   H8X17360   7.165   1.427   5.104  0.8022 -0.3505 -2.6337
  156SAPE   H8Y17361   7.335   1.417   5.172 -1.4347 -0.3827  1.3229
  156SAPE   C3917362   7.298   1.536   4.990  0.8810  0.1117 -0.0788
  156SAPE   H9X17363   7.383   1.604   5.014  1.5503 -1.3730  1.8213
  156SAPE   H9Y17364   7.222   1.604   4.946  1.3317  1.2623  0.8952
  156SAPE  C31017365   7.343   1.432   4.884  0.2219 -0.2409  0.3002
  156SAPE  H10X17366   7.259   1.364   4.855  0.6288 -0.1633 -1.0843
  156SAPE  H10Y17367   7.418   1.363   4.928 -2.1790 -4.3893 -1.7965
  156SAPE  C31117368   7.401   1.504   4.765 -0.2870  0.2492  0.1103
  156SAPE  H11X17369   7.498   1.549   4.796  0.3821  0.0675 -1.6555
  156SAPE  H11Y17370   7.333   1.583   4.726  0.4937  0.1452 -1.4962
  156SAPE  C31217371   7.425   1.408   4.649 -0.2918  0.0712  0.3148
  156SAPE  H12X17372   7.439   1.308   4.696 -2.0801 -0.3278  0.0397
  156SAPE  H12Y17373   7.518   1.442   4.598 -1.2934 -2.1723 -3.1678
  156SAPE  C31317374   7.304   1.398   4.557 -0.6123 -0.3929 -0.8420
  156SAPE  H13X17375   7.281   1.484   4.490 -0.6807  0.3301  0.0968
  156SAPE  H13Y17376   7.217   1.403   4.626 -0.9784 -2.9891 -1.0997
  156SAPE  C31417377   7.299   1.272   4.464 -0.0285  0.1982 -0.8085
  156SAPE  H14X17378   7.291   1.176   4.519 -3.7176  1.2158  0.6323
  156SAPE  H14Y17379   7.394   1.275   4.406  0.4178 -3.1511 -0.3674
  156SAPE  C31517380   7.191   1.279   4.361  0.4083 -0.5849  0.5390
  156SAPE  H15X17381   7.190   1.377   4.309 -0.4561  0.2157  2.0018
  156SAPE  H15Y17382   7.089   1.263   4.403 -0.4424  1.0842 -0.8115
  156SAPE  C31617383   7.207   1.178   4.246  0.6711 -0.0606  1.3427
  156SAPE  H16X17384   7.307   1.201   4.204 -0.1587  1.4810  0.1548
  156SAPE  H16Y17385   7.123   1.199   4.175  1.9503  0.8620  0.0724
  156SAPE  C31717386   7.193   1.028   4.274 -0.0243  0.2294  0.1803
  156SAPE  H17X17387   7.279   1.016   4.344 -0.4021  0.9258  0.7753
  156SAPE  H17Y17388   7.207   0.972   4.179 -0.0626  0.8463 -0.1916
  156SAPE  C31817389   7.064   0.983   4.349 -0.3423  1.2584 -0.5887
  156SAPE  H18X17390   6.977   1.021   4.291 -0.2341  0.4472 -1.2983
  156SAPE  H18Y17391   7.078   1.032   4.447  0.9196  2.0858 -1.1594
  156SAPE  H18Z17392   7.065   0.873   4.360  0.0946  1.2497 -0.6873
  157SAPE     N17393   6.199   0.453   6.216 -0.3860 -0.2237  0.7006
  157SAPE   HN117394   6.287   0.508   6.206  2.4691 -4.6285 -0.2669
  157SAPE   HN217395   6.237   0.366   6.258  1.8043  1.2109  1.7740
  157SAPE   HN317396   6.155   0.431   6.125 -0.4717 -2.2546  1.2033
  157SAPE   C1217397   6.106   0.522   6.312 -0.3679 -0.0319 -0.3033
  157SAPE  H12A17398   6.170   0.532   6.403 -0.4329 -0.0308 -0.2581
  157SAPE  H12B17399   6.026   0.454   6.347 -1.4116  1.3853  0.1259
  157SAPE   C1117400   6.041   0.653   6.268  0.6587 -0.2365  0.5477
  157SAPE  H11A17401   6.001   0.700   6.360 -1.0462 -1.9840  0.7275
  157SAPE  H11B17402   5.945   0.638   6.214 -1.6566  1.2303  4.0650
  157SAPE     P17403   6.210   0.856   6.293  0.4122 -0.5370  0.0302
  157SAPE   O1317404   6.157   0.982   6.241 -0.0187 -0.7162  0.3256
  157SAPE   O1417405   6.195   0.840   6.437 -0.5208 -0.6439 -0.4499
  157SAPE   O1217406   6.132   0.744   6.214 -0.0378 -0.3697  0.7160
  157SAPE   O1117407   6.358   0.834   6.239  0.1133  0.0905 -0.3621
  157SAPE    C117408   6.397   0.878   6.110 -0.4429 -0.6453  0.6273
  157SAPE    HA17409   6.410   0.788   6.048 -0.9986  0.1247 -0.6370
  157SAPE    HB17410   6.320   0.940   6.058  0.7560 -1.4850 -2.2096
  157SAPE    C217411   6.526   0.966   6.106  0.0727  0.1365  0.4134
  157SAPE    HS17412   6.499   1.060   6.159 -1.2526 -1.0848  1.9503
  157SAPE   O2117413   6.570   0.983   5.966  0.1083 -0.1555 -0.1037
  157SAPE   C2117414   6.499   1.064   5.894  0.8296  0.1608 -0.8427
  157SAPE   O2217415   6.398   1.126   5.930  0.1221  0.6425 -0.0040
  157SAPE   C2217416   6.536   1.051   5.747  0.1686  0.2334 -0.0422
  157SAPE   H2R17417   6.621   1.120   5.725 -1.5415  2.0415 -1.2219
  157SAPE   H2S17418   6.576   0.949   5.728  1.5033  0.9088 -1.0333
  157SAPE    C317419   6.630   0.899   6.189 -0.4129  0.8923  0.0164
  157SAPE    HX17420   6.602   0.894   6.297 -4.0350  1.6265 -0.8104
  157SAPE    HY17421   6.716   0.969   6.186 -0.3636  0.8486  0.4082
  157SAPE   O3117422   6.663   0.769   6.141  0.0770  0.2100 -0.4207
  157SAPE   C3117423   6.736   0.747   6.028  0.0352  0.0257 -0.8190
  157SAPE   O3217424   6.812   0.830   5.982 -0.1708 -0.2531  0.4416
  157SAPE   C3217425   6.714   0.607   5.976 -0.3022  0.2165  0.1691
  157SAPE   H2X17426   6.606   0.595   5.951 -0.3084  0.3103  0.1539
  157SAPE   H2Y17427   6.754   0.541   6.056  2.4185 -0.4216 -1.6191
  157SAPE   C2317428   6.416   1.078   5.655  0.2599  0.5315 -0.2285
  157SAPE   H3R17429   6.321   1.038   5.695  0.2568 -1.1270 -1.8088
  157SAPE   H3S17430   6.434   1.031   5.556 -1.7558  2.5872 -1.6249
  157SAPE   C2417431   6.408   1.229   5.634  0.0792 -0.2895  0.0534
  157SAPE   H4R17432   6.396   1.286   5.728 -1.3338  1.5794 -1.2281
  157SAPE   H4S17433   6.314   1.247   5.578 -1.0271 -2.1998  1.2211
  157SAPE   C2517434   6.521   1.294   5.558  0.2189 -0.4937 -0.6555
  157SAPE   H5R17435   6.616   1.311   5.610 -0.3963 -0.0946  0.3600
  157SAPE   C2617436   6.515   1.332   5.430 -0.2491  0.5194 -0.6653
  157SAPE   H6R17437   6.606   1.377   5.386  1.5468 -1.8291  0.5455
  157SAPE   C2717438   6.407   1.315   5.338  0.5213  0.5449 -0.4812
  157SAPE   H7R17439   6.426   1.343   5.232 -0.8561  0.8566 -0.6654
  157SAPE   H7S17440   6.327   1.384   5.372 -0.3472 -0.7362  0.1335
  157SAPE   C2817441   6.364   1.171   5.324 -0.0051 -0.5239  0.1303
  157SAPE   H8R17442   6.439   1.099   5.358  0.0922 -0.6829 -0.4009
  157SAPE   C2917443   6.246   1.122   5.291 -0.0404  0.2521  0.5024
  157SAPE   H9R17444   6.236   1.013   5.278  1.3814  0.1245  0.3944
  157SAPE  C21017445   6.115   1.197   5.264 -0.1490 -0.2106 -0.1044
  157SAPE  H10R17446   6.145   1.295   5.221 -2.2539 -0.4615 -2.1952
  157SAPE  H10S17447   6.070   1.218   5.364 -0.7240  0.5342 -0.5145
  157SAPE  C21117448   6.028   1.129   5.168  0.2949  0.5284  0.0796
  157SAPE  H11R17449   5.939   1.082   5.213  0.7378 -1.1368 -0.7364
  157SAPE  C21217450   6.050   1.128   5.038 -0.4812 -1.0411  0.5081
  157SAPE  H12R17451   5.972   1.090   4.972 -0.4028 -1.0400  0.4150
  157SAPE  C21317452   6.162   1.192   4.958 -0.4658 -0.6912  0.3738
  157SAPE  H13R17453   6.212   1.271   5.019  1.0278 -0.9684 -0.4696
  157SAPE  H13S17454   6.109   1.257   4.885  1.4545  0.0904 -0.3826
  157SAPE  C21417455   6.266   1.093   4.901 -0.7409 -0.2108 -0.5899
  157SAPE  H14R17456   6.333   1.040   4.970 -0.5866  1.5434  0.6299
  157SAPE  C21517457   6.281   1.070   4.770 -0.5303  0.1493  0.1205
  157SAPE  H15R17458   6.363   1.005   4.736  0.0734  1.9629 -2.0355
  157SAPE  C21617459   6.206   1.132   4.653 -0.3546  0.3514 -0.6462
  157SAPE  H16R17460   6.125   1.199   4.688 -2.1659 -1.8951 -0.4605
  157SAPE  H16S17461   6.150   1.061   4.589 -1.8698 -1.4269  2.5568
  157SAPE  C21717462   6.310   1.206   4.569  0.0474 -0.6028  0.0261
  157SAPE  H17R17463   6.371   1.280   4.625  0.4342  0.2162 -1.4556
  157SAPE  H17S17464   6.271   1.273   4.490  0.4630  1.7499  1.7638
  157SAPE  C21817465   6.404   1.107   4.496 -1.2179 -0.0410 -1.3092
  157SAPE  H18R17466   6.345   1.025   4.449 -1.2772 -0.7571  0.0142
  157SAPE  H18S17467   6.467   1.048   4.565 -1.8243  1.6420  0.7123
  157SAPE  C21917468   6.505   1.172   4.397 -0.7562 -0.3047  0.0724
  157SAPE  H19R17469   6.449   1.247   4.338 -1.1990  1.7589  2.9843
  157SAPE  H19S17470   6.532   1.091   4.327 -0.1301  0.2435 -0.3356
  157SAPE  C22017471   6.627   1.240   4.454 -0.9084 -0.3354  0.6813
  157SAPE  H20R17472   6.683   1.286   4.370 -0.8165  0.9462  1.4306
  157SAPE  H20S17473   6.701   1.175   4.505  0.4312  0.5380 -0.1129
  157SAPE  H20T17474   6.608   1.311   4.537 -0.0772 -1.6246  2.0083
  157SAPE   C3317475   6.790   0.578   5.840 -0.0950  0.2279 -0.2354
  157SAPE   H3X17476   6.764   0.476   5.806 -3.2173  0.8278  0.2316
  157SAPE   H3Y17477   6.901   0.582   5.840 -0.0734  0.1361  1.7725
  157SAPE   C3417478   6.747   0.677   5.729  0.8434 -0.4662  1.3220
  157SAPE   H4X17479   6.831   0.741   5.693 -0.6796  0.4551 -0.6619
  157SAPE   H4Y17480   6.656   0.730   5.764 -1.4170 -4.2006  1.3724
  157SAPE   C3517481   6.708   0.590   5.600  0.4703  0.2998  0.2655
  157SAPE   H5X17482   6.631   0.522   5.643 -1.7008  1.7207 -1.2302
  157SAPE   H5Y17483   6.801   0.541   5.566  0.3688  1.0040 -1.0713
  157SAPE   C3617484   6.644   0.676   5.482  0.2057  0.4569  0.5143
  157SAPE   H6X17485   6.713   0.753   5.441 -0.7084  0.7426 -0.5011
  157SAPE   H6Y17486   6.562   0.735   5.528  0.5633  1.5040 -0.1717
  157SAPE   C3717487   6.579   0.596   5.361  0.5264  0.1691  0.0006
  157SAPE   H7X17488   6.503   0.528   5.404  1.5777 -0.2259  1.2743
  157SAPE   H7Y17489   6.640   0.525   5.301  1.2461  0.7645  0.0092
  157SAPE   C3817490   6.533   0.687   5.246 -0.2502  0.4806 -0.0081
  157SAPE   H8X17491   6.616   0.745   5.199  3.0897 -0.6968  4.1838
  157SAPE   H8Y17492   6.456   0.752   5.293 -0.0157  0.7219  0.0472
  157SAPE   C3917493   6.468   0.614   5.132 -0.0927  0.2921  0.0251
  157SAPE   H9X17494   6.374   0.560   5.158  0.8803 -0.0114  3.1341
  157SAPE   H9Y17495   6.530   0.527   5.105 -0.9907 -0.9936  1.9727
  157SAPE  C31017496   6.447   0.714   5.013  0.1254 -0.5551  0.1142
  157SAPE  H10X17497   6.549   0.747   4.983 -0.1909  1.0101  0.7453
  157SAPE  H10Y17498   6.397   0.805   5.053  3.2461  1.9595 -1.4111
  157SAPE  C31117499   6.375   0.643   4.901  0.4202  0.4076  0.5162
  157SAPE  H11X17500   6.265   0.631   4.908 -0.1009  3.8972 -0.6375
  157SAPE  H11Y17501   6.430   0.547   4.901  1.3834  0.9434 -0.2600
  157SAPE  C31217502   6.412   0.711   4.763 -0.3288  1.0297 -0.7757
  157SAPE  H12X17503   6.521   0.697   4.746 -0.6824 -2.9457 -0.3451
  157SAPE  H12Y17504   6.387   0.819   4.769 -1.5638  0.6373  1.6881
  157SAPE  C31317505   6.348   0.635   4.648  0.2268 -0.2897 -0.8120
  157SAPE  H13X17506   6.238   0.641   4.659  0.3371 -1.0931  0.9358
  157SAPE  H13Y17507   6.373   0.527   4.659 -2.2953 -1.0042 -1.7171
  157SAPE  C31417508   6.387   0.685   4.504 -0.1223 -0.3419  0.0974
  157SAPE  H14X17509   6.420   0.791   4.513  0.1353 -0.4329  0.2327
  157SAPE  H14Y17510   6.297   0.673   4.440 -0.5890  1.2559  0.4077
  157SAPE  C31517511   6.515   0.613   4.444 -0.3269  0.2290  1.0919
  157SAPE  H15X17512   6.507   0.502   4.456 -0.9068  0.4772  3.1006
  157SAPE  H15Y17513   6.591   0.635   4.522  2.1100  0.4867 -1.2687
  157SAPE  C31617514   6.558   0.649   4.299 -0.0055  0.4079 -0.6349
  157SAPE  H16X17515   6.469   0.638   4.234  0.3570  1.0909 -1.2546
  157SAPE  H16Y17516   6.627   0.574   4.254  0.9432  0.9151 -0.0381
  157SAPE  C31717517   6.618   0.792   4.284  0.4489 -0.4175 -0.1778
  157SAPE  H17X17518   6.558   0.866   4.341  0.3951 -1.4430  1.1186
  157SAPE  H17Y17519   6.596   0.838   4.186  1.4654 -0.2894 -0.3496
  157SAPE  C31817520   6.766   0.809   4.329  0.6398 -0.0694  0.5600
  157SAPE  H18X17521   6.780   0.905   4.382 -1.2640 -0.9322  2.7548
  157SAPE  H18Y17522   6.834   0.798   4.242  1.7625 -2.1427  1.6540
  157SAPE  H18Z17523   6.784   0.734   4.409 -2.8309 -1.5307  0.0630
  158SAPE     N17524   0.301   1.144   6.371 -0.3102  0.3622 -0.4302
  158SAPE   HN117525   0.370   1.158   6.447  0.1047 -0.4650 -0.6540
  158SAPE   HN217526   0.329   1.203   6.290  1.4336  0.4796  0.2522
  158SAPE   HN317527   0.204   1.177   6.392 -0.2667 -0.8870  1.8758
  158SAPE   C1217528   0.288   1.006   6.304 -0.4298  0.4534 -0.5649
  158SAPE  H12A17529   0.208   1.001   6.227 -1.5855 -1.7026  0.7273
  158SAPE  H12B17530   0.276   0.928   6.382  1.6039  0.4303 -0.2579
  158SAPE   C1117531   0.429   0.958   6.249 -0.1539 -0.4779 -0.0748
  158SAPE  H11A17532   0.451   1.007   6.152  1.7720 -0.1646  0.4907
  158SAPE  H11B17533   0.419   0.850   6.223  0.1178 -0.7455  0.8931
  158SAPE     P17534   0.682   0.964   6.318 -0.1740 -0.2500  0.0796
  158SAPE   O1317535   0.736   1.098   6.267 -0.6305  0.2167  0.2798
  158SAPE   O1417536   0.745   0.914   6.442 -0.3768  0.7354 -0.3586
  158SAPE   O1217537   0.531   0.995   6.346  0.5277 -0.5377 -0.1938
  158SAPE   O1117538   0.688   0.860   6.195 -0.1755  0.0903 -0.2188
  158SAPE    C117539   0.705   0.722   6.209  0.4975  0.2691 -0.7869
  158SAPE    HA17540   0.637   0.680   6.287  2.3689  1.0143  1.3107
  158SAPE    HB17541   0.670   0.675   6.115 -0.0645  0.3473 -0.6175
  158SAPE    C217542   0.853   0.668   6.229  0.2688 -0.1414 -0.2398
  158SAPE    HS17543   0.883   0.710   6.328  0.9135 -0.0396 -0.4724
  158SAPE   O2117544   0.924   0.729   6.122 -0.4203  0.6903  0.4143
  158SAPE   C2117545   1.053   0.730   6.135  0.0687 -0.3428 -0.0935
  158SAPE   O2217546   1.125   0.694   6.223  0.4753  0.1455 -0.6854
  158SAPE   C2217547   1.113   0.776   6.006  0.2371  0.0990 -0.7181
  158SAPE   H2R17548   1.221   0.780   6.032  0.2110 -1.7305 -0.2689
  158SAPE   H2S17549   1.084   0.705   5.926 -1.9680  1.2226 -0.9662
  158SAPE    C317550   0.864   0.513   6.225 -0.0791  0.3069  0.0073
  158SAPE    HX17551   0.827   0.467   6.319  1.1006 -0.0340  0.3168
  158SAPE    HY17552   0.975   0.499   6.221  0.3945  3.2930  1.2208
  158SAPE   O3117553   0.812   0.461   6.103 -0.1626  0.3068 -0.3503
  158SAPE   C3117554   0.749   0.345   6.112  0.1623 -0.0271 -0.1680
  158SAPE   O3217555   0.701   0.295   6.215 -0.2363 -0.4429 -0.2494
  158SAPE   C3217556   0.742   0.284   5.970  0.5611  0.0288  1.0086
  158SAPE   H2X17557   0.693   0.185   5.981 -0.3960  0.0066 -2.6557
  158SAPE   H2Y17558   0.847   0.272   5.933 -0.3235  1.3098 -2.0415
  158SAPE   C2317559   1.073   0.914   5.960 -0.1423  0.1565 -0.8170
  158SAPE   H3R17560   1.094   0.993   6.036 -0.4573  0.7926 -1.3837
  158SAPE   H3S17561   0.964   0.911   5.937  0.0977  0.3247 -1.9720
  158SAPE   C2417562   1.131   0.968   5.823  0.1764  0.1664 -0.0071
  158SAPE   H4R17563   1.087   0.884   5.765 -0.3066  2.0009 -2.3418
  158SAPE   H4S17564   1.242   0.957   5.823  0.2004  0.1488 -2.9113
  158SAPE   C2517565   1.083   1.111   5.784  0.6841 -0.2683  0.2584
  158SAPE   H5R17566   1.123   1.189   5.850  3.6204 -1.8511  0.4580
  158SAPE   C2617567   1.008   1.141   5.673 -0.0700  0.0071  0.1289
  158SAPE   H6R17568   0.971   1.245   5.668  1.0127  0.3335 -1.6044
  158SAPE   C2717569   0.964   1.045   5.571  0.0392 -0.1080  0.2209
  158SAPE   H7R17570   1.050   0.977   5.552  0.5803 -0.2541  3.0071
  158SAPE   H7S17571   0.950   1.100   5.475  0.3524  0.8140  0.6934
  158SAPE   C2817572   0.840   0.964   5.601 -0.1890 -0.1808 -0.1252
  158SAPE   H8R17573   0.839   0.925   5.704  1.3966  1.1565  0.4258
  158SAPE   C2917574   0.748   0.914   5.513 -0.0062  0.4730  0.1972
  158SAPE   H9R17575   0.665   0.855   5.553  1.1599 -0.1068  1.8205
  158SAPE  C21017576   0.748   0.927   5.363  0.4063 -0.4148  0.0031
  158SAPE  H10R17577   0.725   0.830   5.313 -1.5096  0.4751 -0.8947
  158SAPE  H10S17578   0.848   0.960   5.328 -0.1420 -0.3827 -1.5591
  158SAPE  C21117579   0.652   1.026   5.300  1.1333  0.0134 -0.1604
  158SAPE  H11R17580   0.575   1.068   5.366  0.8553  2.0352 -1.7110
  158SAPE  C21217581   0.662   1.081   5.178  0.1404 -0.0412 -0.8603
  158SAPE  H12R17582   0.587   1.154   5.145 -0.0374 -0.0678 -0.5185
  158SAPE  C21317583   0.768   1.058   5.071  0.1972 -0.5587 -0.5811
  158SAPE  H13R17584   0.870   1.060   5.114  0.1058  0.0088 -0.3795
  158SAPE  H13S17585   0.765   1.141   4.996 -1.9517  1.2937  1.4836
  158SAPE  C21417586   0.736   0.915   5.022 -0.7348  0.1494 -0.0119
  158SAPE  H14R17587   0.677   0.848   5.086  0.3440 -2.8132 -1.9658
  158SAPE  C21517588   0.781   0.851   4.907 -0.2458  0.1554 -0.1827
  158SAPE  H15R17589   0.745   0.747   4.896  0.8779 -0.3868  1.1320
  158SAPE  C21617590   0.866   0.907   4.790 -0.1560 -0.3016 -0.3513
  158SAPE  H16R17591   0.967   0.861   4.791  0.8636  1.8297  2.2889
  158SAPE  H16S17592   0.895   1.012   4.814  1.4171 -0.8969  0.4675
  158SAPE  C21717593   0.810   0.899   4.645  0.2360 -0.4541  0.2199
  158SAPE  H17R17594   0.726   0.969   4.624  1.0085 -0.0035 -1.4205
  158SAPE  H17S17595   0.778   0.793   4.632 -0.0671 -0.3736  0.2961
  158SAPE  C21817596   0.915   0.939   4.539 -0.6629  0.1092 -0.4697
  158SAPE  H18R17597   0.989   0.858   4.522 -0.3754  0.2036  0.3084
  158SAPE  H18S17598   0.980   1.024   4.570 -0.1683 -0.0973 -0.9333
  158SAPE  C21917599   0.856   0.977   4.403  0.3628  0.6434 -0.7621
  158SAPE  H19R17600   0.936   0.968   4.327 -0.6837  1.3812 -1.9819
  158SAPE  H19S17601   0.816   1.081   4.409 -1.6132 -0.1956  1.4681
  158SAPE  C22017602   0.745   0.886   4.334 -0.3664  0.1403  0.3100
  158SAPE  H20R17603   0.744   0.912   4.226 -1.7888  2.4170  0.8454
  158SAPE  H20S17604   0.644   0.912   4.372 -0.5726 -0.8016  0.4129
  158SAPE  H20T17605   0.770   0.778   4.326  0.4770  0.4493 -1.2752
  158SAPE   C3317606   0.669   0.368   5.862 -0.1999  0.1383 -0.4711
  158SAPE   H3X17607   0.680   0.321   5.762  0.6238 -1.1418  0.2171
  158SAPE   H3Y17608   0.721   0.466   5.865  0.4549 -0.1634 -1.8360
  158SAPE   C3417609   0.520   0.369   5.883  0.2797  0.9336 -0.0402
  158SAPE   H4X17610   0.498   0.391   5.990 -2.6833  1.4359 -0.7322
  158SAPE   H4Y17611   0.480   0.276   5.839  1.7677  0.3960 -0.2920
  158SAPE   C3517612   0.461   0.499   5.812 -0.1883  0.9261  0.0093
  158SAPE   H5X17613   0.518   0.584   5.854  0.3988  1.2191 -1.3472
  158SAPE   H5Y17614   0.352   0.498   5.833  0.2304 -1.0019  2.2282
  158SAPE   C3617615   0.491   0.512   5.657 -0.1192  0.5876  0.6483
  158SAPE   H6X17616   0.450   0.427   5.598  2.8372  0.5603 -1.4916
  158SAPE   H6Y17617   0.602   0.513   5.649 -0.0258 -1.4328  1.3796
  158SAPE   C3717618   0.419   0.633   5.595  0.3716  0.5083  0.2119
  158SAPE   H7X17619   0.437   0.731   5.645  0.5271  0.7508 -0.3213
  158SAPE   H7Y17620   0.309   0.625   5.582  0.5513 -1.9658  0.0357
  158SAPE   C3817621   0.494   0.666   5.457  0.5443  0.2023 -0.5442
  158SAPE   H8X17622   0.597   0.626   5.465  0.9154  1.1769 -0.2710
  158SAPE   H8Y17623   0.488   0.775   5.434  1.2102  0.7638  1.7778
  158SAPE   C3917624   0.428   0.601   5.335  0.0506  0.3397 -0.4594
  158SAPE   H9X17625   0.323   0.633   5.314 -0.8704 -1.2372  1.5543
  158SAPE   H9Y17626   0.423   0.495   5.366  0.4343  0.8279  1.3232
  158SAPE  C31017627   0.508   0.610   5.203  0.4456 -0.7744 -0.3742
  158SAPE  H10X17628   0.597   0.544   5.207  1.4915  0.5499 -1.2918
  158SAPE  H10Y17629   0.555   0.710   5.196  0.1722 -0.4036  2.6880
  158SAPE  C31117630   0.426   0.564   5.076  0.7282  0.0936  0.2770
  158SAPE  H11X17631   0.336   0.627   5.062 -0.0763 -1.2828 -0.8755
  158SAPE  H11Y17632   0.394   0.458   5.076  0.6890  0.0933  1.2395
  158SAPE  C31217633   0.516   0.586   4.958 -0.6668  0.2477  0.4744
  158SAPE  H12X17634   0.607   0.522   4.966  0.9617  2.5483  0.9579
  158SAPE  H12Y17635   0.544   0.693   4.944  0.0249 -0.1725 -1.4356
  158SAPE  C31317636   0.455   0.536   4.820 -0.6114  0.0450  0.1161
  158SAPE  H13X17637   0.349   0.566   4.813 -0.7229 -0.6339 -1.1900
  158SAPE  H13Y17638   0.481   0.428   4.820 -1.1987 -0.1003  0.5222
  158SAPE  C31417639   0.537   0.586   4.698 -0.6408  0.2556  0.1821
  158SAPE  H14X17640   0.644   0.564   4.714 -1.0694 -0.5418  2.0914
  158SAPE  H14Y17641   0.529   0.697   4.690  2.3688  0.5825  1.1228
  158SAPE  C31517642   0.479   0.531   4.571 -0.1082  0.3026  0.0378
  158SAPE  H15X17643   0.375   0.559   4.544 -0.0341 -0.9152 -1.5665
  158SAPE  H15Y17644   0.480   0.421   4.592 -0.8263  0.7516  2.7076
  158SAPE  C31617645   0.554   0.567   4.442  0.6272 -0.3670 -0.1537
  158SAPE  H16X17646   0.661   0.548   4.468  1.4303  0.2794 -2.8582
  158SAPE  H16Y17647   0.557   0.678   4.438  2.2124 -0.4092 -0.4813
  158SAPE  C31717648   0.513   0.497   4.314 -0.0004  0.0611  0.2579
  158SAPE  H17X17649   0.483   0.393   4.341 -0.6247  0.3952  0.8553
  158SAPE  H17Y17650   0.595   0.497   4.239 -1.2580  0.8203 -1.1414
  158SAPE  C31817651   0.400   0.551   4.226 -0.6425 -0.3656  0.3695
  158SAPE  H18X17652   0.312   0.571   4.291  0.9453  1.3161  2.0928
  158SAPE  H18Y17653   0.380   0.494   4.133  0.0338  2.3409 -1.5224
  158SAPE  H18Z17654   0.439   0.650   4.191 -0.7314 -0.4636 -0.0015
  159SAPE     N17655   5.393   4.495   2.178 -0.1047  0.3326  0.5444
  159SAPE   HN117656   5.389   4.447   2.086 -1.4982  2.6278 -0.6615
  159SAPE   HN217657   5.413   4.595   2.158  2.2910 -0.4985 -1.5033
  159SAPE   HN317658   5.475   4.450   2.223  0.7883 -0.5646 -1.9068
  159SAPE   C1217659   5.267   4.457   2.265 -0.8240  0.2470 -0.2236
  159SAPE  H12A17660   5.194   4.529   2.223  1.0401  2.0294 -0.4604
  159SAPE  H12B17661   5.295   4.484   2.369  1.4610 -1.6669 -0.2936
  159SAPE   C1117662   5.220   4.311   2.260 -0.2197  0.1834  0.0624
  159SAPE  H11A17663   5.127   4.292   2.317 -0.2505 -2.6610 -0.8322
  159SAPE  H11B17664   5.307   4.255   2.299 -0.1950  0.4181  0.3397
  159SAPE     P17665   5.172   4.120   2.087 -0.2040  0.0476  0.0521
  159SAPE   O1317666   5.117   4.118   1.950  0.3710  0.6952  0.4306
  159SAPE   O1417667   5.293   4.042   2.112  0.2607  0.1494 -0.1673
  159SAPE   O1217668   5.200   4.272   2.126 -0.0348  0.0435  0.0129
  159SAPE   O1117669   5.060   4.073   2.188 -0.1146 -0.6064 -0.5410
  159SAPE    C117670   5.098   3.968   2.285 -0.5521  0.0663 -0.5050
  159SAPE    HA17671   5.131   3.875   2.235 -1.6985 -0.2174 -0.7441
  159SAPE    HB17672   5.190   3.992   2.344  0.1277 -1.6002 -0.8649
  159SAPE    C217673   4.986   3.919   2.377  0.2705 -0.3393 -0.4188
  159SAPE    HS17674   4.910   3.868   2.314  1.7599 -2.9355 -0.1618
  159SAPE   O2117675   4.945   4.033   2.459 -0.4620  0.0405  0.2402
  159SAPE   C2117676   4.824   4.022   2.516 -0.7058 -0.0093 -0.0992
  159SAPE   O2217677   4.745   3.935   2.494  0.0554 -0.4828  0.1672
  159SAPE   C2217678   4.810   4.133   2.621  0.1116  0.4248  0.3357
  159SAPE   H2R17679   4.869   4.109   2.712  0.6099 -0.5092 -0.2283
  159SAPE   H2S17680   4.842   4.229   2.575 -0.1092 -0.1531 -1.0681
  159SAPE    C317681   5.033   3.811   2.470  0.2281  0.0714 -0.6045
  159SAPE    HX17682   5.039   3.723   2.403  3.0549  0.5353 -1.0097
  159SAPE    HY17683   4.969   3.787   2.558  1.4265  0.2180  0.3156
  159SAPE   O3117684   5.163   3.849   2.525 -0.0985 -0.4765 -0.6659
  159SAPE   C3117685   5.247   3.762   2.543 -0.1427  0.2451  0.1228
  159SAPE   O3217686   5.250   3.645   2.509  0.5944 -0.6459 -0.3446
  159SAPE   C3217687   5.362   3.824   2.631 -0.1438  0.1435 -0.3729
  159SAPE   H2X17688   5.369   3.933   2.607 -2.1130  0.1536 -0.9569
  159SAPE   H2Y17689   5.456   3.776   2.597  1.1193  1.9551  0.4789
  159SAPE   C2317690   4.657   4.153   2.648  0.5523  0.5856 -0.0743
  159SAPE   H3R17691   4.611   4.139   2.548  1.7674  0.2012 -0.5860
  159SAPE   H3S17692   4.645   4.255   2.691  2.0476  1.1021 -0.8278
  159SAPE   C2417693   4.591   4.053   2.750 -0.1310  0.3749  0.8256
  159SAPE   H4R17694   4.625   3.956   2.708 -0.6365  0.4518  0.2374
  159SAPE   H4S17695   4.482   4.052   2.731  0.4369  0.4353 -2.8637
  159SAPE   C2517696   4.626   4.073   2.899  0.1750  0.7022  0.1952
  159SAPE   H5R17697   4.566   4.151   2.947 -0.8641 -0.3657  0.6418
  159SAPE   C2617698   4.717   4.012   2.978 -0.0416 -1.0452 -0.3297
  159SAPE   H6R17699   4.720   4.038   3.084 -0.5871 -1.3974 -0.2242
  159SAPE   C2717700   4.820   3.900   2.940  0.0846  0.2824 -0.0435
  159SAPE   H7R17701   4.919   3.945   2.959 -0.2644  1.6761 -1.4147
  159SAPE   H7S17702   4.809   3.898   2.829 -0.9732  2.3964 -0.0138
  159SAPE   C2817703   4.806   3.762   3.008 -0.4032 -0.5908  0.3177
  159SAPE   H8R17704   4.711   3.741   3.059 -0.6092 -0.2060  0.0881
  159SAPE   C2917705   4.900   3.670   3.010  0.2614 -0.5306 -0.4093
  159SAPE   H9R17706   4.879   3.570   3.051 -1.6159 -0.1852 -0.4882
  159SAPE  C21017707   5.039   3.673   2.947  0.1077 -0.2401  0.6060
  159SAPE  H10R17708   5.089   3.771   2.962  0.9293 -0.8362  1.8305
  159SAPE  H10S17709   5.034   3.663   2.836  3.9794 -0.8772  0.4159
  159SAPE  C21117710   5.132   3.566   3.001  0.0882 -0.2803  0.2151
  159SAPE  H11R17711   5.133   3.471   2.945  0.5740 -0.7791  1.0697
  159SAPE  C21217712   5.214   3.584   3.105 -0.3709  0.4413 -0.5510
  159SAPE  H12R17713   5.292   3.512   3.136 -1.8579 -0.7083  0.5792
  159SAPE  C21317714   5.227   3.712   3.186  0.1325  0.1678 -0.9332
  159SAPE  H13R17715   5.153   3.790   3.157  0.8147  1.5249  0.8641
  159SAPE  H13S17716   5.325   3.755   3.154  0.0029  0.2446 -1.2258
  159SAPE  C21417717   5.233   3.693   3.333  0.6141 -0.0709 -0.1528
  159SAPE  H14R17718   5.335   3.695   3.375  1.6035  0.8321 -2.5205
  159SAPE  C21517719   5.127   3.708   3.411  0.3331  0.8747 -0.3873
  159SAPE  H15R17720   5.144   3.678   3.515  0.7302  1.3155 -0.3220
  159SAPE  C21617721   4.985   3.735   3.366  0.0910 -0.6111  0.0025
  159SAPE  H16R17722   4.960   3.667   3.282 -1.7467  1.5489 -1.2632
  159SAPE  H16S17723   4.980   3.842   3.336  0.9551 -0.3046  0.9075
  159SAPE  C21717724   4.887   3.730   3.483 -0.2741 -0.0786 -0.2987
  159SAPE  H17R17725   4.926   3.778   3.575 -0.3532 -1.0210  0.2320
  159SAPE  H17S17726   4.881   3.623   3.512 -0.6274  0.8537  3.2623
  159SAPE  C21817727   4.746   3.776   3.440 -0.1962 -0.4820  0.1720
  159SAPE  H18R17728   4.716   3.711   3.355 -1.4637  0.2515  0.0537
  159SAPE  H18S17729   4.754   3.881   3.405  0.9426 -0.2115  1.2043
  159SAPE  C21917730   4.646   3.783   3.562 -0.8705 -0.1109  0.0271
  159SAPE  H19R17731   4.688   3.857   3.634  1.7880 -0.4365 -1.1238
  159SAPE  H19S17732   4.656   3.693   3.627  1.1573 -0.9996 -1.4565
  159SAPE  C22017733   4.500   3.821   3.527  0.0312 -0.6255  0.1789
  159SAPE  H20R17734   4.486   3.924   3.488 -2.8135 -0.7269  0.8392
  159SAPE  H20S17735   4.427   3.824   3.611  0.1476 -0.1074  0.2652
  159SAPE  H20T17736   4.463   3.754   3.447 -0.8242  0.6367 -0.4898
  159SAPE   C3317737   5.331   3.797   2.779  0.1964 -0.8335 -0.1626
  159SAPE   H3X17738   5.347   3.691   2.808  1.5118 -0.6278 -0.1096
  159SAPE   H3Y17739   5.226   3.821   2.805  0.0958  0.2343 -1.4887
  159SAPE   C3417740   5.417   3.888   2.875 -0.6389  0.1424 -0.4286
  159SAPE   H4X17741   5.525   3.875   2.849  0.3114 -0.3124  3.3568
  159SAPE   H4Y17742   5.399   3.848   2.977  2.1093 -0.3592 -0.0891
  159SAPE   C3517743   5.376   4.036   2.872 -0.4540  0.4463 -0.9696
  159SAPE   H5X17744   5.380   4.084   2.772  0.7868  0.5940 -0.8619
  159SAPE   H5Y17745   5.457   4.091   2.925  1.8797 -1.4008 -2.5116
  159SAPE   C3617746   5.242   4.070   2.942  0.1318 -0.8959  0.2402
  159SAPE   H6X17747   5.258   4.040   3.048 -0.1546 -0.1271  0.5038
  159SAPE   H6Y17748   5.167   4.002   2.896 -1.3335 -0.1610  1.4887
  159SAPE   C3717749   5.207   4.215   2.919 -0.1995 -0.1842 -0.2765
  159SAPE   H7X17750   5.190   4.229   2.810 -1.1657  2.3324  0.1675
  159SAPE   H7Y17751   5.297   4.279   2.933  0.7416 -1.2164 -1.3350
  159SAPE   C3817752   5.091   4.275   2.997  0.1146  0.2377  0.0396
  159SAPE   H8X17753   5.001   4.213   2.979  0.0827  0.4444 -0.5239
  159SAPE   H8Y17754   5.078   4.379   2.958  1.6000  0.7375  0.8242
  159SAPE   C3917755   5.104   4.267   3.155  0.7332 -0.6941  0.0655
  159SAPE   H9X17756   5.199   4.321   3.176 -0.1582  0.1374  2.0734
  159SAPE   H9Y17757   5.104   4.161   3.188  0.1340 -0.4053  1.0268
  159SAPE  C31017758   4.981   4.319   3.222 -0.1145 -0.0975  0.1302
  159SAPE  H10X17759   4.899   4.305   3.149  1.3447 -0.2955 -1.5092
  159SAPE  H10Y17760   4.988   4.428   3.243  1.0206  0.2303 -1.7663
  159SAPE  C31117761   4.945   4.240   3.347  0.6279 -0.2653  0.7919
  159SAPE  H11X17762   5.009   4.262   3.435 -0.6678  1.9125  1.2227
  159SAPE  H11Y17763   4.942   4.130   3.330  2.1255 -0.5678  2.3762
  159SAPE  C31217764   4.799   4.275   3.396  0.3881  0.1119  0.0419
  159SAPE  H12X17765   4.724   4.279   3.314 -2.1674  0.3154  2.3183
  159SAPE  H12Y17766   4.802   4.380   3.431  1.3161 -0.2405  1.0476
  159SAPE  C31317767   4.754   4.186   3.520  0.3115  0.8134 -0.0826
  159SAPE  H13X17768   4.834   4.189   3.596 -0.4813 -1.5886  0.8838
  159SAPE  H13Y17769   4.751   4.084   3.478  0.7420 -0.7049  3.4244
  159SAPE  C31417770   4.628   4.236   3.597 -0.0237 -0.1022 -0.1778
  159SAPE  H14X17771   4.540   4.248   3.531 -0.9676  1.8903  1.3881
  159SAPE  H14Y17772   4.648   4.340   3.629 -1.4925  0.4334 -0.9351
  159SAPE  C31517773   4.591   4.151   3.722 -0.3408  0.5315  0.2008
  159SAPE  H15X17774   4.675   4.166   3.794 -0.0505  2.5942 -0.5308
  159SAPE  H15Y17775   4.598   4.043   3.697 -1.5810  0.2161  1.1537
  159SAPE  C31617776   4.450   4.177   3.778  0.4200  0.0068  0.0624
  159SAPE  H16X17777   4.437   4.116   3.871  1.4514 -1.4089 -0.7082
  159SAPE  H16Y17778   4.384   4.141   3.696  0.6072 -2.0215  0.7653
  159SAPE  C31717779   4.421   4.329   3.804  0.1919 -0.5862  0.2293
  159SAPE  H17X17780   4.431   4.391   3.712  2.3348  0.6006  1.2316
  159SAPE  H17Y17781   4.497   4.358   3.879  0.0899 -0.4242  0.2708
  159SAPE  C31817782   4.288   4.341   3.878  0.6472  0.3101 -0.6835
  159SAPE  H18X17783   4.276   4.440   3.926 -1.2398  0.6220 -1.7643
  159SAPE  H18Y17784   4.276   4.264   3.956  1.7928  0.3130 -0.4881
  159SAPE  H18Z17785   4.197   4.335   3.814  0.9956 -0.3467 -1.1366
  160SAPE     N17786   5.499   2.701   2.061  0.1874 -0.5747 -0.0106
  160SAPE   HN117787   5.568   2.676   1.988  0.2891  2.5890 -1.0628
  160SAPE   HN217788   5.403   2.673   2.033  0.1092  1.5425 -1.9116
  160SAPE   HN317789   5.506   2.802   2.087  1.4349 -0.4831 -0.6851
  160SAPE   C1217790   5.539   2.636   2.190  0.2184 -0.2059 -0.0909
  160SAPE  H12A17791   5.562   2.531   2.161  0.5448 -0.6870  1.8598
  160SAPE  H12B17792   5.452   2.645   2.259 -0.3868  2.5857 -1.1236
  160SAPE   C1117793   5.655   2.707   2.261 -0.4058  0.5111  0.3972
  160SAPE  H11A17794   5.679   2.658   2.358 -0.0952 -3.3395 -1.5401
  160SAPE  H11B17795   5.616   2.807   2.292 -2.5639 -0.9846  2.7136
  160SAPE     P17796   5.859   2.586   2.174  0.2784  0.0108 -0.1411
  160SAPE   O1317797   5.781   2.477   2.115  0.1623  0.1169 -0.3190
  160SAPE   O1417798   5.993   2.610   2.114  0.4083 -0.7890 -0.0432
  160SAPE   O1217799   5.770   2.718   2.175  0.3108  0.0576  0.1837
  160SAPE   O1117800   5.875   2.557   2.324  0.0976  0.1427 -0.1148
  160SAPE    C117801   5.991   2.605   2.399  0.5771 -0.5698  0.0596
  160SAPE    HA17802   6.085   2.561   2.359  0.4748 -0.1625 -0.6426
  160SAPE    HB17803   5.990   2.716   2.388 -2.1309 -0.7029 -1.6582
  160SAPE    C217804   5.974   2.566   2.551  0.0334 -0.5421  0.5628
  160SAPE    HS17805   6.004   2.461   2.573  0.8487 -0.1375  1.3887
  160SAPE   O2117806   5.842   2.591   2.591  0.4352  0.0772  0.3771
  160SAPE   C2117807   5.760   2.491   2.625  0.2621 -0.4254 -0.2398
  160SAPE   O2217808   5.769   2.375   2.599 -0.0705  0.0677  0.0579
  160SAPE   C2217809   5.642   2.556   2.697 -0.0215 -0.2598 -0.4439
  160SAPE   H2R17810   5.603   2.630   2.624 -0.8876 -0.6079 -0.3398
  160SAPE   H2S17811   5.559   2.484   2.712 -0.8088  0.8180  0.4596
  160SAPE    C317812   6.081   2.649   2.637  0.4214  1.4100 -0.4543
  160SAPE    HX17813   6.063   2.758   2.624  0.8088  1.3320 -1.6411
  160SAPE    HY17814   6.179   2.626   2.590 -0.5018 -0.8876 -1.2859
  160SAPE   O3117815   6.075   2.593   2.767 -0.3180  1.1525 -0.2646
  160SAPE   C3117816   6.101   2.683   2.863 -0.1775 -0.1158  0.0892
  160SAPE   O3217817   6.136   2.800   2.844 -0.2558  0.2387 -0.2309
  160SAPE   C3217818   6.072   2.613   3.000 -1.1377  0.7627  0.9735
  160SAPE   H2X17819   6.164   2.552   3.014 -0.1431  1.6704 -1.3674
  160SAPE   H2Y17820   5.979   2.552   2.992 -0.2394 -0.6086  0.7389
  160SAPE   C2317821   5.675   2.601   2.844 -0.1888 -0.2771  0.6099
  160SAPE   H3R17822   5.769   2.659   2.856  0.2718 -1.2747  2.0769
  160SAPE   H3S17823   5.692   2.506   2.899  0.4294 -1.2583 -1.2307
  160SAPE   C2417824   5.564   2.676   2.906  0.1997  0.4004  0.3956
  160SAPE   H4R17825   5.471   2.615   2.898  1.1573 -0.8234 -2.0076
  160SAPE   H4S17826   5.544   2.768   2.846 -1.9363 -1.5593 -2.0508
  160SAPE   C2517827   5.592   2.706   3.058  0.6067 -0.6771  0.3030
  160SAPE   H5R17828   5.667   2.785   3.071  0.3701 -0.4107  0.0643
  160SAPE   C2617829   5.527   2.654   3.167 -0.3995  0.6423  0.4265
  160SAPE   H6R17830   5.535   2.697   3.268  0.7510 -0.1931  0.6959
  160SAPE   C2717831   5.422   2.545   3.158  0.2380 -0.2669  0.1492
  160SAPE   H7R17832   5.475   2.451   3.132  0.3721 -0.2378  0.3168
  160SAPE   H7S17833   5.352   2.547   3.071 -2.2321 -0.2806  2.0846
  160SAPE   C2817834   5.354   2.526   3.287  0.9018 -0.3110 -0.8688
  160SAPE   H8R17835   5.266   2.591   3.299 -0.0726 -1.4337 -1.8201
  160SAPE   C2917836   5.370   2.421   3.366  0.7236 -1.1108 -0.6791
  160SAPE   H9R17837   5.295   2.414   3.447 -0.7301 -1.1595 -2.0224
  160SAPE  C21017838   5.457   2.303   3.356  0.2412 -0.4450 -0.3287
  160SAPE  H10R17839   5.525   2.303   3.268  0.3586 -0.6261 -0.2398
  160SAPE  H10S17840   5.398   2.209   3.348  1.4835 -1.2081 -0.7115
  160SAPE  C21117841   5.554   2.291   3.466 -0.2580 -0.2854 -0.5282
  160SAPE  H11R17842   5.649   2.335   3.432  0.6314 -2.4652 -0.9360
  160SAPE  C21217843   5.550   2.241   3.584  0.2429  0.5832 -0.5011
  160SAPE  H12R17844   5.642   2.221   3.641  1.2217  1.0135 -1.9094
  160SAPE  C21317845   5.424   2.170   3.637 -0.1873 -0.0241  0.3661
  160SAPE  H13R17846   5.437   2.062   3.614  0.0080  0.3075 -1.1302
  160SAPE  H13S17847   5.336   2.192   3.573 -0.5700 -0.4760  0.7375
  160SAPE  C21417848   5.374   2.183   3.774 -0.5270  0.3354  0.2016
  160SAPE  H14R17849   5.282   2.241   3.787 -0.3284  1.3434 -2.6329
  160SAPE  C21517850   5.428   2.138   3.887  0.7159 -0.7944  0.4387
  160SAPE  H15R17851   5.372   2.156   3.980 -0.9460  1.6563 -0.9774
  160SAPE  C21617852   5.557   2.058   3.896 -0.0762 -1.0679 -0.4084
  160SAPE  H16R17853   5.637   2.132   3.919 -2.3448  1.7960 -1.4285
  160SAPE  H16S17854   5.576   1.998   3.804 -0.2718 -3.0359  0.7968
  160SAPE  C21717855   5.565   1.942   4.003 -0.1659  0.6013 -0.5847
  160SAPE  H17R17856   5.469   1.887   4.009 -0.6207  1.3696 -0.8451
  160SAPE  H17S17857   5.574   1.989   4.103  2.4874  1.0896 -1.0169
  160SAPE  C21817858   5.676   1.841   3.962 -0.2621 -0.0632 -0.1499
  160SAPE  H18R17859   5.771   1.895   3.943 -0.7136  0.5832 -0.6044
  160SAPE  H18S17860   5.642   1.782   3.875 -1.5140  0.7053 -0.2020
  160SAPE  C21917861   5.705   1.751   4.084  0.2429  0.1168  0.2747
  160SAPE  H19R17862   5.606   1.732   4.132  0.9719  1.5032  2.3629
  160SAPE  H19S17863   5.765   1.806   4.159 -0.4877  1.4573 -0.1101
  160SAPE  C22017864   5.768   1.618   4.042  0.1379 -0.4014  0.2618
  160SAPE  H20R17865   5.796   1.550   4.126  0.3026 -2.8503 -1.7087
  160SAPE  H20S17866   5.868   1.641   4.001 -0.5427  0.2831 -1.0324
  160SAPE  H20T17867   5.703   1.561   3.972  1.2292  1.0143 -1.9522
  160SAPE   C3317868   6.066   2.725   3.109  0.3917  0.3800  0.0591
  160SAPE   H3X17869   5.985   2.800   3.097 -0.3284 -0.4370 -0.2431
  160SAPE   H3Y17870   6.154   2.792   3.098  0.3006  0.3935 -0.5797
  160SAPE   C3417871   6.069   2.670   3.255  0.2051 -0.5676  0.3423
  160SAPE   H4X17872   6.095   2.749   3.329  1.3180  0.4468 -1.1177
  160SAPE   H4Y17873   6.152   2.599   3.277 -0.5021 -1.4702  0.1054
  160SAPE   C3517874   5.935   2.607   3.277  0.0932  0.0647 -0.0118
  160SAPE   H5X17875   5.928   2.507   3.228  2.8982 -0.5316  0.7070
  160SAPE   H5Y17876   5.852   2.666   3.232 -0.2320 -1.2384 -1.1650
  160SAPE   C3617877   5.915   2.580   3.433  0.2905 -0.4668 -0.0453
  160SAPE   H6X17878   5.809   2.546   3.445 -0.1039  1.0624  0.8379
  160SAPE   H6Y17879   5.926   2.672   3.494  0.1786 -0.2569 -0.3405
  160SAPE   C3717880   6.020   2.481   3.493  0.0325  0.1806 -0.3713
  160SAPE   H7X17881   6.121   2.528   3.497  0.5596 -0.8063 -1.6014
  160SAPE   H7Y17882   6.021   2.397   3.420 -0.0189  0.5025 -0.7475
  160SAPE   C3817883   5.972   2.432   3.628 -0.4414 -0.1104 -0.5963
  160SAPE   H8X17884   5.868   2.393   3.621 -1.4325  2.3194 -0.0715
  160SAPE   H8Y17885   5.966   2.520   3.696 -0.5072  0.6998 -1.6351
  160SAPE   C3917886   6.051   2.332   3.711 -0.8597 -0.3230 -0.7991
  160SAPE   H9X17887   6.149   2.362   3.753 -1.3936  2.2145 -1.2646
  160SAPE   H9Y17888   6.073   2.236   3.660  0.0168  0.0456 -1.1253
  160SAPE  C31017889   5.967   2.291   3.831  0.2887 -0.5883  0.3797
  160SAPE  H10X17890   5.872   2.245   3.797 -0.0291  0.4366 -0.1634
  160SAPE  H10Y17891   5.939   2.381   3.890  0.6427 -1.5505  2.0406
  160SAPE  C31117892   6.031   2.184   3.913  0.0614  0.5134 -0.0614
  160SAPE  H11X17893   6.113   2.229   3.974  1.3379  0.9802 -2.0570
  160SAPE  H11Y17894   6.088   2.106   3.858 -0.4259  0.8906 -1.1292
  160SAPE  C31217895   5.939   2.112   4.012 -0.5816  0.4596  0.0269
  160SAPE  H12X17896   5.992   2.019   4.042 -0.7952 -0.3493 -2.0782
  160SAPE  H12Y17897   5.844   2.088   3.960  0.4504 -3.4149 -0.1948
  160SAPE  C31317898   5.909   2.196   4.134  0.5845  0.3910 -0.3313
  160SAPE  H13X17899   5.827   2.256   4.089 -1.9641 -1.9106  1.1165
  160SAPE  H13Y17900   5.999   2.247   4.175 -0.4148 -1.0220  3.8585
  160SAPE  C31417901   5.848   2.103   4.237 -0.4319 -0.1994 -0.7657
  160SAPE  H14X17902   5.925   2.035   4.279 -1.3294 -0.3456  0.6789
  160SAPE  H14Y17903   5.776   2.043   4.178 -1.4134  1.3247 -1.1561
  160SAPE  C31517904   5.776   2.164   4.356  0.2137 -0.6590 -0.5678
  160SAPE  H15X17905   5.842   2.244   4.394 -0.3518  1.1061 -3.2147
  160SAPE  H15Y17906   5.778   2.089   4.438 -1.5137 -0.4482 -0.3033
  160SAPE  C31617907   5.625   2.210   4.336 -0.7126  0.2783  0.5691
  160SAPE  H16X17908   5.554   2.135   4.295 -1.1239 -0.4683  2.5654
  160SAPE  H16Y17909   5.627   2.306   4.281 -1.3437 -0.2046 -0.3134
  160SAPE  C31717910   5.568   2.233   4.478  0.4101  0.2771  0.6179
  160SAPE  H17X17911   5.632   2.317   4.515  2.1181  0.5167 -2.7283
  160SAPE  H17Y17912   5.581   2.140   4.538 -3.0492 -0.0827  0.9083
  160SAPE  C31817913   5.419   2.276   4.481  0.8106 -0.3998  0.4902
  160SAPE  H18X17914   5.419   2.384   4.452 -1.2791 -0.0720  1.6100
  160SAPE  H18Y17915   5.387   2.264   4.587  0.0803  1.7505  0.5382
  160SAPE  H18Z17916   5.361   2.214   4.410 -1.4817  1.2745  0.8472
  161SAPE     N17917   3.799   5.993   1.938 -0.1094 -0.1637  0.2300
  161SAPE   HN117918   3.789   5.912   1.874  0.7210 -0.7984  0.8989
  161SAPE   HN217919   3.704   6.035   1.939  1.1008  2.7563 -1.1302
  161SAPE   HN317920   3.861   6.073   1.912  0.1211  0.0908  1.4891
  161SAPE   C1217921   3.845   5.939   2.074  0.0372 -0.2979  0.5635
  161SAPE  H12A17922   3.949   5.967   2.099  0.2918 -0.7151 -0.0005
  161SAPE  H12B17923   3.842   5.828   2.084  1.8077 -0.2247  2.2479
  161SAPE   C1117924   3.765   6.012   2.187  0.9917 -0.7070  0.3850
  161SAPE  H11A17925   3.753   6.121   2.172 -1.7236 -0.9068  0.8735
  161SAPE  H11B17926   3.808   5.990   2.287 -0.5988 -0.8440  1.0577
  161SAPE     P17927   3.576   5.847   2.270  0.5379  0.0919 -0.3619
  161SAPE   O1317928   3.439   5.816   2.228 -0.2857  0.2715 -0.1657
  161SAPE   O1417929   3.675   5.735   2.280 -0.6126  0.0819  0.3966
  161SAPE   O1217930   3.635   5.956   2.171  0.2149  0.2196 -0.7223
  161SAPE   O1117931   3.575   5.922   2.401  0.0642  0.0299  0.0956
  161SAPE    C117932   3.456   5.985   2.450 -0.6855 -0.6661 -0.5786
  161SAPE    HA17933   3.365   5.923   2.436  0.2999 -2.2830 -0.0393
  161SAPE    HB17934   3.472   5.994   2.560  1.9026 -0.0232 -0.9877
  161SAPE    C217935   3.433   6.127   2.379 -0.2374 -0.3065 -0.1840
  161SAPE    HS17936   3.422   6.119   2.269 -0.5363 -0.4524 -0.1450
  161SAPE   O2117937   3.543   6.218   2.407  0.3708 -0.3367  0.4869
  161SAPE   C2117938   3.542   6.328   2.327 -0.3610 -0.0729 -0.0730
  161SAPE   O2217939   3.491   6.348   2.224 -0.4192 -0.1172 -1.0794
  161SAPE   C2217940   3.616   6.433   2.403 -0.7188  0.8269  0.4530
  161SAPE   H2R17941   3.589   6.412   2.508 -0.3248 -0.0149  0.3897
  161SAPE   H2S17942   3.722   6.408   2.381 -0.8526 -0.9252  1.7247
  161SAPE    C317943   3.295   6.182   2.424 -0.2409 -0.0966 -0.2769
  161SAPE    HX17944   3.210   6.115   2.400  0.1749 -1.1015  1.0161
  161SAPE    HY17945   3.274   6.280   2.375 -0.7286 -0.2132 -0.3000
  161SAPE   O3117946   3.285   6.190   2.570  0.2365  0.1955  0.1667
  161SAPE   C3117947   3.243   6.304   2.615 -0.1323 -0.4718 -1.2427
  161SAPE   O3217948   3.201   6.399   2.552  0.0432 -0.3947 -0.1450
  161SAPE   C3217949   3.243   6.300   2.767 -0.0463 -0.3909 -0.4802
  161SAPE   H2X17950   3.179   6.218   2.805 -1.4701  0.5402 -0.8319
  161SAPE   H2Y17951   3.198   6.396   2.800 -1.8604 -1.3446 -0.1457
  161SAPE   C2317952   3.586   6.578   2.345  0.1859  0.2691 -0.8544
  161SAPE   H3R17953   3.478   6.594   2.366  0.3849 -0.6548  1.0222
  161SAPE   H3S17954   3.602   6.579   2.235 -1.0889 -0.1901 -1.0489
  161SAPE   C2417955   3.678   6.683   2.406 -0.4227  0.2568  0.4382
  161SAPE   H4R17956   3.784   6.651   2.401 -0.4649 -0.4678  3.3468
  161SAPE   H4S17957   3.666   6.681   2.517 -1.2849 -2.1325  0.3406
  161SAPE   C2517958   3.654   6.819   2.348 -0.3904 -0.2897 -0.5108
  161SAPE   H5R17959   3.715   6.853   2.263 -0.1905  0.3884 -0.1000
  161SAPE   C2617960   3.580   6.915   2.406  0.0779  0.5901 -0.0801
  161SAPE   H6R17961   3.586   7.016   2.364 -1.6861  0.2213 -1.2906
  161SAPE   C2717962   3.498   6.909   2.537  0.5668  0.1686  1.0185
  161SAPE   H7R17963   3.457   6.808   2.559 -0.7308 -0.4368 -3.5558
  161SAPE   H7S17964   3.402   6.964   2.528 -0.0332 -1.0429 -0.0336
  161SAPE   C2817965   3.571   6.968   2.656 -0.4919  0.6461 -0.2716
  161SAPE   H8R17966   3.666   7.017   2.631 -0.7111  1.6430  0.8502
  161SAPE   C2917967   3.526   6.971   2.784 -0.2962  0.0270 -0.1077
  161SAPE   H9R17968   3.590   7.009   2.865 -1.4022 -0.3401  0.9608
  161SAPE  C21017969   3.397   6.912   2.841  0.2916 -0.5366 -0.3884
  161SAPE  H10R17970   3.349   6.842   2.769  1.0314 -1.3355 -0.1216
  161SAPE  H10S17971   3.320   6.992   2.852  1.1050  0.4344 -1.6753
  161SAPE  C21117972   3.421   6.833   2.973 -0.1243 -0.1041 -0.1525
  161SAPE  H11R17973   3.528   6.825   2.998 -0.0633  1.1851  0.0104
  161SAPE  C21217974   3.336   6.770   3.059  0.2432  0.0444  0.8575
  161SAPE  H12R17975   3.376   6.732   3.155  0.0045  2.3230  1.8894
  161SAPE  C21317976   3.182   6.758   3.054 -0.9170 -0.4604  0.2264
  161SAPE  H13R17977   3.134   6.810   2.969  0.0111 -1.8092 -1.1481
  161SAPE  H13S17978   3.142   6.814   3.142  0.8697 -1.0852  1.4676
  161SAPE  C21417979   3.140   6.615   3.041 -0.2459  0.4708  0.0664
  161SAPE  H14R17980   3.180   6.562   2.953 -1.3353 -0.8905  0.3725
  161SAPE  C21517981   3.063   6.545   3.124  0.5584 -0.5860  0.1194
  161SAPE  H15R17982   3.044   6.442   3.092 -0.7885 -0.1094 -0.6329
  161SAPE  C21617983   2.993   6.581   3.250  0.2738  0.0727 -0.1532
  161SAPE  H16R17984   2.889   6.613   3.227  0.6592  0.4311 -1.4671
  161SAPE  H16S17985   3.047   6.665   3.299 -0.0066  0.9576 -1.3446
  161SAPE  C21717986   3.006   6.469   3.355  0.7437 -0.7524 -0.1936
  161SAPE  H17R17987   2.985   6.364   3.326  0.0497 -1.2732  2.1021
  161SAPE  H17S17988   2.932   6.495   3.434 -0.6665 -0.7462 -1.5019
  161SAPE  C21817989   3.141   6.465   3.418  0.6299 -0.1061 -0.1727
  161SAPE  H18R17990   3.182   6.568   3.423  2.3784 -0.6495 -2.4619
  161SAPE  H18S17991   3.205   6.417   3.341  0.0496  0.6453 -1.1298
  161SAPE  C21917992   3.163   6.382   3.542  0.5427 -0.4409  0.0957
  161SAPE  H19R17993   3.081   6.409   3.611  1.7830  3.9657 -0.0130
  161SAPE  H19S17994   3.264   6.411   3.578  1.4072 -1.6772 -1.2978
  161SAPE  C22017995   3.161   6.228   3.523  0.2353 -0.5759 -0.2936
  161SAPE  H20R17996   3.251   6.199   3.464 -0.2282 -2.1523 -0.2376
  161SAPE  H20S17997   3.069   6.191   3.473  1.6166 -1.3637 -2.3372
  161SAPE  H20T17998   3.180   6.177   3.619 -0.2472 -1.0647 -0.4596
  161SAPE   C3317999   3.386   6.295   2.822  0.7636  0.0722  0.1076
  161SAPE   H3X18000   3.442   6.378   2.775 -1.3841  0.8925 -1.0556
  161SAPE   H3Y18001   3.433   6.198   2.796  1.1581 -1.0300  4.4927
  161SAPE   C3418002   3.381   6.321   2.970 -0.4792 -0.0794 -0.2592
  161SAPE   H4X18003   3.321   6.412   2.994 -1.9505 -0.7353 -1.3543
  161SAPE   H4Y18004   3.486   6.349   2.992  0.3407 -2.2228 -1.3338
  161SAPE   C3518005   3.342   6.192   3.044 -0.8234 -0.1176  0.4398
  161SAPE   H5X18006   3.243   6.155   3.011 -0.7627 -0.0143  0.1430
  161SAPE   H5Y18007   3.311   6.219   3.148  2.6543  0.7633  1.3155
  161SAPE   C3618008   3.446   6.087   3.046 -0.1851  0.4016 -0.5004
  161SAPE   H6X18009   3.522   6.122   3.119  0.0038  0.7340 -0.8548
  161SAPE   H6Y18010   3.499   6.071   2.949 -0.7007 -0.6489 -0.6203
  161SAPE   C3718011   3.396   5.953   3.088  0.4875  0.3296 -0.0227
  161SAPE   H7X18012   3.479   5.881   3.072 -0.1487 -0.3759 -0.1653
  161SAPE   H7Y18013   3.320   5.926   3.012 -0.2075  0.4666  0.6160
  161SAPE   C3818014   3.348   5.938   3.231  0.2623  0.1049 -0.1844
  161SAPE   H8X18015   3.285   5.848   3.245  0.3522  0.2078  0.9845
  161SAPE   H8Y18016   3.293   6.031   3.259  0.2888  0.0484  0.0562
  161SAPE   C3918017   3.466   5.931   3.326 -0.0157  0.5413 -0.4252
  161SAPE   H9X18018   3.529   6.022   3.316  1.0240 -0.2303 -1.0388
  161SAPE   H9Y18019   3.544   5.854   3.307  0.1314 -0.0559  2.3970
  161SAPE  C31018020   3.432   5.924   3.472 -0.0477 -0.0123 -0.0809
  161SAPE  H10X18021   3.352   5.846   3.473 -2.1472  2.1016 -0.0219
  161SAPE  H10Y18022   3.396   6.026   3.496  0.2419 -0.1864  1.1412
  161SAPE  C31118023   3.550   5.887   3.561  0.2354  0.2956  0.3637
  161SAPE  H11X18024   3.627   5.965   3.543 -1.4669  2.3528  1.7561
  161SAPE  H11Y18025   3.588   5.786   3.536  0.3532 -0.2434  2.6300
  161SAPE  C31218026   3.525   5.890   3.713  0.0395  0.7323  0.1081
  161SAPE  H12X18027   3.446   5.965   3.730 -0.5169  0.3313 -0.6613
  161SAPE  H12Y18028   3.614   5.920   3.773 -1.0257 -1.8573  3.0798
  161SAPE  C31318029   3.467   5.749   3.760  0.1114 -0.6984 -0.1325
  161SAPE  H13X18030   3.554   5.680   3.755  1.4896  0.8360  1.7698
  161SAPE  H13Y18031   3.395   5.715   3.684 -0.5980 -0.9306  0.6401
  161SAPE  C31418032   3.397   5.737   3.896 -0.6235 -0.1251  0.2865
  161SAPE  H14X18033   3.461   5.782   3.975  0.7690  0.0635 -0.9237
  161SAPE  H14Y18034   3.385   5.629   3.918 -1.1660 -0.3470 -1.0356
  161SAPE  C31518035   3.257   5.791   3.886  0.6074 -0.7948  0.6500
  161SAPE  H15X18036   3.199   5.718   3.825 -0.2643  1.4705 -1.3384
  161SAPE  H15Y18037   3.254   5.886   3.827 -0.8303 -1.3061 -0.1322
  161SAPE  C31618038   3.185   5.806   4.023 -0.5570  0.3823 -0.2507
  161SAPE  H16X18039   3.088   5.857   4.004  0.7433  2.3528 -1.7714
  161SAPE  H16Y18040   3.246   5.878   4.082 -0.3487 -2.3403  2.9857
  161SAPE  C31718041   3.187   5.675   4.097 -0.0168  0.5120 -0.0203
  161SAPE  H17X18042   3.292   5.642   4.104 -0.0185  0.7228  1.0010
  161SAPE  H17Y18043   3.135   5.604   4.029 -1.0572  1.8966 -0.6903
  161SAPE  C31818044   3.116   5.665   4.231 -0.0781  0.0908 -0.1160
  161SAPE  H18X18045   3.095   5.561   4.264  0.0708  0.0586 -0.1208
  161SAPE  H18Y18046   3.012   5.702   4.217 -0.5481 -0.8880  0.6983
  161SAPE  H18Z18047   3.160   5.722   4.316  2.8403 -1.4092 -0.5588
  162SAPE     N18048   2.880   1.623   2.382  0.2303  0.4107  0.2483
  162SAPE   HN118049   2.913   1.628   2.480 -1.9211 -2.1122  1.1626
  162SAPE   HN218050   2.877   1.721   2.348  0.0567  0.4667  0.4251
  162SAPE   HN318051   2.781   1.592   2.389  0.4978 -0.7887 -1.0560
  162SAPE   C1218052   2.967   1.527   2.299 -0.2385 -1.2080 -1.1005
  162SAPE  H12A18053   3.051   1.502   2.367 -0.1358 -1.1553 -1.2084
  162SAPE  H12B18054   3.001   1.593   2.217  0.5796 -1.0910 -0.6673
  162SAPE   C1118055   2.901   1.392   2.254 -0.0001  0.6199  0.2422
  162SAPE  H11A18056   2.869   1.329   2.340 -0.7469 -0.1902 -0.6213
  162SAPE  H11B18057   2.982   1.335   2.204 -1.8187 -2.2151  0.4355
  162SAPE     P18058   2.680   1.301   2.137 -0.2151 -0.2251 -0.3222
  162SAPE   O1318059   2.598   1.333   2.018  0.2545  0.1965 -0.1998
  162SAPE   O1418060   2.743   1.165   2.122  0.2272 -0.2448 -0.6495
  162SAPE   O1218061   2.789   1.412   2.165  0.0580 -0.0150 -0.3850
  162SAPE   O1118062   2.585   1.300   2.270 -0.5933 -0.4856  0.1391
  162SAPE    C118063   2.549   1.180   2.327  0.0498  0.0410  0.6332
  162SAPE    HA18064   2.454   1.160   2.273  0.7241  1.0973 -1.0022
  162SAPE    HB18065   2.627   1.103   2.311  2.3485  2.2364  1.0225
  162SAPE    C218066   2.523   1.192   2.480  0.8406 -0.2367  0.0106
  162SAPE    HS18067   2.448   1.270   2.506  2.6049  1.2585  0.7734
  162SAPE   O2118068   2.647   1.233   2.534 -0.5452 -0.2626  0.1930
  162SAPE   C2118069   2.641   1.301   2.651  0.4948 -0.0168 -0.0048
  162SAPE   O2218070   2.538   1.341   2.711  0.1231  0.2379  0.2755
  162SAPE   C2218071   2.783   1.308   2.708 -0.0636 -0.7650  0.0235
  162SAPE   H2R18072   2.853   1.233   2.664  0.4490  0.4624 -1.2768
  162SAPE   H2S18073   2.826   1.407   2.683  0.5279 -0.1709  3.1061
  162SAPE    C318074   2.469   1.058   2.546 -0.1297 -0.1158 -0.4031
  162SAPE    HX18075   2.375   1.029   2.494  1.0842 -1.6854 -1.7799
  162SAPE    HY18076   2.453   1.085   2.653  2.6337  0.1801 -0.0193
  162SAPE   O3118077   2.566   0.953   2.541  0.6161  0.6142  0.5475
  162SAPE   C3118078   2.563   0.866   2.439  0.1344 -0.4127  0.0222
  162SAPE   O3218079   2.484   0.866   2.344  0.5598 -0.3963  0.1190
  162SAPE   C3218080   2.673   0.760   2.460  0.0339 -0.1991 -0.1355
  162SAPE   H2X18081   2.767   0.816   2.443 -0.5089  0.4213 -1.1788
  162SAPE   H2Y18082   2.663   0.694   2.371 -3.4214  0.7275 -0.5391
  162SAPE   C2318083   2.758   1.303   2.867  0.4780 -0.0662  0.3523
  162SAPE   H3R18084   2.705   1.207   2.887  2.3499 -1.1597  0.1255
  162SAPE   H3S18085   2.688   1.384   2.899 -0.9669 -0.5675 -1.4391
  162SAPE   C2418086   2.890   1.310   2.945 -0.0980  0.4752  0.4640
  162SAPE   H4R18087   2.961   1.251   2.883 -2.5963 -0.7255 -1.3537
  162SAPE   H4S18088   2.887   1.251   3.039  0.6292  0.4190  0.4512
  162SAPE   C2518089   2.940   1.445   2.977 -0.0554 -0.4491 -0.5324
  162SAPE   H5R18090   2.991   1.486   2.888 -1.1874 -0.2174 -1.0817
  162SAPE   C2618091   2.935   1.511   3.096 -0.3876  0.6372 -0.6841
  162SAPE   H6R18092   2.996   1.602   3.106  2.2214 -0.9749 -1.7455
  162SAPE   C2718093   2.869   1.450   3.220  1.2831  0.7818 -0.1833
  162SAPE   H7R18094   2.954   1.395   3.266 -0.2456 -0.1917  1.5220
  162SAPE   H7S18095   2.792   1.375   3.191  2.3383 -0.0207 -0.9583
  162SAPE   C2818096   2.804   1.558   3.303 -0.0993  0.0632  0.0237
  162SAPE   H8R18097   2.869   1.641   3.334 -0.7378  0.0789  1.3851
  162SAPE   C2918098   2.675   1.572   3.342  0.1297 -0.1009 -0.4567
  162SAPE   H9R18099   2.655   1.649   3.417 -1.0050 -1.3738  0.5719
  162SAPE  C21018100   2.563   1.475   3.313  0.7195  0.1471 -0.7047
  162SAPE  H10R18101   2.516   1.445   3.409  0.0380 -0.6026 -1.2630
  162SAPE  H10S18102   2.589   1.383   3.256  1.5502 -0.6259  0.9095
  162SAPE  C21118103   2.464   1.536   3.210 -0.6626  0.3082  0.5472
  162SAPE  H11R18104   2.502   1.611   3.140 -0.0858  0.9448  1.5348
  162SAPE  C21218105   2.332   1.519   3.208 -0.6538  0.1870  0.5064
  162SAPE  H12R18106   2.277   1.575   3.131  1.7777 -0.6655 -1.9392
  162SAPE  C21318107   2.247   1.431   3.298  0.2345  0.6944  0.1996
  162SAPE  H13R18108   2.306   1.344   3.333  1.4408  1.2701 -0.3886
  162SAPE  H13S18109   2.168   1.386   3.233  1.5191 -0.4229 -0.6145
  162SAPE  C21418110   2.177   1.513   3.409 -0.6488  0.3942  0.5281
  162SAPE  H14R18111   2.140   1.611   3.373 -0.7888 -0.0152 -0.4728
  162SAPE  C21518112   2.154   1.486   3.538 -1.2471 -0.2967  0.2933
  162SAPE  H15R18113   2.106   1.573   3.586  2.4329  0.7783  2.2798
  162SAPE  C21618114   2.189   1.368   3.626  0.2384  0.4633  0.5147
  162SAPE  H16R18115   2.285   1.320   3.597  2.2743  5.1002 -0.8522
  162SAPE  H16S18116   2.106   1.294   3.625  1.2409 -0.6830 -0.4263
  162SAPE  C21718117   2.196   1.404   3.776 -0.5173  0.0421  0.3764
  162SAPE  H17R18118   2.237   1.313   3.826 -0.4304 -0.1466 -0.0399
  162SAPE  H17S18119   2.095   1.426   3.817 -0.5425 -1.9289  1.4586
  162SAPE  C21818120   2.299   1.518   3.812  0.7465 -0.0464  0.0289
  162SAPE  H18R18121   2.260   1.614   3.772  0.3823 -0.1747  0.0813
  162SAPE  H18S18122   2.398   1.482   3.774 -0.4198 -1.3500 -1.8586
  162SAPE  C21918123   2.309   1.538   3.969 -0.4165 -0.3348 -0.0320
  162SAPE  H19R18124   2.357   1.445   4.007  1.4668  1.2373  1.5739
  162SAPE  H19S18125   2.203   1.544   4.002 -0.1357  0.3377  0.7503
  162SAPE  C22018126   2.385   1.663   3.998  0.0244 -0.5007  0.3483
  162SAPE  H20R18127   2.365   1.705   4.099  0.3642 -1.0583  0.6496
  162SAPE  H20S18128   2.347   1.741   3.928  0.4739  0.5412  1.2421
  162SAPE  H20T18129   2.495   1.660   3.981  0.1083  0.4223  0.6918
  162SAPE   C3318130   2.688   0.689   2.601  0.5369  0.3850 -0.0539
  162SAPE   H3X18131   2.789   0.645   2.593  0.3954  0.1750 -0.6798
  162SAPE   H3Y18132   2.618   0.605   2.618  2.0114 -0.5261  1.6930
  162SAPE   C3418133   2.680   0.776   2.733 -0.0384  0.2054 -0.4860
  162SAPE   H4X18134   2.580   0.824   2.734 -0.1796 -0.0962  1.3032
  162SAPE   H4Y18135   2.755   0.859   2.737 -0.0763  0.2121  0.1132
  162SAPE   C3518136   2.714   0.690   2.859 -0.1017  0.1148  0.0076
  162SAPE   H5X18137   2.813   0.642   2.846 -1.0008 -2.0615  0.9251
  162SAPE   H5Y18138   2.639   0.609   2.864 -0.7790  0.7906  1.0718
  162SAPE   C3618139   2.722   0.770   2.986 -0.6891  0.6952 -0.3676
  162SAPE   H6X18140   2.705   0.699   3.070 -0.0977  0.5528 -0.3612
  162SAPE   H6Y18141   2.637   0.840   2.997 -0.4636  0.8816  0.2152
  162SAPE   C3718142   2.858   0.836   2.998  0.2410 -0.2588  0.2855
  162SAPE   H7X18143   2.894   0.861   2.896 -0.5471  0.7603  0.2414
  162SAPE   H7Y18144   2.930   0.762   3.038  1.1293 -0.3272 -1.4098
  162SAPE   C3818145   2.866   0.961   3.088  0.1130 -0.3536 -0.0666
  162SAPE   H8X18146   2.780   1.025   3.060  2.0486  1.2470 -2.5327
  162SAPE   H8Y18147   2.959   1.012   3.055 -0.9904  1.7148 -0.0680
  162SAPE   C3918148   2.872   0.937   3.241  0.1718  0.3405 -0.6919
  162SAPE   H9X18149   2.967   0.880   3.252 -0.7815 -1.8305 -3.2418
  162SAPE   H9Y18150   2.786   0.878   3.280 -0.7970  0.6323 -2.3291
  162SAPE  C31018151   2.897   1.064   3.337  0.2241  0.5870 -0.5966
  162SAPE  H10X18152   2.809   1.133   3.336  0.4739  0.9514  0.8975
  162SAPE  H10Y18153   2.989   1.112   3.297 -0.0131  2.1703  0.6825
  162SAPE  C31118154   2.926   1.022   3.482  0.4584  0.1727  0.0933
  162SAPE  H11X18155   2.960   0.916   3.483 -1.7782 -0.5866  2.1264
  162SAPE  H11Y18156   2.831   1.020   3.539  1.1222 -2.5200  1.1842
  162SAPE  C31218157   3.037   1.098   3.562 -0.3399  0.1977  0.3159
  162SAPE  H12X18158   2.993   1.198   3.582  0.1083  0.4591  0.0020
  162SAPE  H12Y18159   3.122   1.115   3.492  0.7717 -2.9124  0.8218
  162SAPE  C31318160   3.092   1.025   3.684  0.4366  0.2027 -0.3049
  162SAPE  H13X18161   3.167   1.095   3.727 -0.2409 -0.4072  1.9384
  162SAPE  H13Y18162   3.153   0.939   3.650  0.1330  0.3401 -1.1971
  162SAPE  C31418163   2.985   0.983   3.790 -0.2792 -0.5489 -0.0939
  162SAPE  H14X18164   2.931   0.888   3.772 -1.8912  0.4730 -0.7794
  162SAPE  H14Y18165   2.911   1.066   3.793 -0.2782 -0.6113  2.2743
  162SAPE  C31518166   3.060   0.964   3.924  0.3420  0.1826 -0.2825
  162SAPE  H15X18167   3.164   1.003   3.924 -0.1313  1.4812 -1.6019
  162SAPE  H15Y18168   3.059   0.853   3.924  1.6540  0.1700 -0.3417
  162SAPE  C31618169   2.989   1.025   4.048 -0.0512  0.2935  0.6596
  162SAPE  H16X18170   2.880   1.005   4.050  0.5992 -3.6762  0.9338
  162SAPE  H16Y18171   3.005   1.134   4.041 -1.7134  0.4478 -0.8607
  162SAPE  C31718172   3.053   0.972   4.179  0.0709 -0.6329  0.1830
  162SAPE  H17X18173   3.163   0.987   4.178  0.3495 -2.5790 -0.5735
  162SAPE  H17Y18174   3.040   0.862   4.180  1.7717 -0.8581 -1.0854
  162SAPE  C31818175   2.980   1.030   4.304 -0.0914  0.4093  0.2734
  162SAPE  H18X18176   2.942   1.135   4.305  0.3320  0.5588  0.9483
  162SAPE  H18Y18177   3.056   1.018   4.384 -0.4318 -2.1443  0.2473
  162SAPE  H18Z18178   2.895   0.965   4.332  2.1266 -2.7864 -0.1061
  163SAPE     N18179   4.468   6.435   2.395 -0.3495  0.0666 -0.1566
  163SAPE   HN118180   4.391   6.403   2.333 -1.1188 -0.9267  1.2942
  163SAPE   HN218181   4.545   6.366   2.379  0.9112  1.2582  0.6874
  163SAPE   HN318182   4.429   6.431   2.491 -0.3473  2.3587 -0.0330
  163SAPE   C1218183   4.519   6.572   2.368 -0.7108 -0.2102 -0.6631
  163SAPE  H12A18184   4.428   6.633   2.350 -0.0285  0.4743 -1.9207
  163SAPE  H12B18185   4.573   6.555   2.272 -1.5884 -0.2029 -1.1691
  163SAPE   C1118186   4.619   6.617   2.470  0.1861 -0.6996  0.0787
  163SAPE  H11A18187   4.692   6.534   2.480  0.3423 -0.4220  1.2602
  163SAPE  H11B18188   4.572   6.632   2.569  0.8520  0.3427  0.2459
  163SAPE     P18189   4.769   6.752   2.303 -0.3167 -0.0094 -0.4484
  163SAPE   O1318190   4.853   6.871   2.315  0.1854  0.3367 -0.9517
  163SAPE   O1418191   4.836   6.627   2.267 -0.5682  0.6405  0.4200
  163SAPE   O1218192   4.681   6.738   2.433  0.0554  0.2162 -0.1028
  163SAPE   O1118193   4.662   6.785   2.191 -0.3929  0.6985 -0.5466
  163SAPE    C118194   4.565   6.893   2.212  0.4192 -0.5763  0.4568
  163SAPE    HA18195   4.514   6.867   2.307  0.4775 -1.1635  0.3267
  163SAPE    HB18196   4.605   6.997   2.216 -0.9636 -0.0687  1.1951
  163SAPE    C218197   4.465   6.892   2.091 -0.3512 -0.1034 -0.2248
  163SAPE    HS18198   4.524   6.920   2.001 -0.6086  0.9918 -0.0682
  163SAPE   O2118199   4.371   6.996   2.122 -0.0446  0.8149 -0.4132
  163SAPE   C2118200   4.322   7.063   2.018 -0.4083  0.8164  0.7574
  163SAPE   O2218201   4.361   7.053   1.902 -0.2275 -0.0544 -0.3764
  163SAPE   C2218202   4.212   7.168   2.058 -0.1422 -0.2407 -0.5002
  163SAPE   H2R18203   4.238   7.256   1.996 -0.6295  0.1914 -0.1015
  163SAPE   H2S18204   4.112   7.126   2.031 -0.7307  1.2331 -0.6479
  163SAPE    C318205   4.391   6.753   2.068  0.6890  0.3625 -0.7940
  163SAPE    HX18206   4.458   6.669   2.039  0.4713 -0.3953  0.8404
  163SAPE    HY18207   4.334   6.759   1.973 -0.1330  0.0237 -0.3267
  163SAPE   O3118208   4.309   6.718   2.177  0.6230  0.6303 -0.7480
  163SAPE   C3118209   4.187   6.766   2.169  0.2698  0.1099 -0.3152
  163SAPE   O3218210   4.135   6.823   2.075 -0.3103 -0.7017 -0.2284
  163SAPE   C3218211   4.127   6.734   2.307  0.4298  1.0625  0.6033
  163SAPE   H2X18212   4.151   6.630   2.337 -2.0595 -0.4042 -2.2519
  163SAPE   H2Y18213   4.016   6.729   2.295  0.7374 -4.5994 -1.1962
  163SAPE   C2318214   4.221   7.209   2.210  0.3549  0.5926  0.1351
  163SAPE   H3R18215   4.313   7.270   2.221 -0.8649  2.7510 -1.4279
  163SAPE   H3S18216   4.225   7.120   2.276 -1.7968 -0.4714 -1.0855
  163SAPE   C2418217   4.094   7.275   2.267 -0.2719 -0.6302  0.3485
  163SAPE   H4R18218   4.100   7.361   2.197  0.6708 -1.2085 -0.3088
  163SAPE   H4S18219   4.113   7.313   2.369  0.3467  1.5476 -0.5375
  163SAPE   C2518220   3.961   7.199   2.238 -0.0293  0.5467 -0.3390
  163SAPE   H5R18221   3.936   7.185   2.131 -1.3146  1.0634 -0.1202
  163SAPE   C2618222   3.880   7.136   2.324  0.5315  0.3022 -0.0562
  163SAPE   H6R18223   3.798   7.072   2.288 -0.0174 -0.5575  2.5791
  163SAPE   C2718224   3.914   7.135   2.468 -0.8493 -0.0587  0.1890
  163SAPE   H7R18225   4.023   7.119   2.481 -1.1522 -1.1241  1.5034
  163SAPE   H7S18226   3.853   7.052   2.509  1.5528 -2.9762 -1.9175
  163SAPE   C2818227   3.851   7.256   2.538  0.1758 -0.1232 -0.2125
  163SAPE   H8R18228   3.746   7.274   2.510 -0.5424 -1.9120  1.2506
  163SAPE   C2918229   3.911   7.315   2.641 -0.4855 -0.7200  0.5800
  163SAPE   H9R18230   3.863   7.396   2.699  0.2788 -0.3103  0.6562
  163SAPE  C21018231   4.043   7.273   2.701  0.5475 -0.0845  0.3814
  163SAPE  H10R18232   4.119   7.288   2.621  0.1949  2.3841  0.4529
  163SAPE  H10S18233   4.040   7.163   2.716  1.5052 -0.0765  0.6469
  163SAPE  C21118234   4.102   7.336   2.830 -0.0548 -0.1449  0.4468
  163SAPE  H11R18235   4.192   7.392   2.803 -0.2747  0.5787  1.2232
  163SAPE  C21218236   4.063   7.310   2.957  0.0343  0.0883  0.5630
  163SAPE  H12R18237   4.115   7.370   3.034 -0.3829 -1.0057  1.7117
  163SAPE  C21318238   3.952   7.224   3.005 -0.8497  0.9780 -0.8708
  163SAPE  H13R18239   3.929   7.144   2.931 -3.0507  1.6157 -0.9154
  163SAPE  H13S18240   3.862   7.290   3.011 -0.9195  0.8308 -0.2799
  163SAPE  C21418241   3.977   7.155   3.144  0.3309 -0.2222  0.2949
  163SAPE  H14R18242   4.006   7.227   3.222 -0.7379 -0.2367  0.7101
  163SAPE  C21518243   3.991   7.022   3.163  0.4885  0.4059  0.2062
  163SAPE  H15R18244   3.997   6.987   3.268 -2.2279 -0.7867  0.0052
  163SAPE  C21618245   3.986   6.916   3.057  0.3386  0.3527  0.4629
  163SAPE  H16R18246   4.070   6.846   3.081  1.3220  1.2747 -0.2530
  163SAPE  H16S18247   4.006   6.953   2.954  0.2483  0.8844  0.6374
  163SAPE  C21718248   3.853   6.850   3.085  0.7847 -0.1322  0.3483
  163SAPE  H17R18249   3.830   6.779   3.003 -2.6206  2.5460 -1.1589
  163SAPE  H17S18250   3.768   6.920   3.098  2.8935  2.8589 -1.3912
  163SAPE  C21818251   3.844   6.766   3.220 -0.2853  0.8029 -0.2769
  163SAPE  H18R18252   3.881   6.826   3.305  3.6030  0.0129 -1.3019
  163SAPE  H18S18253   3.911   6.679   3.206  1.1233  1.4682  2.0947
  163SAPE  C21918254   3.700   6.731   3.258 -0.8958  0.5073 -0.9805
  163SAPE  H19R18255   3.725   6.661   3.340  2.0618  1.4817 -1.0129
  163SAPE  H19S18256   3.660   6.674   3.171 -1.5424 -3.2563  1.6989
  163SAPE  C22018257   3.610   6.848   3.303 -0.1310  0.4671  0.0787
  163SAPE  H20R18258   3.583   6.907   3.212 -3.1370  0.9527  1.2555
  163SAPE  H20S18259   3.660   6.918   3.374 -0.2956  0.6617  0.0029
  163SAPE  H20T18260   3.520   6.820   3.361  0.6298 -0.4237  0.8287
  163SAPE   C3318261   4.157   6.848   2.403 -0.5446 -0.4050 -0.5459
  163SAPE   H3X18262   4.066   6.908   2.424  0.3038  0.5379  0.5614
  163SAPE   H3Y18263   4.219   6.923   2.348  0.0042  0.2108  0.8831
  163SAPE   C3418264   4.226   6.807   2.537 -0.4644  0.0487 -0.3870
  163SAPE   H4X18265   4.241   6.900   2.597  0.7134 -1.5819  1.9546
  163SAPE   H4Y18266   4.321   6.758   2.506 -0.2211 -1.2182  2.2237
  163SAPE   C3518267   4.138   6.714   2.634  0.1103  0.6437  0.5440
  163SAPE   H5X18268   4.111   6.615   2.591 -1.9819  0.9961  0.9999
  163SAPE   H5Y18269   4.039   6.760   2.654 -1.1698 -1.4770 -0.6752
  163SAPE   C3618270   4.209   6.678   2.765 -0.4920 -0.0648  0.1281
  163SAPE   H6X18271   4.219   6.776   2.817 -0.8020 -0.1130  0.2803
  163SAPE   H6Y18272   4.308   6.627   2.757 -0.2086  0.4452  0.3902
  163SAPE   C3718273   4.122   6.584   2.844  0.1973 -0.1117  0.0322
  163SAPE   H7X18274   4.121   6.488   2.787 -0.1101 -0.3611  0.4532
  163SAPE   H7Y18275   4.015   6.612   2.838  0.4295  1.3770  2.2474
  163SAPE   C3818276   4.175   6.550   2.982 -0.2777 -0.3445  0.1152
  163SAPE   H8X18277   4.088   6.494   3.024 -0.6641  0.7488  0.7794
  163SAPE   H8Y18278   4.183   6.649   3.032 -1.7289 -0.4250  0.5295
  163SAPE   C3918279   4.295   6.461   3.002 -0.1148  0.0849 -0.9908
  163SAPE   H9X18280   4.386   6.487   2.945  0.1839 -0.4913 -0.7766
  163SAPE   H9Y18281   4.271   6.355   2.978  0.4204 -0.0780 -0.7973
  163SAPE  C31018282   4.350   6.462   3.158  0.0816  0.3037  0.6597
  163SAPE  H10X18283   4.396   6.562   3.168  4.2616 -1.7308  2.9302
  163SAPE  H10Y18284   4.425   6.382   3.174 -0.1047  0.4947  2.5798
  163SAPE  C31118285   4.239   6.461   3.265  0.1858  0.1657  0.7991
  163SAPE  H11X18286   4.191   6.361   3.270  1.9293 -0.7584 -0.4126
  163SAPE  H11Y18287   4.166   6.541   3.241 -0.2774 -0.0154  1.5948
  163SAPE  C31218288   4.295   6.485   3.403  0.3865 -0.4289 -0.0999
  163SAPE  H12X18289   4.354   6.579   3.410 -1.0930  0.6366 -1.4833
  163SAPE  H12Y18290   4.358   6.393   3.412 -0.6512 -1.3668 -2.0819
  163SAPE  C31318291   4.195   6.473   3.522  0.8482 -0.1831  0.1587
  163SAPE  H13X18292   4.139   6.378   3.516 -0.8741  0.9748 -2.7476
  163SAPE  H13Y18293   4.128   6.561   3.529  0.6559 -0.4676  2.2351
  163SAPE  C31418294   4.265   6.474   3.661 -0.6917  0.1245  0.2108
  163SAPE  H14X18295   4.314   6.573   3.653  0.1898 -0.4303 -1.6206
  163SAPE  H14Y18296   4.350   6.404   3.669 -0.3886  0.5143  0.3911
  163SAPE  C31518297   4.165   6.468   3.775  0.3795 -0.0812 -0.1532
  163SAPE  H15X18298   4.096   6.383   3.759 -2.2638  1.7994  0.8120
  163SAPE  H15Y18299   4.090   6.550   3.776 -0.8373 -1.1930  1.6793
  163SAPE  C31618300   4.232   6.448   3.913 -0.5306 -0.0547 -0.4035
  163SAPE  H16X18301   4.303   6.531   3.934  0.7059 -1.1019 -0.3996
  163SAPE  H16Y18302   4.286   6.351   3.907  0.0982  0.2219  0.7016
  163SAPE  C31718303   4.131   6.466   4.030 -0.6649  0.0891 -0.8271
  163SAPE  H17X18304   4.044   6.401   4.003 -2.5721  2.4673 -0.5707
  163SAPE  H17Y18305   4.095   6.570   4.042 -2.3295 -0.3419 -1.8299
  163SAPE  C31818306   4.183   6.397   4.157 -0.0728 -0.9296 -0.4825
  163SAPE  H18X18307   4.199   6.287   4.161  0.1555 -0.8684  0.2870
  163SAPE  H18Y18308   4.107   6.427   4.233  1.7316  0.2534  0.8902
  163SAPE  H18Z18309   4.273   6.444   4.202  0.5964 -2.3305 -0.3334
  164SAPE     N18310   6.156   5.024   2.107  0.4133  0.3637 -0.0062
  164SAPE   HN118311   6.173   4.926   2.135  1.3780 -0.2691 -2.6340
  164SAPE   HN218312   6.097   5.062   2.184 -0.1742  3.0387 -1.7156
  164SAPE   HN318313   6.100   5.025   2.019  0.9571  0.8290 -0.3473
  164SAPE   C1218314   6.288   5.099   2.105  0.8257 -0.8585  0.5388
  164SAPE  H12A18315   6.272   5.208   2.087  0.9643 -0.6021  1.9700
  164SAPE  H12B18316   6.350   5.063   2.020 -0.2116  1.2509 -1.1709
  164SAPE   C1118317   6.353   5.088   2.237  0.0789  0.4969 -0.5256
  164SAPE  H11A18318   6.360   4.979   2.259 -0.8398  1.0677  2.9345
  164SAPE  H11B18319   6.291   5.133   2.317  0.1004  0.2920 -0.3917
  164SAPE     P18320   6.552   5.227   2.345 -0.4335  0.2201 -0.3514
  164SAPE   O1318321   6.594   5.133   2.446  0.3135  0.4918 -0.2310
  164SAPE   O1418322   6.637   5.336   2.295  0.0825  0.2464  0.2211
  164SAPE   O1218323   6.479   5.142   2.227  0.8467 -0.2880 -0.3740
  164SAPE   O1118324   6.423   5.296   2.407 -0.0893 -0.5434  0.3619
  164SAPE    C118325   6.396   5.269   2.548  0.2149  0.5700  0.5240
  164SAPE    HA18326   6.370   5.161   2.560  2.0292 -0.2854 -2.6921
  164SAPE    HB18327   6.484   5.296   2.611  0.9362 -2.7957  1.0804
  164SAPE    C218328   6.284   5.361   2.594 -0.2313 -0.4685 -0.6839
  164SAPE    HS18329   6.320   5.465   2.580 -0.6989 -0.1204  0.5848
  164SAPE   O2118330   6.257   5.336   2.732 -0.2381  0.7882 -0.6438
  164SAPE   C2118331   6.185   5.424   2.790 -0.3305 -0.7091 -0.4732
  164SAPE   O2218332   6.149   5.527   2.730 -0.1208  0.2869 -0.4910
  164SAPE   C2218333   6.154   5.383   2.937  0.2789  0.3313 -0.0684
  164SAPE   H2R18334   6.061   5.324   2.929  0.3054 -0.0478  2.1112
  164SAPE   H2S18335   6.231   5.311   2.974  2.3822  1.9261 -1.1779
  164SAPE    C318336   6.168   5.325   2.497 -0.1017 -0.8381 -0.2795
  164SAPE    HX18337   6.210   5.348   2.397  0.4757 -0.2462  0.0959
  164SAPE    HY18338   6.078   5.389   2.510  1.3854  1.1740  0.1254
  164SAPE   O3118339   6.149   5.179   2.496  0.1097 -0.1060  0.0133
  164SAPE   C3118340   6.050   5.137   2.581  0.2423 -0.2398  0.0023
  164SAPE   O3218341   5.983   5.211   2.649 -0.1980 -0.1060 -0.1644
  164SAPE   C3218342   6.062   4.991   2.595  0.2083  1.0968 -0.4143
  164SAPE   H2X18343   6.105   4.953   2.500  0.6450 -0.2434  0.3107
  164SAPE   H2Y18344   5.959   4.950   2.607  1.6213 -2.5442  0.0085
  164SAPE   C2318345   6.148   5.504   3.035  0.0641  0.4022  0.6264
  164SAPE   H3R18346   6.072   5.569   2.985  0.6447 -1.6817 -3.1393
  164SAPE   H3S18347   6.249   5.546   3.048  0.0873  0.3040  0.7655
  164SAPE   C2418348   6.095   5.463   3.175  0.0791  0.6943 -0.1807
  164SAPE   H4R18349   5.995   5.416   3.164  0.7177 -1.4052  2.5625
  164SAPE   H4S18350   6.091   5.549   3.244 -0.2203 -0.2784  1.0235
  164SAPE   C2518351   6.192   5.364   3.234 -0.3989  0.5156 -0.0604
  164SAPE   H5R18352   6.202   5.264   3.190  3.0834 -0.3196  2.4148
  164SAPE   C2618353   6.290   5.392   3.325 -0.4179 -0.4424 -0.1537
  164SAPE   H6R18354   6.342   5.303   3.364 -0.0827 -0.1702  0.0239
  164SAPE   C2718355   6.338   5.525   3.379  0.0196  0.7041 -0.1062
  164SAPE   H7R18356   6.346   5.515   3.489 -0.9161  0.2331 -0.0759
  164SAPE   H7S18357   6.252   5.589   3.351 -0.2616 -0.0110 -0.8960
  164SAPE   C2818358   6.468   5.575   3.316 -0.6595  0.1027 -0.2743
  164SAPE   H8R18359   6.464   5.572   3.207  1.2712  2.0050 -0.4446
  164SAPE   C2918360   6.578   5.608   3.378  0.3314  0.3117 -0.8694
  164SAPE   H9R18361   6.670   5.620   3.320  1.3701  3.1229  1.2869
  164SAPE  C21018362   6.599   5.611   3.536  0.3910 -0.2009  0.3084
  164SAPE  H10R18363   6.698   5.565   3.558 -0.4013 -2.1687 -0.0778
  164SAPE  H10S18364   6.529   5.539   3.584 -1.2817  0.7560 -0.6413
  164SAPE  C21118365   6.581   5.760   3.563  0.3345  1.4599  0.3330
  164SAPE  H11R18366   6.609   5.833   3.484 -0.7565  0.8108 -0.6716
  164SAPE  C21218367   6.534   5.806   3.682  0.8076 -0.2334  0.3569
  164SAPE  H12R18368   6.524   5.914   3.696  1.4086 -0.2323  0.7843
  164SAPE  C21318369   6.502   5.717   3.801  0.0170  0.1817  0.3645
  164SAPE  H13R18370   6.538   5.762   3.897  1.6559  2.0460 -1.0779
  164SAPE  H13S18371   6.570   5.630   3.800  1.5516  1.2834  2.3439
  164SAPE  C21418372   6.353   5.672   3.813  0.3218 -0.0590 -0.0369
  164SAPE  H14R18373   6.300   5.674   3.717  2.6297 -1.3058 -1.3835
  164SAPE  C21518374   6.294   5.633   3.926  0.5480 -0.1615 -0.6662
  164SAPE  H15R18375   6.191   5.594   3.916  0.7856 -1.0904  0.3625
  164SAPE  C21618376   6.357   5.622   4.064 -0.1791 -0.2832  0.0791
  164SAPE  H16R18377   6.462   5.658   4.068  0.7163 -2.7237 -0.9416
  164SAPE  H16S18378   6.359   5.515   4.093 -0.3034 -0.1383  0.6306
  164SAPE  C21718379   6.264   5.696   4.162 -0.3247 -0.0670  0.5201
  164SAPE  H17R18380   6.162   5.676   4.125 -0.7219  0.4351  1.3197
  164SAPE  H17S18381   6.285   5.805   4.159 -0.6789 -0.0151 -0.0559
  164SAPE  C21818382   6.276   5.655   4.309 -0.3686  0.0371 -0.2099
  164SAPE  H18R18383   6.378   5.624   4.337  0.4183  1.1624 -1.7156
  164SAPE  H18S18384   6.216   5.562   4.311 -1.4105  0.6963  0.1094
  164SAPE  C21918385   6.218   5.756   4.415  0.2682  0.0155 -0.4860
  164SAPE  H19R18386   6.201   5.700   4.509 -2.8010  2.2814  0.3622
  164SAPE  H19S18387   6.120   5.788   4.374 -1.0208 -0.1157  2.4126
  164SAPE  C22018388   6.285   5.886   4.453 -0.0244  0.1950 -0.0747
  164SAPE  H20R18389   6.343   5.942   4.377 -1.0861 -0.1261 -1.1424
  164SAPE  H20S18390   6.360   5.857   4.530 -0.9922 -2.1075  0.0482
  164SAPE  H20T18391   6.203   5.952   4.491 -2.2521 -2.1592 -0.6500
  164SAPE   C3318392   6.155   4.949   2.710 -0.3806 -0.2785  0.0946
  164SAPE   H3X18393   6.249   5.007   2.695  0.0467 -1.2507 -1.0535
  164SAPE   H3Y18394   6.180   4.841   2.709  2.5166  0.3519 -0.3305
  164SAPE   C3418395   6.124   4.980   2.860 -0.0761 -0.1562  0.0841
  164SAPE   H4X18396   6.028   4.938   2.898 -0.4319  0.2058 -0.4055
  164SAPE   H4Y18397   6.136   5.090   2.863  0.1358 -0.1113 -1.9595
  164SAPE   C3518398   6.232   4.932   2.958 -0.3368 -0.2763 -0.5130
  164SAPE   H5X18399   6.322   4.972   2.907 -0.6609  1.6362  0.3829
  164SAPE   H5Y18400   6.242   4.823   2.976  1.9863  0.4291  2.6709
  164SAPE   C3618401   6.224   4.991   3.099  0.0166 -0.3853 -0.2425
  164SAPE   H6X18402   6.132   4.962   3.155 -1.1769  1.3716 -1.2512
  164SAPE   H6Y18403   6.219   5.101   3.091  0.4965 -0.3106  0.4901
  164SAPE   C3718404   6.337   4.955   3.185 -0.1162 -0.3017 -0.2448
  164SAPE   H7X18405   6.364   4.847   3.186  1.2164 -0.0006 -2.0155
  164SAPE   H7Y18406   6.328   4.986   3.291 -2.0290 -1.0500 -0.1666
  164SAPE   C3818407   6.466   5.022   3.136  0.2513  0.2189 -0.5492
  164SAPE   H8X18408   6.466   5.133   3.127  1.0379  0.1921 -0.9297
  164SAPE   H8Y18409   6.491   4.976   3.038 -0.3919  0.2385 -0.7227
  164SAPE   C3918410   6.593   4.995   3.224 -0.5931  0.1799  0.0341
  164SAPE   H9X18411   6.601   4.884   3.227  1.1255  0.3058  0.8422
  164SAPE   H9Y18412   6.563   5.032   3.324  4.7123  0.2674  1.7777
  164SAPE  C31018413   6.730   5.056   3.191 -1.0773 -0.9985  0.2940
  164SAPE  H10X18414   6.722   5.166   3.200  0.7900 -0.8724  0.5770
  164SAPE  H10Y18415   6.767   5.027   3.090 -0.3463  2.1895 -0.3950
  164SAPE  C31118416   6.843   5.003   3.284 -0.1953 -0.5714  0.0410
  164SAPE  H11X18417   6.939   5.048   3.252  1.0176 -2.3543  1.0540
  164SAPE  H11Y18418   6.847   4.892   3.285  3.0448 -0.4834  0.7760
  164SAPE  C31218419   6.806   5.022   3.434  0.1890 -0.8239 -0.3874
  164SAPE  H12X18420   6.714   4.962   3.451 -0.9886  0.5386 -1.7754
  164SAPE  H12Y18421   6.785   5.131   3.438 -1.5473 -1.1812  0.8581
  164SAPE  C31318422   6.920   5.002   3.531 -0.0020  0.1603 -0.0999
  164SAPE  H13X18423   6.975   4.910   3.502  2.2203  0.7558  2.0963
  164SAPE  H13Y18424   6.873   4.978   3.628 -2.6164  0.1039 -1.3377
  164SAPE  C31418425   7.030   5.106   3.537  0.2790  0.5723  0.4609
  164SAPE  H14X18426   7.036   5.150   3.435 -1.8322  0.2133  0.1460
  164SAPE  H14Y18427   7.129   5.070   3.572  0.8484  0.7318 -0.9601
  164SAPE  C31518428   6.994   5.227   3.628 -0.3969 -0.1467  0.3056
  164SAPE  H15X18429   6.947   5.192   3.723  0.3471 -0.4828  0.5509
  164SAPE  H15Y18430   6.918   5.280   3.567  0.2729 -0.0516 -0.4624
  164SAPE  C31618431   7.126   5.315   3.661 -0.2592  0.6138  0.3352
  164SAPE  H16X18432   7.188   5.270   3.741 -1.6572 -1.7074  0.1804
  164SAPE  H16Y18433   7.087   5.412   3.697  0.4957  0.8055  0.6350
  164SAPE  C31718434   7.234   5.334   3.549 -0.1865 -0.3203 -0.1914
  164SAPE  H17X18435   7.181   5.387   3.467  1.4635  0.4096 -0.7952
  164SAPE  H17Y18436   7.266   5.235   3.509  1.8590  0.5465 -0.7719
  164SAPE  C31818437   7.349   5.425   3.592  0.6327 -0.3508  0.0435
  164SAPE  H18X18438   7.400   5.480   3.510  0.5524 -0.2074  0.0885
  164SAPE  H18Y18439   7.420   5.376   3.662  1.0832  0.5449  0.2309
  164SAPE  H18Z18440   7.307   5.504   3.659  0.1212  0.5478 -1.3134
  165SAPE     N18441   2.997   6.548   2.408  0.2514  0.8021  0.0495
  165SAPE   HN118442   2.966   6.533   2.310 -0.2970 -0.9655  0.4652
  165SAPE   HN218443   3.059   6.631   2.411 -1.4428  2.0479  1.4837
  165SAPE   HN318444   3.045   6.464   2.445  1.3275  1.4629  0.1588
  165SAPE   C1218445   2.889   6.596   2.501  0.5443  0.0210  0.1067
  165SAPE  H12A18446   2.924   6.601   2.606  0.4998 -0.0456  0.1245
  165SAPE  H12B18447   2.814   6.514   2.489  0.8765 -0.1711 -0.7310
  165SAPE   C1118448   2.811   6.720   2.444 -0.4941  0.3018  0.2822
  165SAPE  H11A18449   2.861   6.818   2.457 -0.8597  0.4768  0.3912
  165SAPE  H11B18450   2.724   6.728   2.512  0.8654  0.9097  1.9710
  165SAPE     P18451   2.858   6.751   2.177 -0.0278  0.2314  0.6106
  165SAPE   O1318452   2.967   6.652   2.151 -0.4565 -0.3376 -0.0922
  165SAPE   O1418453   2.755   6.757   2.075  0.6089 -0.9953 -0.0531
  165SAPE   O1218454   2.780   6.702   2.306  0.4876 -0.4071 -0.0361
  165SAPE   O1118455   2.915   6.897   2.216  0.3920 -0.4443 -0.6760
  165SAPE    C118456   3.031   6.946   2.145  0.4283 -0.4562  0.0946
  165SAPE    HA18457   3.027   6.917   2.038 -0.4643  1.2213 -0.3542
  165SAPE    HB18458   3.034   7.057   2.152  0.5961 -0.4931  0.5896
  165SAPE    C218459   3.170   6.905   2.208 -0.6675 -0.1075  0.2071
  165SAPE    HS18460   3.172   6.794   2.215  0.9672 -0.0408  0.8722
  165SAPE   O2118461   3.184   6.967   2.333  0.5340  0.3157 -0.0119
  165SAPE   C2118462   3.142   6.904   2.439  0.3805  0.3530  0.1886
  165SAPE   O2218463   3.123   6.784   2.449  1.1575 -0.3608  0.4554
  165SAPE   C2218464   3.109   7.008   2.551  0.9490 -0.1327  0.5902
  165SAPE   H2R18465   3.204   7.062   2.570  3.2617 -4.0048  0.6296
  165SAPE   H2S18466   3.027   7.072   2.514  1.5072 -0.8406 -1.9396
  165SAPE    C318467   3.291   6.940   2.119  0.3218  0.4492 -0.0694
  165SAPE    HX18468   3.286   6.885   2.023  1.1131 -1.5483  1.0117
  165SAPE    HY18469   3.380   6.901   2.173  2.1379  4.6471  0.1554
  165SAPE   O3118470   3.287   7.084   2.094 -0.2058  0.3578 -0.5546
  165SAPE   C3118471   3.409   7.142   2.118 -0.8999 -0.9291  0.9071
  165SAPE   O3218472   3.514   7.085   2.116  0.2925 -0.6786  0.1608
  165SAPE   C3218473   3.392   7.297   2.134 -0.6099 -0.1543  0.4330
  165SAPE   H2X18474   3.316   7.312   2.213 -1.5044  0.8638 -0.5973
  165SAPE   H2Y18475   3.356   7.335   2.036  1.0608  1.1796  0.3267
  165SAPE   C2318476   3.051   6.948   2.680  0.2502 -0.6577 -0.8090
  165SAPE   H3R18477   3.144   6.911   2.729  0.9249  0.9542 -0.8220
  165SAPE   H3S18478   2.995   6.859   2.644 -0.1313 -1.3024  1.2963
  165SAPE   C2418479   2.951   7.040   2.751  0.2696  0.1728 -0.2160
  165SAPE   H4R18480   2.900   6.987   2.834 -3.1336  4.1199  0.4126
  165SAPE   H4S18481   2.867   7.068   2.684  1.2621  2.8194 -0.4218
  165SAPE   C2518482   3.010   7.170   2.799  0.0840 -0.0431 -0.8798
  165SAPE   H5R18483   3.064   7.221   2.718  2.6806 -1.2690  0.0127
  165SAPE   C2618484   3.028   7.206   2.928 -0.6148  0.1056 -0.0518
  165SAPE   H6R18485   3.088   7.292   2.958 -1.3192  0.0301  1.5881
  165SAPE   C2718486   2.995   7.123   3.047 -0.2840 -0.0794 -0.2057
  165SAPE   H7R18487   3.071   7.042   3.054  0.3853  0.6409  1.1397
  165SAPE   H7S18488   2.896   7.078   3.026 -0.2631  0.6783 -1.9944
  165SAPE   C2818489   2.991   7.193   3.182  0.0284 -0.1359  0.7022
  165SAPE   H8R18490   2.977   7.302   3.184 -0.6597 -0.2271  0.7161
  165SAPE   C2918491   2.977   7.125   3.298 -0.2024 -0.5925  0.4683
  165SAPE   H9R18492   2.993   7.173   3.396 -0.4260 -0.6657  0.5417
  165SAPE  C21018493   2.967   6.973   3.314  0.3213  0.3616  0.0471
  165SAPE  H10R18494   3.063   6.933   3.353  0.4400  0.8938  0.3017
  165SAPE  H10S18495   2.957   6.923   3.215 -0.8225  4.5516 -2.0534
  165SAPE  C21118496   2.860   6.938   3.412  0.6384 -0.2894  0.4694
  165SAPE  H11R18497   2.758   6.969   3.383  0.3633 -2.0716 -0.5131
  165SAPE  C21218498   2.876   6.872   3.528  0.0237 -0.5886  0.5945
  165SAPE  H12R18499   2.785   6.870   3.591 -0.0919 -3.9934  0.3839
  165SAPE  C21318500   3.006   6.816   3.590  0.2274  0.6946  1.4495
  165SAPE  H13R18501   3.070   6.781   3.507 -1.5878  0.4762  0.1081
  165SAPE  H13S18502   2.978   6.729   3.654  2.9421 -0.9328  0.5106
  165SAPE  C21418503   3.077   6.911   3.682  0.4320  0.3420  0.5611
  165SAPE  H14R18504   3.020   7.005   3.688  0.7142  0.4933  0.8667
  165SAPE  C21518505   3.200   6.889   3.739  0.4389 -0.5982  0.1843
  165SAPE  H15R18506   3.253   6.969   3.792  3.2285 -3.4134  1.8173
  165SAPE  C21618507   3.277   6.766   3.722  0.4208 -0.2361 -0.9362
  165SAPE  H16R18508   3.210   6.680   3.700  1.2381 -0.6510 -1.8551
  165SAPE  H16S18509   3.314   6.740   3.823  0.4799  0.3564 -0.8002
  165SAPE  C21718510   3.386   6.768   3.616 -0.6893 -0.3208  0.6398
  165SAPE  H17R18511   3.444   6.862   3.625 -1.3932  0.3582 -1.6138
  165SAPE  H17S18512   3.336   6.776   3.517  1.7342  2.7704 -0.3924
  165SAPE  C21818513   3.489   6.652   3.624 -0.6686 -0.2584  0.3642
  165SAPE  H18R18514   3.579   6.668   3.560 -0.6129 -0.4605  0.3941
  165SAPE  H18S18515   3.445   6.555   3.593 -0.2486 -0.5170  0.5770
  165SAPE  C21918516   3.562   6.628   3.756  0.2196  0.3506 -0.0458
  165SAPE  H19R18517   3.641   6.551   3.747  0.6422  0.9437 -1.5096
  165SAPE  H19S18518   3.491   6.595   3.835  1.0901 -1.8441 -0.1623
  165SAPE  C22018519   3.640   6.756   3.812 -0.0995 -0.0305 -1.1079
  165SAPE  H20R18520   3.706   6.792   3.730  0.9746 -2.6936 -1.4732
  165SAPE  H20S18521   3.700   6.715   3.896 -1.2157  1.3346  0.3875
  165SAPE  H20T18522   3.572   6.834   3.853  0.5139 -0.3319  0.4846
  165SAPE   C3318523   3.519   7.384   2.171  0.1832  0.4226 -0.2257
  165SAPE   H3X18524   3.488   7.489   2.152 -0.7466  0.2072  0.0854
  165SAPE   H3Y18525   3.604   7.351   2.107 -2.1984 -2.3295 -2.0565
  165SAPE   C3418526   3.556   7.373   2.325  0.5282 -0.5464  0.6486
  165SAPE   H4X18527   3.652   7.424   2.348 -0.0445  0.7812  0.1027
  165SAPE   H4Y18528   3.571   7.265   2.345 -0.5591 -1.4220 -3.0060
  165SAPE   C3518529   3.461   7.442   2.421  0.4230 -0.0699 -0.5114
  165SAPE   H5X18530   3.359   7.398   2.409  0.3690  0.2995 -1.5027
  165SAPE   H5Y18531   3.447   7.551   2.405  1.4028 -0.0464 -1.2938
  165SAPE   C3618532   3.503   7.409   2.563 -0.0740  0.2399  0.2459
  165SAPE   H6X18533   3.605   7.442   2.591  0.4261  0.0974 -1.3631
  165SAPE   H6Y18534   3.504   7.299   2.581 -0.4265  0.8665  4.6121
  165SAPE   C3718535   3.411   7.484   2.668  0.0522 -0.1486  0.6975
  165SAPE   H7X18536   3.309   7.461   2.632  0.4306  0.0987 -0.5680
  165SAPE   H7Y18537   3.427   7.594   2.658 -2.8460  0.3541  1.2159
  165SAPE   C3818538   3.438   7.452   2.811 -0.5750 -0.2075  0.1189
  165SAPE   H8X18539   3.389   7.524   2.880 -0.3337 -0.0201  0.0938
  165SAPE   H8Y18540   3.548   7.443   2.825 -0.6984  0.0771  1.3349
  165SAPE   C3918541   3.378   7.303   2.832 -0.5753 -0.1025  1.1135
  165SAPE   H9X18542   3.446   7.231   2.782 -1.6500  0.5281 -1.3193
  165SAPE   H9Y18543   3.279   7.296   2.781  1.0915  0.1035 -2.2888
  165SAPE  C31018544   3.361   7.265   2.983  0.1040  0.1510  0.1676
  165SAPE  H10X18545   3.305   7.169   2.987  0.9426 -0.3247  0.5376
  165SAPE  H10Y18546   3.303   7.340   3.041  0.6557  0.4335  0.3576
  165SAPE  C31118547   3.492   7.233   3.064 -0.1495 -0.1588 -0.4285
  165SAPE  H11X18548   3.581   7.299   3.057  0.0906 -0.4712 -0.3423
  165SAPE  H11Y18549   3.529   7.136   3.024 -2.2335 -0.4594 -1.6908
  165SAPE  C31218550   3.467   7.222   3.215  0.0411 -0.1945 -0.4034
  165SAPE  H12X18551   3.441   7.325   3.247  0.1989  0.4178 -2.2049
  165SAPE  H12Y18552   3.558   7.195   3.273  0.5662  1.0356 -0.6447
  165SAPE  C31318553   3.355   7.139   3.263  0.0070  0.0019 -0.3477
  165SAPE  H13X18554   3.357   7.038   3.216 -0.2102 -1.3338  2.3853
  165SAPE  H13Y18555   3.260   7.189   3.236 -2.3723 -2.4512  2.9744
  165SAPE  C31418556   3.352   7.112   3.417  0.3987 -0.4308 -0.4131
  165SAPE  H14X18557   3.446   7.066   3.452  0.8594  0.3511 -0.6027
  165SAPE  H14Y18558   3.281   7.033   3.448  0.7808 -1.0875 -1.1977
  165SAPE  C31518559   3.330   7.253   3.488 -0.2884 -0.1411 -0.6078
  165SAPE  H15X18560   3.226   7.287   3.473 -1.4272 -2.2879  1.8473
  165SAPE  H15Y18561   3.410   7.319   3.448  1.7246 -2.0838  0.0570
  165SAPE  C31618562   3.345   7.260   3.644 -0.1980 -0.1645  0.3965
  165SAPE  H16X18563   3.438   7.208   3.675 -0.3657 -0.1233  0.9639
  165SAPE  H16Y18564   3.253   7.223   3.694 -0.7781 -0.0278 -0.5426
  165SAPE  C31718565   3.365   7.408   3.691 -0.0811  0.1479  0.2072
  165SAPE  H17X18566   3.276   7.474   3.684 -0.9050 -0.8046  1.4992
  165SAPE  H17Y18567   3.451   7.442   3.630  2.1333 -1.4720  2.3638
  165SAPE  C31818568   3.410   7.411   3.835  0.0592 -0.1614 -0.2284
  165SAPE  H18X18569   3.511   7.365   3.836  0.2520  0.2665  0.3976
  165SAPE  H18Y18570   3.339   7.359   3.903  0.0590  1.1614  0.8146
  165SAPE  H18Z18571   3.426   7.514   3.875  1.6027  0.2729 -1.9366
  166SAPE     N18572   5.292   0.858   2.140  0.1326  0.2617 -0.4781
  166SAPE   HN118573   5.211   0.923   2.151  1.5569  2.2252 -1.1283
  166SAPE   HN218574   5.353   0.916   2.079 -0.9751 -0.0074 -1.8553
  166SAPE   HN318575   5.268   0.771   2.089  1.6349 -1.4423  1.6211
  166SAPE   C1218576   5.338   0.825   2.283  0.3252 -0.3479  0.7074
  166SAPE  H12A18577   5.318   0.916   2.343  1.3113 -0.9675  2.0001
  166SAPE  H12B18578   5.441   0.784   2.277  0.2391 -0.4464 -0.1968
  166SAPE   C1118579   5.252   0.709   2.342  0.0296 -0.1847 -1.1732
  166SAPE  H11A18580   5.148   0.735   2.367  1.1862  0.9218  2.7851
  166SAPE  H11B18581   5.305   0.679   2.435 -1.6448  0.6643  0.0751
  166SAPE     P18582   5.142   0.567   2.140 -0.3219  0.1455 -0.2606
  166SAPE   O1318583   5.159   0.658   2.024 -0.5510 -0.0180  0.5482
  166SAPE   O1418584   5.143   0.422   2.111  0.1899  0.3144 -0.3957
  166SAPE   O1218585   5.248   0.602   2.251 -0.3866 -0.0651  0.3569
  166SAPE   O1118586   5.001   0.605   2.217 -0.7091  0.3247 -0.3242
  166SAPE    C118587   4.932   0.511   2.297 -0.2323  0.3855  0.0639
  166SAPE    HA18588   4.915   0.422   2.233  0.5875  0.8858 -0.8587
  166SAPE    HB18589   4.988   0.481   2.388 -1.4301  0.3927  0.8193
  166SAPE    C218590   4.794   0.558   2.344  0.3037  0.6126  1.0643
  166SAPE    HS18591   4.729   0.569   2.254  0.5224  0.7790  0.9252
  166SAPE   O2118592   4.809   0.681   2.413  0.6676  0.3585 -0.3440
  166SAPE   C2118593   4.799   0.797   2.347  0.4119  0.2439 -0.4309
  166SAPE   O2218594   4.764   0.810   2.228  0.5352  0.2720 -1.0819
  166SAPE   C2218595   4.831   0.918   2.440  0.2807  0.0987 -0.1786
  166SAPE   H2R18596   4.929   0.955   2.402  0.0601  1.4865  0.5556
  166SAPE   H2S18597   4.759   1.002   2.429 -0.0113 -0.2143 -0.6472
  166SAPE    C318598   4.727   0.451   2.434  0.6715 -0.0751  0.0728
  166SAPE    HX18599   4.687   0.374   2.365 -0.8966 -1.0696  2.0253
  166SAPE    HY18600   4.640   0.495   2.488  1.1060  1.2568 -0.3033
  166SAPE   O3118601   4.823   0.391   2.524 -0.2198  0.1232  0.0089
  166SAPE   C3118602   4.767   0.291   2.592  0.3239 -0.2730  0.3081
  166SAPE   O3218603   4.655   0.249   2.575  0.1908  0.1468 -0.5911
  166SAPE   C3218604   4.860   0.227   2.696  0.3908  0.5151 -0.0630
  166SAPE   H2X18605   4.816   0.128   2.720 -0.5552  1.2952  1.4400
  166SAPE   H2Y18606   4.863   0.295   2.783 -2.5075  0.4168  0.1637
  166SAPE   C2318607   4.846   0.882   2.592 -0.5919  0.7552  0.3975
  166SAPE   H3R18608   4.890   0.780   2.600 -0.4278  0.9758  2.7776
  166SAPE   H3S18609   4.747   0.888   2.642 -0.4135 -1.6433  1.0801
  166SAPE   C2418610   4.932   0.988   2.668 -0.4493 -0.6290 -0.1365
  166SAPE   H4R18611   4.913   0.974   2.777  0.3354  2.9058  0.5150
  166SAPE   H4S18612   4.894   1.089   2.646 -0.1660 -0.3926  0.4464
  166SAPE   C2518613   5.081   0.976   2.634 -0.2336  0.2610 -0.0221
  166SAPE   H5R18614   5.109   1.047   2.555 -0.4779  1.4864  0.9695
  166SAPE   C2618615   5.180   0.899   2.693 -0.5800 -0.5122 -0.6915
  166SAPE   H6R18616   5.284   0.914   2.661 -0.1781  0.7776  1.1042
  166SAPE   C2718617   5.168   0.806   2.810 -0.5518  0.1539 -0.9841
  166SAPE   H7R18618   5.096   0.838   2.888  2.0183 -0.7698  1.8367
  166SAPE   H7S18619   5.268   0.796   2.858  0.3303  4.1531 -1.7749
  166SAPE   C2818620   5.127   0.663   2.766  0.3120 -0.3379 -0.1406
  166SAPE   H8R18621   5.139   0.644   2.659 -0.3518 -0.8706 -0.1234
  166SAPE   C2918622   5.059   0.571   2.836 -0.3606  0.0821  0.5096
  166SAPE   H9R18623   5.026   0.484   2.777  0.3833  1.4350 -1.9795
  166SAPE  C21018624   5.006   0.588   2.979 -0.7579  0.1354 -0.3726
  166SAPE  H10R18625   5.071   0.657   3.037 -1.6642 -0.3478  1.2523
  166SAPE  H10S18626   5.009   0.490   3.030  2.6876  0.6609  0.5771
  166SAPE  C21118627   4.869   0.653   2.979 -0.0841 -0.3415 -0.1383
  166SAPE  H11R18628   4.853   0.717   2.890 -0.2697  0.9905  0.8394
  166SAPE  C21218629   4.784   0.656   3.089  0.1003  0.5023 -0.5482
  166SAPE  H12R18630   4.692   0.712   3.068 -0.6587  0.2082  1.8636
  166SAPE  C21318631   4.820   0.595   3.229 -0.1842 -1.1376  0.9953
  166SAPE  H13R18632   4.908   0.650   3.269  0.9243 -2.6284  0.6771
  166SAPE  H13S18633   4.865   0.493   3.225  2.2561  0.0087 -2.0096
  166SAPE  C21418634   4.700   0.597   3.323 -0.2686 -0.1899 -0.3062
  166SAPE  H14R18635   4.643   0.691   3.330 -0.2630 -0.1974 -0.1535
  166SAPE  C21518636   4.663   0.497   3.400  0.4118 -0.7843 -1.4686
  166SAPE  H15R18637   4.586   0.516   3.476  2.2283  1.4893 -0.1231
  166SAPE  C21618638   4.733   0.357   3.414 -0.3526 -0.1159  0.5653
  166SAPE  H16R18639   4.722   0.317   3.517 -1.4528 -1.0073  0.1036
  166SAPE  H16S18640   4.841   0.353   3.386 -0.7407  0.9532 -1.2134
  166SAPE  C21718641   4.677   0.259   3.316  0.4935  0.8330  0.3388
  166SAPE  H17R18642   4.692   0.284   3.209  1.1479  0.5888  0.3726
  166SAPE  H17S18643   4.567   0.256   3.334  0.2815 -1.0100 -1.1480
  166SAPE  C21818644   4.737   0.114   3.338 -0.0303  0.8323 -0.5699
  166SAPE  H18R18645   4.673   0.052   3.271 -0.8304  0.4086  0.5759
  166SAPE  H18S18646   4.722   0.079   3.442  1.3429  0.3095 -0.5309
  166SAPE  C21918647   4.881   0.081   3.302 -0.2527  0.8103 -0.3131
  166SAPE  H19R18648   4.906  -0.025   3.323 -0.3972  0.6809 -0.7978
  166SAPE  H19S18649   4.939   0.143   3.374  2.4966  0.6295 -2.3097
  166SAPE  C22018650   4.931   0.108   3.164  0.0584  0.0323 -0.0701
  166SAPE  H20R18651   4.876   0.051   3.086 -0.9728  1.1520 -0.1690
  166SAPE  H20S18652   5.037   0.076   3.155  0.3715  0.1477  2.7828
  166SAPE  H20T18653   4.934   0.218   3.145  0.0700 -0.1476 -1.1722
  166SAPE   C3318654   5.013   0.206   2.670  0.4137  0.2362 -0.0244
  166SAPE   H3X18655   5.071   0.301   2.676 -1.8511  1.5044  3.2973
  166SAPE   H3Y18656   5.043   0.168   2.570  2.6544 -3.0903  1.8402
  166SAPE   C3418657   5.073   0.096   2.764 -0.0222  0.3066  0.0421
  166SAPE   H4X18658   5.031   0.001   2.727  0.5605 -1.1063  2.8884
  166SAPE   H4Y18659   5.042   0.103   2.870 -2.2367 -1.2511 -0.4792
  166SAPE   C3518660   5.226   0.095   2.757  0.5562 -0.7835  0.1141
  166SAPE   H5X18661   5.265   0.082   2.654  0.5453  2.6728 -0.3580
  166SAPE   H5Y18662   5.268   0.016   2.824 -1.8625 -1.1257  1.2832
  166SAPE   C3618663   5.305   0.224   2.810  0.4584 -1.1112  0.4384
  166SAPE   H6X18664   5.289   0.286   2.719 -2.1313  0.0376  1.6134
  166SAPE   H6Y18665   5.414   0.212   2.823  0.4729 -2.6783 -0.9727
  166SAPE   C3718666   5.247   0.309   2.926 -0.7397 -0.6425 -0.0714
  166SAPE   H7X18667   5.136   0.307   2.923 -0.8006 -0.7823  1.8682
  166SAPE   H7Y18668   5.273   0.416   2.915  1.4119 -1.2926 -1.5268
  166SAPE   C3818669   5.290   0.256   3.066 -0.3178 -0.0756 -0.2772
  166SAPE   H8X18670   5.395   0.256   3.102 -1.4520 -0.0314  3.1859
  166SAPE   H8Y18671   5.264   0.148   3.069 -1.2027  0.1231 -0.4403
  166SAPE   C3918672   5.222   0.342   3.174 -0.1616  0.1896 -1.0023
  166SAPE   H9X18673   5.118   0.365   3.143  0.4489  0.3626 -2.9525
  166SAPE   H9Y18674   5.271   0.442   3.175  0.8964 -0.3082  1.6244
  166SAPE  C31018675   5.236   0.283   3.314 -0.0418 -0.2403  0.1365
  166SAPE  H10X18676   5.344   0.285   3.340  0.2595  2.7278 -1.1450
  166SAPE  H10Y18677   5.191   0.184   3.294 -3.1712  0.9754  0.8992
  166SAPE  C31118678   5.163   0.363   3.421  0.0363  0.2282  0.5129
  166SAPE  H11X18679   5.056   0.367   3.390  0.4921 -1.0940 -1.3398
  166SAPE  H11Y18680   5.199   0.468   3.413 -2.0272  1.0562  1.6737
  166SAPE  C31218681   5.195   0.329   3.566 -0.9239 -0.2589 -0.2991
  166SAPE  H12X18682   5.300   0.346   3.596 -1.0778 -0.8302  0.5661
  166SAPE  H12Y18683   5.161   0.223   3.567 -2.0629  0.1013  1.5027
  166SAPE  C31318684   5.099   0.402   3.657  0.0299  0.4087 -0.3741
  166SAPE  H13X18685   4.993   0.399   3.624  0.0347 -0.5078 -0.3050
  166SAPE  H13Y18686   5.124   0.510   3.655  1.3446  0.1268 -0.0268
  166SAPE  C31418687   5.127   0.360   3.799 -0.1500 -0.3861  0.1202
  166SAPE  H14X18688   5.226   0.388   3.840 -0.6256 -0.2718  1.2055
  166SAPE  H14Y18689   5.102   0.254   3.822 -0.9271 -0.2163  0.0574
  166SAPE  C31518690   5.030   0.426   3.900 -0.0052 -0.3233  0.7628
  166SAPE  H15X18691   4.928   0.389   3.881  0.8861 -1.1574 -2.7495
  166SAPE  H15Y18692   5.036   0.537   3.896 -0.5282 -0.3042  0.5800
  166SAPE  C31618693   5.065   0.384   4.048 -0.5760  0.1649  0.0901
  166SAPE  H16X18694   5.160   0.433   4.078  0.2591 -1.3092 -0.0943
  166SAPE  H16Y18695   5.055   0.274   4.056 -2.4007  0.2993 -0.0343
  166SAPE  C31718696   4.967   0.445   4.141  0.6286  0.4292  0.1866
  166SAPE  H17X18697   4.870   0.417   4.095  1.1209  0.2044 -0.7224
  166SAPE  H17Y18698   4.973   0.556   4.145  0.4676  0.4493 -0.1026
  166SAPE  C31818699   4.978   0.386   4.275  0.2648 -0.0021 -0.4252
  166SAPE  H18X18700   5.046   0.453   4.332  0.5429 -1.0057  0.4543
  166SAPE  H18Y18701   5.025   0.285   4.270 -1.1122 -0.7497  1.1087
  166SAPE  H18Z18702   4.877   0.374   4.319 -0.2563 -1.4876 -1.9601
  167SAPE     N18703   0.308   4.577   2.283  0.8163 -0.2178  0.2074
  167SAPE   HN118704   0.207   4.561   2.265  0.0756  2.3565  1.7919
  167SAPE   HN218705   0.336   4.645   2.209  2.4486 -0.0641  0.9435
  167SAPE   HN318706   0.360   4.488   2.270  0.4965 -0.3812  0.0325
  167SAPE   C1218707   0.336   4.633   2.417  0.4361 -0.5738 -0.1637
  167SAPE  H12A18708   0.289   4.566   2.492 -0.6490  1.2771  0.8541
  167SAPE  H12B18709   0.275   4.725   2.431  1.1764 -0.1047 -0.0175
  167SAPE   C1118710   0.480   4.659   2.448  0.4074  0.5891 -0.8661
  167SAPE  H11A18711   0.537   4.564   2.446 -0.5909 -0.0461  0.4352
  167SAPE  H11B18712   0.491   4.697   2.552  3.8915 -0.8129 -0.6641
  167SAPE     P18713   0.512   4.902   2.372 -0.5155 -0.1585 -0.2350
  167SAPE   O1318714   0.609   4.972   2.288  0.2744 -0.6575 -0.3254
  167SAPE   O1418715   0.371   4.936   2.342  0.1747 -0.0389 -0.2631
  167SAPE   O1218716   0.539   4.749   2.361 -0.1341  0.0559  0.3236
  167SAPE   O1118717   0.548   4.929   2.525 -0.2458 -0.1387 -0.8025
  167SAPE    C118718   0.686   4.959   2.552  0.1897  0.4667  0.8318
  167SAPE    HA18719   0.768   4.899   2.507  0.7123  1.8939 -0.1556
  167SAPE    HB18720   0.711   5.064   2.529  0.9617 -0.2790 -1.9632
  167SAPE    C218721   0.712   4.955   2.706 -0.4983  0.0268 -1.0098
  167SAPE    HS18722   0.814   4.945   2.748 -0.8097  1.8394  0.2683
  167SAPE   O2118723   0.644   4.842   2.765  1.0187  0.2578  0.1747
  167SAPE   C2118724   0.684   4.720   2.754 -0.1368 -0.2376 -0.8025
  167SAPE   O2218725   0.760   4.677   2.669 -0.2094  0.3684 -0.8061
  167SAPE   C2218726   0.629   4.634   2.863 -0.1141 -0.4870 -0.0992
  167SAPE   H2R18727   0.519   4.653   2.868 -0.1071 -0.7649  1.3815
  167SAPE   H2S18728   0.652   4.526   2.850  0.7644 -0.3403  0.2404
  167SAPE    C318729   0.661   5.087   2.779  0.1678  0.0728  0.1358
  167SAPE    HX18730   0.550   5.084   2.784  0.2303 -1.6748  0.8235
  167SAPE    HY18731   0.690   5.178   2.723  0.4873  0.5668  1.1028
  167SAPE   O3118732   0.710   5.085   2.915 -0.3419 -0.2301  0.0965
  167SAPE   C3118733   0.806   5.168   2.949 -0.2462  0.2054  0.7852
  167SAPE   O3218734   0.863   5.246   2.874 -0.2496 -0.1611 -0.0352
  167SAPE   C3218735   0.849   5.148   3.095 -0.7030  0.4812 -0.4219
  167SAPE   H2X18736   0.926   5.069   3.097  0.6447  1.7966  0.2651
  167SAPE   H2Y18737   0.761   5.105   3.149 -0.5127 -1.5599 -1.6918
  167SAPE   C2318738   0.693   4.668   2.997 -0.0123 -0.8484  0.5937
  167SAPE   H3R18739   0.711   4.775   3.021 -1.4402 -1.1876  3.3910
  167SAPE   H3S18740   0.795   4.624   2.988  1.6363  2.6178  1.1579
  167SAPE   C2418741   0.616   4.611   3.107 -0.2541  0.1112 -0.3728
  167SAPE   H4R18742   0.680   4.578   3.192 -1.6648 -0.9759  0.2733
  167SAPE   H4S18743   0.564   4.517   3.080  1.2555 -0.7311 -0.4130
  167SAPE   C2518744   0.516   4.713   3.155 -0.6713  0.1709 -0.3159
  167SAPE   H5R18745   0.446   4.750   3.079  0.1433  0.5446 -0.8880
  167SAPE   C2618746   0.510   4.776   3.275  0.4333  0.4311 -0.1062
  167SAPE   H6R18747   0.434   4.854   3.291 -1.5191 -1.4179 -0.1149
  167SAPE   C2718748   0.600   4.766   3.393  0.0804 -0.6294 -0.0468
  167SAPE   H7R18749   0.628   4.660   3.410 -0.0999 -1.0039 -1.9719
  167SAPE   H7S18750   0.542   4.788   3.486 -1.3563  0.4222 -1.1760
  167SAPE   C2818751   0.736   4.834   3.394 -0.1498 -0.2842  0.9930
  167SAPE   H8R18752   0.800   4.814   3.307  2.0432 -0.8000  2.6833
  167SAPE   C2918753   0.780   4.927   3.478  0.6848  0.6152 -0.5925
  167SAPE   H9R18754   0.881   4.967   3.462  1.3128 -0.6005  0.2533
  167SAPE  C21018755   0.700   4.984   3.598 -0.1511 -0.3498  0.1950
  167SAPE  H10R18756   0.774   4.993   3.681 -0.2692  2.9585 -0.0109
  167SAPE  H10S18757   0.627   4.908   3.632  2.1938 -1.2614  3.4311
  167SAPE  C21118758   0.630   5.114   3.587 -0.2063  0.6256 -0.0124
  167SAPE  H11R18759   0.610   5.156   3.488  2.1649  1.7138 -0.0514
  167SAPE  C21218760   0.586   5.188   3.691  0.2396  0.1247  0.9435
  167SAPE  H12R18761   0.526   5.276   3.662  1.8159  1.7510  2.4357
  167SAPE  C21318762   0.600   5.165   3.838 -0.1849 -0.1613  0.2179
  167SAPE  H13R18763   0.630   5.062   3.865 -0.3256  0.1159  1.4586
  167SAPE  H13S18764   0.496   5.184   3.870 -0.0722  1.9278 -0.5618
  167SAPE  C21418765   0.708   5.258   3.896 -0.3147 -0.1571  0.3857
  167SAPE  H14R18766   0.789   5.280   3.825  0.6948 -0.3012  1.4719
  167SAPE  C21518767   0.702   5.311   4.019  0.5061  0.3230 -0.0114
  167SAPE  H15R18768   0.792   5.364   4.052  0.4258  1.6306 -1.8280
  167SAPE  C21618769   0.586   5.295   4.120 -0.2260 -0.2700  0.8349
  167SAPE  H16R18770   0.506   5.230   4.080  0.9762 -0.7389 -0.8829
  167SAPE  H16S18771   0.539   5.390   4.152  0.5322  0.5908 -0.5405
  167SAPE  C21718772   0.634   5.241   4.247 -0.3195  0.4170  0.5191
  167SAPE  H17R18773   0.674   5.324   4.308  2.8237  0.5237 -1.5772
  167SAPE  H17S18774   0.719   5.173   4.228 -0.0487  0.4812  1.4903
  167SAPE  C21818775   0.524   5.171   4.322 -0.0387 -0.1751 -1.1829
  167SAPE  H18R18776   0.557   5.093   4.394  0.7281  0.8067 -0.4577
  167SAPE  H18S18777   0.457   5.114   4.253 -0.4639 -1.3681  0.1869
  167SAPE  C21918778   0.444   5.276   4.397 -0.0533 -0.0899 -0.4237
  167SAPE  H19R18779   0.371   5.326   4.329 -2.5454  0.6056  2.6224
  167SAPE  H19S18780   0.501   5.360   4.442  1.5737 -2.1276  1.4459
  167SAPE  C22018781   0.353   5.213   4.504 -0.1654 -0.2489  0.0431
  167SAPE  H20R18782   0.415   5.180   4.591  1.8827  2.0102 -0.5022
  167SAPE  H20S18783   0.300   5.129   4.456 -1.4923  0.7006 -0.1850
  167SAPE  H20T18784   0.286   5.289   4.550 -0.3573  0.3865 -1.2660
  167SAPE   C3318785   0.913   5.275   3.162 -0.6485  0.4424 -0.4188
  167SAPE   H3X18786   0.855   5.368   3.146 -0.8656  1.1553  3.7491
  167SAPE   H3Y18787   1.006   5.290   3.103 -1.0724  1.4981 -0.8264
  167SAPE   C3418788   0.945   5.256   3.312 -1.1278  0.2517  0.5988
  167SAPE   H4X18789   1.016   5.171   3.321 -1.0227  0.0880 -1.4852
  167SAPE   H4Y18790   0.853   5.221   3.364  0.1959 -0.2666  2.6864
  167SAPE   C3518791   1.005   5.375   3.396 -0.1123  0.5398  0.5790
  167SAPE   H5X18792   0.936   5.461   3.386 -0.6500 -0.0451 -0.9665
  167SAPE   H5Y18793   1.108   5.396   3.358  0.9378 -2.5629  1.5257
  167SAPE   C3618794   1.011   5.325   3.544  0.1208  0.3548  0.0209
  167SAPE   H6X18795   1.085   5.242   3.551 -0.3744 -0.1802 -1.0238
  167SAPE   H6Y18796   0.913   5.279   3.568 -0.5315  2.2775  1.0942
  167SAPE   C3718797   1.029   5.445   3.635  0.7651 -0.1321 -0.2516
  167SAPE   H7X18798   0.931   5.494   3.650  0.1218 -0.9815 -1.5669
  167SAPE   H7Y18799   1.100   5.515   3.586  2.1410  0.1383  2.0213
  167SAPE   C3818800   1.092   5.391   3.770  0.4115 -0.1229  0.0065
  167SAPE   H8X18801   1.179   5.331   3.737  0.1131 -0.7261  0.3019
  167SAPE   H8Y18802   1.023   5.318   3.819  1.3383 -0.4338  0.8705
  167SAPE   C3918803   1.128   5.497   3.879 -0.4767 -0.1933 -0.3402
  167SAPE   H9X18804   1.037   5.537   3.928  1.2107  0.6248  2.2520
  167SAPE   H9Y18805   1.173   5.588   3.833 -0.6383  0.6067  1.0355
  167SAPE  C31018806   1.236   5.453   3.983  0.3845 -0.3416  0.0146
  167SAPE  H10X18807   1.334   5.422   3.941 -0.3816 -0.3420 -1.8231
  167SAPE  H10Y18808   1.203   5.353   4.019 -1.2897 -0.6194 -2.1427
  167SAPE  C31118809   1.258   5.543   4.107  0.1805  0.0541  0.0291
  167SAPE  H11X18810   1.158   5.578   4.142 -0.0272 -2.5856  2.2680
  167SAPE  H11Y18811   1.330   5.624   4.083  1.6959 -1.2267  0.1803
  167SAPE  C31218812   1.326   5.475   4.228 -0.1252  0.1495  0.0306
  167SAPE  H12X18813   1.345   5.552   4.306  0.0159  0.0479  0.0972
  167SAPE  H12Y18814   1.424   5.437   4.193 -0.7489 -0.8373 -0.6732
  167SAPE  C31318815   1.234   5.375   4.297  0.0189  0.0657  0.8833
  167SAPE  H13X18816   1.177   5.298   4.240  4.5011 -2.1022 -0.9212
  167SAPE  H13Y18817   1.155   5.435   4.347 -1.2146 -1.2504  0.5592
  167SAPE  C31418818   1.321   5.285   4.391 -0.0258  0.3286  0.5377
  167SAPE  H14X18819   1.387   5.351   4.452  0.0823  2.4113 -1.7366
  167SAPE  H14Y18820   1.384   5.217   4.330  0.3471 -0.5706  1.8938
  167SAPE  C31518821   1.231   5.187   4.479 -0.3595 -0.0765  0.4272
  167SAPE  H15X18822   1.178   5.116   4.412 -1.7782 -0.4394  1.9016
  167SAPE  H15Y18823   1.153   5.250   4.526  1.7813  1.9547  1.3443
  167SAPE  C31618824   1.315   5.105   4.580 -0.1059  0.3022 -0.3411
  167SAPE  H16X18825   1.381   5.035   4.525 -1.9484 -2.0903  0.3870
  167SAPE  H16Y18826   1.237   5.041   4.626  1.4372  0.8982  3.2122
  167SAPE  C31718827   1.385   5.191   4.689  0.1410  0.4209 -0.2501
  167SAPE  H17X18828   1.306   5.239   4.749  0.6323  0.4894  0.3461
  167SAPE  H17Y18829   1.454   5.267   4.647  0.4554  0.4662  0.3414
  167SAPE  C31818830   1.474   5.106   4.779  0.1351 -0.4031 -0.2768
  167SAPE  H18X18831   1.548   5.048   4.719 -1.5402 -0.6808 -2.1187
  167SAPE  H18Y18832   1.409   5.037   4.837  1.3161 -0.2000  1.3159
  167SAPE  H18Z18833   1.534   5.162   4.854 -0.2025 -1.1325  0.5416
  168SAPE     N18834   1.928   0.613   2.048 -0.0783 -0.3325  0.6430
  168SAPE   HN118835   1.854   0.629   2.119 -0.1153  3.9776 -0.2375
  168SAPE   HN218836   1.973   0.707   2.039  0.8380 -0.7094  1.1828
  168SAPE   HN318837   1.883   0.581   1.960  0.3762 -0.2663  0.3847
  168SAPE   C1218838   2.030   0.512   2.088  0.8622  0.2406  0.8296
  168SAPE  H12A18839   2.085   0.549   2.178  2.8690  1.7907 -0.9853
  168SAPE  H12B18840   2.103   0.509   2.004 -0.6079 -1.2628 -0.4221
  168SAPE   C1118841   1.956   0.391   2.129  0.5630 -0.3708 -0.6324
  168SAPE  H11A18842   1.910   0.352   2.036  1.7088 -2.3910 -0.3666
  168SAPE  H11B18843   1.880   0.418   2.206  2.5924  0.5771  1.0769
  168SAPE     P18844   2.110   0.293   2.317 -0.4415  0.1253  0.5282
  168SAPE   O1318845   2.191   0.170   2.342 -0.0038  0.5221  0.3013
  168SAPE   O1418846   2.178   0.420   2.333 -0.2984 -0.0071 -0.4186
  168SAPE   O1218847   2.048   0.291   2.167  0.3086 -0.0530 -0.6085
  168SAPE   O1118848   1.982   0.292   2.407  0.3216 -0.4075  0.2198
  168SAPE    C118849   1.911   0.409   2.455 -0.3196  0.8056 -0.0027
  168SAPE    HA18850   1.946   0.503   2.406 -0.2373  2.9577  3.9264
  168SAPE    HB18851   1.801   0.410   2.441 -0.7320 -0.5732  2.8400
  168SAPE    C218852   1.930   0.419   2.607  1.1946  0.2576  0.4108
  168SAPE    HS18853   1.848   0.483   2.647  0.2563 -1.9001  1.9915
  168SAPE   O2118854   2.063   0.463   2.643  0.0674  0.2657  0.1154
  168SAPE   C2118855   2.099   0.584   2.607  1.2423  0.1676 -0.3934
  168SAPE   O2218856   2.020   0.664   2.555  0.2742  0.2058 -1.2950
  168SAPE   C2218857   2.240   0.614   2.635 -0.2990 -0.1737  0.2351
  168SAPE   H2R18858   2.293   0.554   2.558  0.3137  0.7425 -0.0662
  168SAPE   H2S18859   2.254   0.723   2.616 -2.0770 -0.1496 -1.0921
  168SAPE    C318860   1.909   0.280   2.679  0.7179  0.2513  0.3026
  168SAPE    HX18861   1.987   0.205   2.652 -0.9184 -1.9010  1.3234
  168SAPE    HY18862   1.812   0.249   2.635  1.7228 -1.4017 -0.8080
  168SAPE   O3118863   1.880   0.297   2.821  0.2078  0.1061  0.0630
  168SAPE   C3118864   1.852   0.186   2.883  0.3136  0.2534  0.0564
  168SAPE   O3218865   1.837   0.080   2.832  0.6212 -0.1584 -0.2307
  168SAPE   C3218866   1.853   0.206   3.039  1.2742 -0.5870 -0.2319
  168SAPE   H2X18867   1.763   0.267   3.062  0.4263 -1.4436 -1.2193
  168SAPE   H2Y18868   1.934   0.279   3.058  2.1464 -1.8113  0.8325
  168SAPE   C2318869   2.300   0.579   2.774  0.1218  0.4023  0.6606
  168SAPE   H3R18870   2.406   0.553   2.756 -0.0283  0.4271 -0.2623
  168SAPE   H3S18871   2.250   0.493   2.824  0.6381 -0.3049 -0.0372
  168SAPE   C2418872   2.302   0.699   2.875 -0.1713 -0.1208  0.1959
  168SAPE   H4R18873   2.359   0.779   2.823 -0.0962 -1.4208 -1.8099
  168SAPE   H4S18874   2.356   0.678   2.970  2.7363  0.7997 -1.1770
  168SAPE   C2518875   2.161   0.746   2.907 -0.2420  0.6635  0.0097
  168SAPE   H5R18876   2.119   0.816   2.834  1.2265 -0.7196 -2.2388
  168SAPE   C2618877   2.093   0.721   3.018 -0.2051  0.5146  0.0273
  168SAPE   H6R18878   1.996   0.773   3.024  0.1287  1.2858 -1.1392
  168SAPE   C2718879   2.119   0.651   3.150 -0.7349  0.9202  0.0506
  168SAPE   H7R18880   2.157   0.549   3.126 -0.8885  0.5115  1.5148
  168SAPE   H7S18881   2.024   0.640   3.205  0.2357 -0.4873  1.4860
  168SAPE   C2818882   2.228   0.720   3.231 -0.5138 -0.0409  0.0161
  168SAPE   H8R18883   2.304   0.768   3.168 -2.7150  2.0909 -1.1169
  168SAPE   C2918884   2.229   0.755   3.365 -0.2684 -0.0544 -0.3313
  168SAPE   H9R18885   2.325   0.786   3.408 -0.3004 -0.1002 -0.2259
  168SAPE  C21018886   2.117   0.722   3.457 -0.8992 -0.1696 -1.0566
  168SAPE  H10R18887   2.167   0.669   3.540  0.9533  0.7649 -1.5559
  168SAPE  H10S18888   2.047   0.651   3.408  0.4902 -1.6327 -0.9371
  168SAPE  C21118889   2.027   0.832   3.511  0.1688  0.0321  0.0244
  168SAPE  H11R18890   1.972   0.880   3.429 -2.1198  1.2268  2.2237
  168SAPE  C21218891   2.010   0.874   3.638 -0.0138  0.5336 -0.1141
  168SAPE  H12R18892   1.929   0.945   3.659  0.0941  0.4137  0.7077
  168SAPE  C21318893   2.080   0.803   3.750  0.3905 -0.1622  0.5749
  168SAPE  H13R18894   2.175   0.858   3.764  0.3881  0.1774 -0.6996
  168SAPE  H13S18895   2.107   0.698   3.726 -1.4593 -0.2090 -1.5112
  168SAPE  C21418896   1.997   0.805   3.870  0.0846  0.1004 -0.5846
  168SAPE  H14R18897   1.933   0.715   3.873 -0.6606  0.6175 -0.8995
  168SAPE  C21518898   1.999   0.884   3.980  0.0958 -0.4347  0.4809
  168SAPE  H15R18899   1.923   0.867   4.057 -1.6658 -1.1479 -1.3569
  168SAPE  C21618900   2.097   0.996   4.005  0.4718 -0.0007 -0.0057
  168SAPE  H16R18901   2.062   1.094   3.965  0.8317  0.4806  0.8543
  168SAPE  H16S18902   2.193   0.970   3.955  0.7291 -0.4467  0.7041
  168SAPE  C21718903   2.130   1.013   4.154 -0.1995  0.1035 -0.4963
  168SAPE  H17R18904   2.154   0.910   4.189 -0.9370 -0.8406 -2.6917
  168SAPE  H17S18905   2.043   1.044   4.216  0.4126 -3.4156  2.3181
  168SAPE  C21818906   2.246   1.104   4.174 -0.2400  0.3744 -0.5262
  168SAPE  H18R18907   2.223   1.207   4.138 -1.6050  0.2467 -0.0259
  168SAPE  H18S18908   2.338   1.059   4.130  0.3779  0.7387  0.3637
  168SAPE  C21918909   2.280   1.120   4.331 -0.1657  0.1633 -0.4119
  168SAPE  H19R18910   2.280   1.016   4.372  2.3290  0.2561 -0.0932
  168SAPE  H19S18911   2.193   1.180   4.366  0.4204 -0.1152  1.5722
  168SAPE  C22018912   2.411   1.184   4.343  0.2474 -0.2330  0.2117
  168SAPE  H20R18913   2.428   1.198   4.452 -0.1906 -0.7419  0.3492
  168SAPE  H20S18914   2.412   1.282   4.292 -0.9339 -0.6456 -0.6359
  168SAPE  H20T18915   2.487   1.110   4.308 -1.7313 -2.2467  0.0160
  168SAPE   C3318916   1.859   0.078   3.118  0.3975  0.3226  0.9744
  168SAPE   H3X18917   1.923   0.001   3.068 -0.5287  0.6298 -0.7228
  168SAPE   H3Y18918   1.763   0.024   3.127  0.4087  0.6613  3.4750
  168SAPE   C3418919   1.917   0.090   3.259 -0.3008  0.0229  0.1754
  168SAPE   H4X18920   1.998   0.166   3.259 -1.8851  1.8109  2.2219
  168SAPE   H4Y18921   1.967  -0.005   3.284  1.9644  1.8712  2.9183
  168SAPE   C3518922   1.823   0.125   3.368 -0.0645  0.7560  0.1860
  168SAPE   H5X18923   1.735   0.058   3.368  0.2870  0.2082  2.7822
  168SAPE   H5Y18924   1.785   0.227   3.345  0.8448  0.3547 -3.2702
  168SAPE   C3618925   1.885   0.097   3.502  0.3656  0.2164 -0.4346
  168SAPE   H6X18926   1.980   0.148   3.531  1.4583 -2.0158  0.0785
  168SAPE   H6Y18927   1.906  -0.013   3.501  0.3238  0.2103 -0.5610
  168SAPE   C3718928   1.787   0.120   3.621 -0.8063 -0.0124 -0.1005
  168SAPE   H7X18929   1.709   0.041   3.626  0.8911 -1.6997 -0.2191
  168SAPE   H7Y18930   1.732   0.216   3.607  0.5189  0.6355 -1.0131
  168SAPE   C3818931   1.852   0.116   3.764 -0.0776 -0.1737  0.5698
  168SAPE   H8X18932   1.937   0.188   3.763 -1.2059  1.1996 -1.4914
  168SAPE   H8Y18933   1.884   0.016   3.800  0.2536 -0.1277  0.4137
  168SAPE   C3918934   1.759   0.168   3.867  0.3290  0.3693  0.6144
  168SAPE   H9X18935   1.676   0.095   3.862  0.1770  0.6969 -1.8752
  168SAPE   H9Y18936   1.721   0.268   3.838  0.6248 -0.1243 -1.5648
  168SAPE  C31018937   1.824   0.173   4.007  0.0585  0.9856 -0.1998
  168SAPE  H10X18938   1.892   0.261   4.006  0.9567  0.3052  0.6954
  168SAPE  H10Y18939   1.883   0.085   4.039 -0.6414 -0.0869 -1.7847
  168SAPE  C31118940   1.724   0.180   4.123 -0.0888  0.3423 -0.5049
  168SAPE  H11X18941   1.637   0.111   4.111 -0.5211  1.1127 -1.8051
  168SAPE  H11Y18942   1.679   0.281   4.116  1.9071  1.4847  2.2331
  168SAPE  C31218943   1.779   0.165   4.260  0.4778  0.3061  0.0323
  168SAPE  H12X18944   1.877   0.217   4.262  1.9922 -2.4225 -0.3464
  168SAPE  H12Y18945   1.799   0.058   4.281  3.1142  0.8043  0.2565
  168SAPE  C31318946   1.682   0.218   4.369 -0.9208  0.5164 -0.3477
  168SAPE  H13X18947   1.592   0.157   4.390 -2.3934  2.4562 -0.9777
  168SAPE  H13Y18948   1.656   0.320   4.335  1.3344  2.1220  2.5469
  168SAPE  C31418949   1.743   0.237   4.507  0.8236 -0.5067 -0.1368
  168SAPE  H14X18950   1.811   0.151   4.526  1.7739  0.1125 -0.7255
  168SAPE  H14Y18951   1.662   0.238   4.584 -0.2385 -2.0334 -1.1895
  168SAPE  C31518952   1.820   0.362   4.520 -0.3028  0.0364  0.1134
  168SAPE  H15X18953   1.766   0.457   4.503  1.0169  0.1249 -4.1592
  168SAPE  H15Y18954   1.895   0.359   4.439 -0.2399 -1.6594  0.2173
  168SAPE  C31618955   1.897   0.374   4.655  0.1888  0.2016  0.1904
  168SAPE  H16X18956   1.947   0.279   4.684  0.2600  0.0251 -0.5091
  168SAPE  H16Y18957   1.824   0.386   4.737 -3.3756 -3.0316 -2.3246
  168SAPE  C31718958   1.995   0.488   4.651 -0.3909  0.6822  0.1245
  168SAPE  H17X18959   1.942   0.585   4.643 -1.1278  0.2443 -0.3251
  168SAPE  H17Y18960   2.056   0.463   4.561 -1.8854 -0.2562 -0.6514
  168SAPE  C31818961   2.092   0.496   4.762 -0.3012 -0.6147  0.1875
  168SAPE  H18X18962   2.175   0.565   4.735 -1.0586  0.3829  0.4087
  168SAPE  H18Y18963   2.128   0.393   4.786  0.2723 -0.8025 -1.4283
  168SAPE  H18Z18964   2.042   0.539   4.851 -1.8862  0.6897 -1.3131
  169SAPE     N18965   0.153   4.982   2.190 -0.1855  0.2146  0.4465
  169SAPE   HN118966   0.112   5.076   2.209  1.2621  1.3366 -1.6757
  169SAPE   HN218967   0.230   4.968   2.259  0.2513 -0.8785 -0.2473
  169SAPE   HN318968   0.184   4.973   2.091  0.8933  0.4884  0.7433
  169SAPE   C1218969   0.038   4.884   2.197  0.9557  0.5930 -0.4410
  169SAPE  H12A18970   0.078   4.789   2.157 -1.8106  0.1843 -2.3533
  169SAPE  H12B18971  -0.031   4.923   2.119 -0.6648 -2.3409 -0.5253
  169SAPE   C1118972  -0.016   4.868   2.338  0.3812  0.4168 -0.0401
  169SAPE  H11A18973  -0.057   4.960   2.383  2.3553  0.0252  2.7355
  169SAPE  H11B18974   0.062   4.842   2.413 -0.5580 -0.4130  0.6712
  169SAPE     P18975  -0.091   4.620   2.368 -0.1075  0.1070 -0.1258
  169SAPE   O1318976  -0.184   4.544   2.288  0.5077  0.1337  0.5229
  169SAPE   O1418977   0.046   4.583   2.342  0.4201 -0.4043 -0.0491
  169SAPE   O1218978  -0.119   4.770   2.347  0.1177  0.1195 -0.2043
  169SAPE   O1118979  -0.127   4.593   2.523 -0.0895 -0.3753 -0.2733
  169SAPE    C118980  -0.242   4.642   2.594 -0.1904  0.4610  0.4418
  169SAPE    HA18981  -0.332   4.626   2.531  0.0626  0.0579  0.1851
  169SAPE    HB18982  -0.250   4.583   2.688 -0.7002 -2.4941 -1.4050
  169SAPE    C218983  -0.241   4.795   2.638 -0.2474  1.0258 -0.2186
  169SAPE    HS18984  -0.232   4.857   2.546 -0.8331 -0.5405 -1.3489
  169SAPE   O2118985  -0.120   4.818   2.716  0.0753 -0.0534  0.2063
  169SAPE   C2118986  -0.090   4.945   2.736  0.0112  0.0112 -0.3185
  169SAPE   O2218987  -0.151   5.033   2.677 -0.6256 -0.2796 -0.8191
  169SAPE   C2218988   0.024   4.969   2.838 -0.3025  0.1977 -0.4764
  169SAPE   H2R18989  -0.004   4.926   2.937 -0.6216 -1.1937 -1.1532
  169SAPE   H2S18990   0.114   4.912   2.807  0.2703  0.3130  0.9403
  169SAPE    C318991  -0.373   4.840   2.699 -0.5437  0.0074 -1.0968
  169SAPE    HX18992  -0.457   4.810   2.633 -1.3943 -2.1887  0.9180
  169SAPE    HY18993  -0.378   4.947   2.727 -0.8052 -0.9619  2.8536
  169SAPE   O3118994  -0.404   4.754   2.816 -0.6408  0.2593  0.2459
  169SAPE   C3118995  -0.349   4.797   2.936 -0.9308  0.7476  0.6240
  169SAPE   O3218996  -0.299   4.898   2.964 -0.3076  0.3209 -0.2603
  169SAPE   C3218997  -0.382   4.695   3.039 -0.4799 -0.5998  0.3468
  169SAPE   H2X18998  -0.432   4.612   2.984 -0.5687 -0.4475  0.1990
  169SAPE   H2Y18999  -0.460   4.747   3.099  0.1394  0.3191  0.3456
  169SAPE   C2319000   0.060   5.115   2.873 -1.0273  0.0993 -0.3217
  169SAPE   H3R19001   0.070   5.166   2.775 -0.1558 -0.9241 -0.7637
  169SAPE   H3S19002   0.159   5.120   2.923  0.4146  0.3275 -3.1016
  169SAPE   C2419003  -0.044   5.180   2.967  0.2340  0.5350  0.1736
  169SAPE   H4R19004  -0.141   5.161   2.916  1.1291  0.7052 -1.6127
  169SAPE   H4S19005  -0.011   5.285   2.980 -1.0132  0.9758 -0.1516
  169SAPE   C2519006  -0.056   5.119   3.105 -0.6445 -0.0908 -0.2734
  169SAPE   H5R19007  -0.138   5.046   3.111  0.9509 -1.7980  1.7594
  169SAPE   C2619008   0.014   5.149   3.214 -0.0036 -0.1603  0.6039
  169SAPE   H6R19009  -0.005   5.109   3.314 -3.0270  2.8693  1.3331
  169SAPE   C2719010   0.131   5.247   3.230  0.2551 -0.8004  0.5009
  169SAPE   H7R19011   0.128   5.305   3.325 -0.1803  0.1451 -0.0971
  169SAPE   H7S19012   0.125   5.320   3.147 -0.1931 -2.8812 -1.3390
  169SAPE   C2819013   0.273   5.192   3.218  0.3912  1.0715  0.0597
  169SAPE   H8R19014   0.318   5.179   3.119 -0.1496 -1.3788  0.0962
  169SAPE   C2919015   0.344   5.144   3.321  0.0339 -0.0391  0.1590
  169SAPE   H9R19016   0.445   5.104   3.303 -0.5860 -1.4962 -0.1700
  169SAPE  C21019017   0.295   5.133   3.463  0.9156 -0.2326  0.1424
  169SAPE  H10R19018   0.191   5.170   3.477  0.9210 -0.6122  1.2321
  169SAPE  H10S19019   0.356   5.207   3.518  0.8564 -0.1569  0.1072
  169SAPE  C21119020   0.313   4.990   3.509 -0.0375  0.2141 -0.1073
  169SAPE  H11R19021   0.412   4.986   3.556 -1.0233  1.1182  2.1558
  169SAPE  C21219022   0.232   4.883   3.525  0.6043 -0.2730  0.1650
  169SAPE  H12R19023   0.266   4.784   3.560 -1.4712 -0.5966  1.3588
  169SAPE  C21319024   0.090   4.890   3.487  0.1769  1.5998  0.1531
  169SAPE  H13R19025   0.086   4.865   3.379 -0.0580 -0.0883  0.5436
  169SAPE  H13S19026   0.054   4.995   3.488 -0.6371  1.3593 -2.0080
  169SAPE  C21419027  -0.011   4.805   3.556 -0.2483 -0.4945  0.2568
  169SAPE  H14R19028  -0.026   4.708   3.505  3.4732 -0.3197 -1.3290
  169SAPE  C21519029  -0.073   4.819   3.676 -0.0159  0.2050 -0.6455
  169SAPE  H15R19030  -0.135   4.737   3.714  0.3103  0.0343 -0.4792
  169SAPE  C21619031  -0.058   4.920   3.780  0.5979  0.8047 -0.1846
  169SAPE  H16R19032  -0.149   4.937   3.841  1.1054  1.2270  0.4731
  169SAPE  H16S19033  -0.030   5.014   3.727  1.5467  0.4396 -0.3456
  169SAPE  C21719034   0.052   4.894   3.885 -0.0623 -0.0789  0.7433
  169SAPE  H17R19035   0.116   4.808   3.854  0.9331  0.1794  2.0488
  169SAPE  H17S19036   0.014   4.872   3.987  2.5865 -0.8977  1.5926
  169SAPE  C21819037   0.153   5.015   3.904 -0.4301 -0.2082  0.0299
  169SAPE  H18R19038   0.178   5.066   3.808 -0.5646  2.3309  1.2824
  169SAPE  H18S19039   0.254   4.986   3.940 -1.5636 -2.3527  1.6190
  169SAPE  C21919040   0.110   5.129   3.994 -0.5726  0.3250  0.3691
  169SAPE  H19R19041   0.110   5.088   4.097 -0.2105  0.5456  0.4574
  169SAPE  H19S19042   0.012   5.175   3.971 -0.2160  1.2602  0.6711
  169SAPE  C22019043   0.204   5.243   3.992  0.2910 -0.7107 -0.4194
  169SAPE  H20R19044   0.174   5.338   4.040  0.7411 -0.4040 -0.7411
  169SAPE  H20S19045   0.214   5.269   3.884 -2.1462 -0.7154 -0.6670
  169SAPE  H20T19046   0.303   5.221   4.038  0.0152 -0.4529  0.2954
  169SAPE   C3319047  -0.264   4.657   3.133  0.2990 -0.9853  0.1307
  169SAPE   H3X19048  -0.289   4.607   3.230 -3.1818  1.6586  0.7042
  169SAPE   H3Y19049  -0.209   4.752   3.150 -1.0066 -0.2004  0.0336
  169SAPE   C3419050  -0.159   4.569   3.063  0.2561  0.3062  0.4468
  169SAPE   H4X19051  -0.126   4.614   2.966  4.3339 -3.0104  0.1740
  169SAPE   H4Y19052  -0.200   4.472   3.028 -0.2935  0.4093  0.8002
  169SAPE   C3519053  -0.032   4.548   3.147 -0.3844 -0.1143 -0.2111
  169SAPE   H5X19054  -0.058   4.486   3.235  1.5619 -0.6696 -0.0071
  169SAPE   H5Y19055   0.012   4.644   3.181 -1.1284 -0.1554  0.9111
  169SAPE   C3619056   0.081   4.483   3.062 -0.2140 -0.6231  0.3276
  169SAPE   H6X19057   0.088   4.530   2.961  3.6736  0.5208  1.0366
  169SAPE   H6Y19058   0.060   4.374   3.059 -1.7278 -0.3558  0.7275
  169SAPE   C3719059   0.218   4.499   3.124 -0.6045 -0.1507  0.4888
  169SAPE   H7X19060   0.265   4.599   3.110 -0.3565 -0.5263 -1.4727
  169SAPE   H7Y19061   0.286   4.427   3.073  0.1440 -0.8864  2.4999
  169SAPE   C3819062   0.216   4.464   3.276  0.0226 -1.4314 -0.0489
  169SAPE   H8X19063   0.140   4.525   3.329 -0.4440 -1.0957 -1.0889
  169SAPE   H8Y19064   0.321   4.476   3.310 -0.5334  0.4207  1.1281
  169SAPE   C3919065   0.170   4.325   3.311 -0.0972 -0.8083  0.0709
  169SAPE   H9X19066   0.240   4.252   3.264 -1.6207 -1.3715 -1.3736
  169SAPE   H9Y19067   0.065   4.313   3.278  0.3079 -1.0533 -1.1862
  169SAPE  C31019068   0.168   4.288   3.461 -0.4316  0.7041 -0.4767
  169SAPE  H10X19069   0.096   4.355   3.514  0.6581  1.3365  0.2306
  169SAPE  H10Y19070   0.269   4.306   3.504 -0.2531 -1.8723  0.2298
  169SAPE  C31119071   0.134   4.137   3.499 -0.4341  0.1946  0.0692
  169SAPE  H11X19072   0.184   4.059   3.438  1.9012  0.2130  1.9177
  169SAPE  H11Y19073   0.028   4.130   3.464 -0.5033  1.1916  0.0683
  169SAPE  C31219074   0.164   4.107   3.647  0.4735  0.1666 -0.3746
  169SAPE  H12X19075   0.121   4.186   3.713  2.9287  1.3686 -0.1543
  169SAPE  H12Y19076   0.273   4.102   3.667  0.3882 -2.1220 -0.3354
  169SAPE  C31319077   0.110   3.971   3.681  0.4419 -0.9104 -0.6998
  169SAPE  H13X19078   0.138   3.901   3.599  2.8425 -2.2185  1.1724
  169SAPE  H13Y19079  -0.001   3.975   3.688  0.6090  1.4046  1.0784
  169SAPE  C31419080   0.164   3.920   3.820 -0.2864 -0.1692 -0.2168
  169SAPE  H14X19081   0.125   3.989   3.897  1.5057  1.9142 -1.1108
  169SAPE  H14Y19082   0.275   3.931   3.824 -0.3598  0.5153 -0.0347
  169SAPE  C31519083   0.117   3.781   3.842 -0.3099 -0.5826 -0.5482
  169SAPE  H15X19084   0.007   3.769   3.854 -0.2578 -2.2496 -1.4325
  169SAPE  H15Y19085   0.159   3.751   3.941  1.2711 -1.9756 -1.5999
  169SAPE  C31619086   0.163   3.679   3.738 -0.0674  0.1613  0.2390
  169SAPE  H16X19087   0.143   3.716   3.635  0.2379 -3.4875 -1.2155
  169SAPE  H16Y19088   0.101   3.586   3.739 -0.4185  0.3914  0.1642
  169SAPE  C31719089   0.315   3.648   3.728  0.1657 -0.1515  0.0080
  169SAPE  H17X19090   0.331   3.574   3.809 -1.6995 -0.3139  0.2450
  169SAPE  H17Y19091   0.380   3.735   3.751 -1.8811  1.5588 -0.5284
  169SAPE  C31819092   0.344   3.596   3.579 -0.2414  0.6113 -0.5265
  169SAPE  H18X19093   0.449   3.607   3.544 -0.1727  0.1825 -0.4628
  169SAPE  H18Y19094   0.286   3.653   3.504  1.5182  0.7789 -1.7938
  169SAPE  H18Z19095   0.309   3.491   3.576  1.7720 -0.1331  0.7780
  170SAPE     N19096   5.192   0.155   2.180 -0.8958 -0.5815 -0.4412
  170SAPE   HN119097   5.232   0.089   2.111  2.4315  0.1697  0.6518
  170SAPE   HN219098   5.099   0.125   2.216 -0.4862 -1.5356 -0.1595
  170SAPE   HN319099   5.179   0.246   2.132  2.2197 -1.2700 -2.7816
  170SAPE   C1219100   5.296   0.169   2.284  0.2852  0.7389  0.1039
  170SAPE  H12A19101   5.249   0.193   2.382 -0.2278  0.3255 -0.0384
  170SAPE  H12B19102   5.358   0.255   2.252  1.4621  0.4712  1.5821
  170SAPE   C1119103   5.388   0.047   2.296  0.3455  0.3417 -0.0429
  170SAPE  H11A19104   5.322  -0.027   2.345  1.4056 -0.1471  0.6698
  170SAPE  H11B19105   5.475   0.050   2.365  2.3986 -0.0519 -2.5445
  170SAPE     P19106   5.521  -0.126   2.150  0.2886  0.5219  0.0954
  170SAPE   O1319107   5.429  -0.244   2.150 -0.4396 -0.0384  0.3796
  170SAPE   O1419108   5.597  -0.118   2.024 -0.3528  0.4000 -0.4628
  170SAPE   O1219109   5.428  -0.001   2.163 -0.7389  0.3325 -0.3321
  170SAPE   O1119110   5.620  -0.125   2.271 -0.3435  0.1293 -0.1816
  170SAPE    C119111   5.712  -0.015   2.283  0.2055 -0.2814  0.0216
  170SAPE    HA19112   5.659   0.075   2.246  0.8108  0.5258  1.0544
  170SAPE    HB19113   5.730   0.007   2.391  0.2724 -0.2551  0.0050
  170SAPE    C219114   5.840  -0.045   2.203  0.3631  0.5208 -0.1816
  170SAPE    HS19115   5.819  -0.092   2.105  0.1747  2.6185 -1.1887
  170SAPE   O2119116   5.910  -0.140   2.281  0.5140  0.4674 -0.1032
  170SAPE   C2119117   6.007  -0.200   2.210  0.3876 -0.0426  0.2251
  170SAPE   O2219118   6.030  -0.172   2.094  0.0994  0.3277 -0.0119
  170SAPE   C2219119   6.078  -0.313   2.283  0.0461 -1.0218  0.2744
  170SAPE   H2R19120   6.029  -0.319   2.382  2.2170 -0.7648  1.3898
  170SAPE   H2S19121   6.053  -0.402   2.221 -1.1137 -2.0241  2.1254
  170SAPE    C319122   5.923   0.082   2.192  0.6973 -0.5347  0.9775
  170SAPE    HX19123   5.874   0.162   2.133  2.0642 -0.4819 -0.1011
  170SAPE    HY19124   6.017   0.059   2.139 -0.1375 -0.9454 -0.3428
  170SAPE   O3119125   5.953   0.141   2.318  0.0349 -0.2200 -0.3491
  170SAPE   C3119126   6.070   0.106   2.379  0.2762 -0.3880  0.2486
  170SAPE   O3219127   6.167   0.057   2.326 -0.0549 -0.7805 -0.6874
  170SAPE   C3219128   6.069   0.143   2.523  0.1157  0.4670  0.6896
  170SAPE   H2X19129   6.115   0.243   2.532  0.1372  0.3992  1.3645
  170SAPE   H2Y19130   6.132   0.066   2.572 -1.6536 -0.0526  2.2033
  170SAPE   C2319131   6.231  -0.292   2.293 -0.1715 -0.4726  0.1535
  170SAPE   H3R19132   6.266  -0.188   2.310  0.0329 -0.6060  0.5716
  170SAPE   H3S19133   6.268  -0.320   2.192 -0.8210 -3.8768  0.7917
  170SAPE   C2419134   6.296  -0.370   2.405 -0.4445  0.0953 -0.0565
  170SAPE   H4R19135   6.405  -0.348   2.404 -0.6521  1.1362 -1.3468
  170SAPE   H4S19136   6.277  -0.477   2.383  1.3551 -0.6110  1.6520
  170SAPE   C2519137   6.247  -0.325   2.540 -0.2487 -0.1458  0.5389
  170SAPE   H5R19138   6.140  -0.306   2.555  0.1530  1.3815  1.5650
  170SAPE   C2619139   6.323  -0.306   2.653  0.3307 -0.3753  0.7165
  170SAPE   H6R19140   6.277  -0.275   2.748 -0.1096 -0.3194  0.4863
  170SAPE   C2719141   6.468  -0.325   2.673  0.0143  0.0656  0.0322
  170SAPE   H7R19142   6.515  -0.241   2.729  0.5755 -0.6605  0.6709
  170SAPE   H7S19143   6.527  -0.337   2.580  1.2030  2.6557  0.4128
  170SAPE   C2819144   6.502  -0.444   2.761 -0.5367  0.0137  0.8562
  170SAPE   H8R19145   6.566  -0.520   2.712  1.2915  1.5111  0.8661
  170SAPE   C2919146   6.468  -0.476   2.891  0.6010 -0.4109 -0.2617
  170SAPE   H9R19147   6.512  -0.569   2.932 -0.3608 -0.5111  0.5613
  170SAPE  C21019148   6.385  -0.402   2.994  0.0927  0.5270 -1.0337
  170SAPE  H10R19149   6.325  -0.478   3.049  0.2415  0.4570 -0.9710
  170SAPE  H10S19150   6.308  -0.344   2.938 -0.4132 -1.5821 -2.6375
  170SAPE  C21119151   6.467  -0.316   3.082  0.5356 -0.0746  0.4503
  170SAPE  H11R19152   6.573  -0.294   3.063  0.6058 -0.7609  0.0233
  170SAPE  C21219153   6.413  -0.246   3.185  0.1218 -0.2075 -0.1235
  170SAPE  H12R19154   6.479  -0.201   3.260 -1.5830  2.2525 -0.0385
  170SAPE  C21319155   6.264  -0.241   3.232 -0.0519 -0.5495  0.5272
  170SAPE  H13R19156   6.264  -0.263   3.341  3.2651  0.9470  0.8909
  170SAPE  H13S19157   6.207  -0.323   3.184 -0.3521  0.8615 -1.6050
  170SAPE  C21419158   6.208  -0.103   3.203 -0.3514  0.7214  0.1519
  170SAPE  H14R19159   6.228  -0.056   3.106  0.5303 -1.7404 -0.8898
  170SAPE  C21519160   6.144  -0.027   3.292 -0.5877  0.0009 -0.5053
  170SAPE  H15R19161   6.113   0.071   3.254  0.9370  0.3784 -0.7949
  170SAPE  C21619162   6.119  -0.058   3.439 -0.2203 -0.4269 -0.2011
  170SAPE  H16R19163   6.139   0.027   3.508  0.0287 -0.4652 -0.2263
  170SAPE  H16S19164   6.179  -0.130   3.498  1.4829 -0.1561 -1.5951
  170SAPE  C21719165   5.966  -0.081   3.451  0.3970 -0.6935  0.2933
  170SAPE  H17R19166   5.945  -0.172   3.392  1.4144 -1.4705  1.0988
  170SAPE  H17S19167   5.912   0.006   3.410 -0.8362 -1.5401  0.0940
  170SAPE  C21819168   5.923  -0.120   3.588  1.0766  0.1196 -0.2187
  170SAPE  H18R19169   5.989  -0.204   3.619 -0.1896 -0.8671 -0.1211
  170SAPE  H18S19170   5.822  -0.167   3.580  0.5606  1.2919 -0.5876
  170SAPE  C21919171   5.920  -0.010   3.690  0.5178 -0.4656  0.1891
  170SAPE  H19R19172   5.891   0.085   3.641  1.6767 -0.5027 -0.5873
  170SAPE  H19S19173   6.024   0.011   3.725  1.1768  0.1385 -2.0128
  170SAPE  C22019174   5.832  -0.032   3.810  0.1717 -0.1768 -0.9252
  170SAPE  H20R19175   5.727  -0.056   3.782 -0.3762  0.1201  0.8017
  170SAPE  H20S19176   5.833   0.053   3.882 -0.4627 -0.0558 -1.0613
  170SAPE  H20T19177   5.880  -0.115   3.867  1.8343  0.9831 -0.5927
  170SAPE   C3319178   5.929   0.156   2.588  0.2742 -0.7706 -0.0301
  170SAPE   H3X19179   5.854   0.078   2.565  0.4621 -1.0587  0.3303
  170SAPE   H3Y19180   5.891   0.259   2.568  2.7386 -0.2989 -2.6646
  170SAPE   C3419181   5.953   0.142   2.737  0.1171  0.4138  0.9228
  170SAPE   H4X19182   6.030   0.212   2.774  0.2441  0.2914  0.8904
  170SAPE   H4Y19183   5.990   0.039   2.757 -0.5837 -0.1245 -0.5118
  170SAPE   C3519184   5.824   0.143   2.818  0.7384 -0.2015  1.0066
  170SAPE   H5X19185   5.766   0.048   2.813  1.5401 -0.7635  2.2343
  170SAPE   H5Y19186   5.753   0.221   2.784  1.4178 -0.3785 -0.8593
  170SAPE   C3619187   5.844   0.158   2.964 -0.4598 -0.2013  0.0537
  170SAPE   H6X19188   5.902   0.252   2.976  0.2066 -0.3914 -1.4966
  170SAPE   H6Y19189   5.886   0.067   3.013  0.6158 -0.1072 -0.6854
  170SAPE   C3719190   5.722   0.192   3.044  0.3760 -0.6419 -0.4200
  170SAPE   H7X19191   5.643   0.114   3.034  1.8473 -2.3275  0.7047
  170SAPE   H7Y19192   5.694   0.294   3.013 -2.2159 -0.9651  0.6900
  170SAPE   C3819193   5.763   0.219   3.195  0.2382 -0.4595 -0.0953
  170SAPE   H8X19194   5.829   0.308   3.195 -0.8845  0.3899 -0.8765
  170SAPE   H8Y19195   5.819   0.139   3.247  2.9406  0.9361 -0.7663
  170SAPE   C3919196   5.638   0.256   3.272 -0.3061 -0.1910 -0.7401
  170SAPE   H9X19197   5.564   0.173   3.267  1.0930 -1.4429 -0.9479
  170SAPE   H9Y19198   5.597   0.346   3.222 -0.7860 -0.9222 -1.6968
  170SAPE  C31019199   5.677   0.306   3.418  0.0202  0.1744  0.5675
  170SAPE  H10X19200   5.699   0.415   3.423  1.2527 -0.1634  2.9375
  170SAPE  H10Y19201   5.752   0.243   3.469 -0.3036 -0.8167 -0.1606
  170SAPE  C31119202   5.553   0.303   3.518  0.0713  0.0092  0.4234
  170SAPE  H11X19203   5.508   0.201   3.522  3.7364 -1.6623  0.8973
  170SAPE  H11Y19204   5.485   0.375   3.467  0.8415  0.3412 -0.1339
  170SAPE  C31219205   5.579   0.364   3.652  0.1623 -0.0798 -0.8139
  170SAPE  H12X19206   5.479   0.395   3.689  1.3288 -0.8524  3.1643
  170SAPE  H12Y19207   5.630   0.461   3.633 -1.4086  0.4282 -2.6590
  170SAPE  C31319208   5.659   0.266   3.737 -0.0089  0.1442  0.2617
  170SAPE  H13X19209   5.754   0.254   3.681  1.2255  0.9250  2.1210
  170SAPE  H13Y19210   5.615   0.165   3.745 -1.9643  0.7941 -1.8052
  170SAPE  C31419211   5.697   0.325   3.874  0.2077 -0.6642 -0.2558
  170SAPE  H14X19212   5.674   0.433   3.866  0.2021 -0.5411  1.2099
  170SAPE  H14Y19213   5.808   0.328   3.871  0.1379  0.3012 -2.4059
  170SAPE  C31519214   5.645   0.256   4.003 -0.4485  0.3408 -0.5680
  170SAPE  H15X19215   5.653   0.146   3.996  3.2383  0.5319 -0.6518
  170SAPE  H15Y19216   5.539   0.289   4.012 -0.7225 -0.6978  0.0919
  170SAPE  C31619217   5.722   0.317   4.126  0.6037 -0.3423  0.6377
  170SAPE  H16X19218   5.730   0.427   4.119 -0.0599 -0.3887 -1.1657
  170SAPE  H16Y19219   5.827   0.280   4.116  0.3692 -1.1582  1.1288
  170SAPE  C31719220   5.666   0.258   4.256 -0.6374  0.0398  0.0193
  170SAPE  H17X19221   5.669   0.147   4.253 -1.8970  0.0379 -2.8477
  170SAPE  H17Y19222   5.556   0.275   4.258 -0.2091  3.6555 -2.4723
  170SAPE  C31819223   5.736   0.314   4.381  0.2333 -0.4843  0.1462
  170SAPE  H18X19224   5.765   0.420   4.363 -1.7732 -0.2210 -1.7404
  170SAPE  H18Y19225   5.826   0.254   4.405  0.5471  0.7402  2.1204
  170SAPE  H18Z19226   5.665   0.311   4.466  0.3571  0.7104  0.3018
  171SAPE     N19227   0.449   5.376   1.933 -0.3436  0.6078  0.5982
  171SAPE   HN119228   0.552   5.357   1.928 -0.5019  0.1851 -1.5855
  171SAPE   HN219229   0.415   5.385   1.836  1.5080  1.5366  0.0000
  171SAPE   HN319230   0.443   5.464   1.989  1.3743  0.2753  1.3385
  171SAPE   C1219231   0.385   5.258   1.994 -0.3384 -0.4818 -0.7072
  171SAPE  H12A19232   0.398   5.169   1.928 -0.6751 -1.0106 -0.0723
  171SAPE  H12B19233   0.277   5.278   1.980  0.3186  2.1796 -2.3275
  171SAPE   C1119234   0.436   5.222   2.124  0.0356  1.1841 -0.0872
  171SAPE  H11A19235   0.547   5.220   2.115 -0.1257 -1.7444 -2.3405
  171SAPE  H11B19236   0.410   5.121   2.161  2.0478 -0.5638 -3.1865
  171SAPE     P19237   0.275   5.322   2.308 -0.0169  0.3635 -0.1195
  171SAPE   O1319238   0.228   5.455   2.341 -0.1516 -0.1260  0.0721
  171SAPE   O1419239   0.178   5.240   2.236 -0.0545 -0.1556 -0.3075
  171SAPE   O1219240   0.405   5.325   2.224  0.3652  0.3223 -0.2067
  171SAPE   O1119241   0.330   5.266   2.449  0.5023 -0.1531 -0.5960
  171SAPE    C119242   0.464   5.282   2.505 -0.8429  0.1342  0.0229
  171SAPE    HA19243   0.477   5.215   2.592 -0.8826 -0.9474 -0.7918
  171SAPE    HB19244   0.544   5.240   2.440 -0.3987  0.4434  0.3694
  171SAPE    C219245   0.503   5.430   2.528  0.0877  0.1711 -0.4027
  171SAPE    HS19246   0.491   5.479   2.428  1.3597  1.8105  0.2248
  171SAPE   O2119247   0.642   5.420   2.569  0.2964  0.3763 -0.3896
  171SAPE   C2119248   0.706   5.539   2.594  0.6246 -0.2400 -0.2441
  171SAPE   O2219249   0.660   5.647   2.554 -0.2767 -0.0612 -0.6860
  171SAPE   C2219250   0.839   5.504   2.661  0.3340  0.3024 -1.1878
  171SAPE   H2R19251   0.822   5.443   2.752 -2.0554  1.5125 -0.8051
  171SAPE   H2S19252   0.906   5.439   2.600  1.1654  1.1134 -1.1552
  171SAPE    C319253   0.420   5.510   2.633 -0.1846 -0.1384 -0.0144
  171SAPE    HX19254   0.319   5.515   2.587  0.7448  0.5071 -2.0458
  171SAPE    HY19255   0.443   5.619   2.644 -0.1885 -0.3393  2.0786
  171SAPE   O3119256   0.426   5.437   2.759 -0.1613 -0.7350  0.3750
  171SAPE   C3119257   0.479   5.503   2.860  0.7471  0.5711  0.6808
  171SAPE   O3219258   0.523   5.614   2.857  0.6316 -0.2602  0.3087
  171SAPE   C3219259   0.464   5.408   2.985 -0.7367  0.0329 -0.9866
  171SAPE   H2X19260   0.510   5.309   2.963 -2.3323 -0.9487  0.0102
  171SAPE   H2Y19261   0.356   5.385   2.998 -0.1049 -0.6562  3.6910
  171SAPE   C2319262   0.918   5.628   2.701  0.1003 -0.0941 -0.1920
  171SAPE   H3R19263   0.867   5.689   2.779 -1.4566  1.2131 -2.1573
  171SAPE   H3S19264   0.948   5.688   2.613  1.0498  0.1784  0.3136
  171SAPE   C2419265   1.052   5.581   2.765  0.9508 -0.6844 -0.0432
  171SAPE   H4R19266   1.098   5.507   2.697 -0.2244 -1.9776  0.5443
  171SAPE   H4S19267   1.028   5.526   2.859  0.1340  0.8105  0.6395
  171SAPE   C2519268   1.139   5.699   2.785  0.4594  0.2490 -0.8248
  171SAPE   H5R19269   1.189   5.741   2.697  1.3249 -0.1608 -0.5353
  171SAPE   C2619270   1.164   5.761   2.903 -0.6568  0.3115  0.3439
  171SAPE   H6R19271   1.224   5.853   2.915  0.9735 -0.5970 -0.6562
  171SAPE   C2719272   1.109   5.721   3.032  0.4318 -0.2729  0.4427
  171SAPE   H7R19273   1.171   5.769   3.111 -0.0588  0.0075  0.6613
  171SAPE   H7S19274   1.113   5.610   3.036 -1.7119 -0.4209 -0.7688
  171SAPE   C2819275   0.972   5.777   3.062 -0.7164 -0.3462  0.4027
  171SAPE   H8R19276   0.908   5.812   2.980 -0.4856 -2.3220 -0.6586
  171SAPE   C2919277   0.922   5.790   3.187  0.2780  0.3671  0.6668
  171SAPE   H9R19278   0.817   5.823   3.190  0.5032  1.5051 -2.2885
  171SAPE  C21019279   0.991   5.754   3.317  1.1372 -0.3106  0.9531
  171SAPE  H10R19280   1.085   5.699   3.296  1.0238  0.3515 -1.3626
  171SAPE  H10S19281   0.923   5.686   3.374  0.0294 -0.1763 -0.1949
  171SAPE  C21119282   1.021   5.870   3.398 -0.2262  0.7017  0.4177
  171SAPE  H11R19283   1.062   5.949   3.333  0.4232  0.2822  0.3113
  171SAPE  C21219284   1.009   5.880   3.532  0.2825 -0.4142 -1.3644
  171SAPE  H12R19285   1.031   5.974   3.586  0.0910 -1.4187  0.4989
  171SAPE  C21319286   0.954   5.772   3.624  0.3725 -0.1889  0.4045
  171SAPE  H13R19287   1.030   5.762   3.705  0.2442 -0.9745  0.4296
  171SAPE  H13S19288   0.937   5.673   3.577  1.2065  0.3435 -1.0237
  171SAPE  C21419289   0.817   5.820   3.681 -0.5721 -0.5441  0.0115
  171SAPE  H14R19290   0.749   5.844   3.598 -1.4727  1.2115  1.2115
  171SAPE  C21519291   0.786   5.843   3.810  0.0397 -0.1955  0.1100
  171SAPE  H15R19292   0.684   5.880   3.832  0.1877  1.2439 -1.5418
  171SAPE  C21619293   0.882   5.818   3.922 -0.1691 -0.3304 -0.2287
  171SAPE  H16R19294   0.971   5.884   3.909  0.6925 -1.4396 -0.0753
  171SAPE  H16S19295   0.928   5.717   3.917  0.6292 -0.0976  1.7377
  171SAPE  C21719296   0.830   5.841   4.063 -0.2195 -0.5021  0.0697
  171SAPE  H17R19297   0.816   5.951   4.071  0.1568 -0.2574 -2.3478
  171SAPE  H17S19298   0.914   5.815   4.131 -1.6569  0.2148  2.1629
  171SAPE  C21819299   0.697   5.767   4.089  0.1295  0.0523  0.3682
  171SAPE  H18R19300   0.696   5.667   4.041  1.4395  1.6039 -3.0483
  171SAPE  H18S19301   0.614   5.814   4.032 -1.3250 -2.1804  0.5886
  171SAPE  C21919302   0.643   5.773   4.230  0.1430  0.2269  0.7538
  171SAPE  H19R19303   0.547   5.717   4.220 -0.1814  0.8525  0.3100
  171SAPE  H19S19304   0.621   5.877   4.261  1.5781  0.7192  0.1549
  171SAPE  C22019305   0.729   5.706   4.343 -0.1519 -0.0500 -0.2212
  171SAPE  H20R19306   0.677   5.701   4.441  0.4752 -3.5101 -0.0156
  171SAPE  H20S19307   0.826   5.758   4.356  0.2889 -1.1096  0.7518
  171SAPE  H20T19308   0.760   5.603   4.317 -3.6656 -1.0526 -0.7459
  171SAPE   C3319309   0.521   5.457   3.119 -0.1808 -0.0240 -0.0065
  171SAPE   H3X19310   0.621   5.501   3.099 -1.1117  1.1892 -2.1520
  171SAPE   H3Y19311   0.539   5.367   3.182 -0.1281  2.3060  3.3678
  171SAPE   C3419312   0.437   5.563   3.193  0.0245  0.4635  0.4675
  171SAPE   H4X19313   0.338   5.519   3.167  0.0853  0.2508  0.5997
  171SAPE   H4Y19314   0.454   5.660   3.141  0.4873 -0.3448 -0.9085
  171SAPE   C3519315   0.475   5.579   3.334 -0.0540  0.0176  0.5188
  171SAPE   H5X19316   0.570   5.636   3.328 -0.2116  0.7878  4.0024
  171SAPE   H5Y19317   0.491   5.484   3.389  1.8745 -1.2398 -2.1577
  171SAPE   C3619318   0.381   5.668   3.406 -0.5707  0.0713  0.8239
  171SAPE   H6X19319   0.295   5.604   3.436  1.0539 -2.3078  0.5254
  171SAPE   H6Y19320   0.348   5.754   3.344 -2.2123  0.2233  1.8710
  171SAPE   C3719321   0.429   5.728   3.539 -0.1868 -0.6205  0.0389
  171SAPE   H7X19322   0.348   5.791   3.581  0.1755  0.0513 -0.2565
  171SAPE   H7Y19323   0.523   5.787   3.530 -1.2257  1.2632  1.0316
  171SAPE   C3819324   0.458   5.622   3.646  0.4935 -0.3184 -0.7482
  171SAPE   H8X19325   0.567   5.601   3.659  1.0192  3.8500  2.8742
  171SAPE   H8Y19326   0.395   5.532   3.631  0.7143 -0.5799 -0.1251
  171SAPE   C3919327   0.407   5.687   3.777 -0.4552  0.0196  0.0006
  171SAPE   H9X19328   0.306   5.734   3.772  1.5308  4.7927  1.4272
  171SAPE   H9Y19329   0.473   5.775   3.793  2.1623 -2.0228  0.6007
  171SAPE  C31019330   0.408   5.592   3.897  0.2768 -0.3373 -0.0187
  171SAPE  H10X19331   0.513   5.564   3.919  0.6338  0.2132 -1.0097
  171SAPE  H10Y19332   0.351   5.500   3.873 -1.5107  0.4452  1.1112
  171SAPE  C31119333   0.345   5.662   4.021 -0.2420 -0.0972  0.9865
  171SAPE  H11X19334   0.247   5.698   3.982 -0.3064 -1.5463 -0.2392
  171SAPE  H11Y19335   0.398   5.754   4.052 -0.3716  0.9707 -1.7760
  171SAPE  C31219336   0.324   5.583   4.153  0.0291 -0.2971  0.0485
  171SAPE  H12X19337   0.428   5.575   4.192  0.1070  1.5936  0.3163
  171SAPE  H12Y19338   0.283   5.482   4.136 -1.1671  0.6393 -3.0614
  171SAPE  C31319339   0.241   5.662   4.251 -0.0105 -0.5437  0.1160
  171SAPE  H13X19340   0.147   5.680   4.195  0.2202 -2.3631 -0.9256
  171SAPE  H13Y19341   0.282   5.761   4.279  0.9958 -1.0499  0.4690
  171SAPE  C31419342   0.211   5.580   4.379 -0.1372 -0.4927  0.5679
  171SAPE  H14X19343   0.305   5.535   4.417 -0.6979 -3.1901 -1.1051
  171SAPE  H14Y19344   0.158   5.487   4.347  2.0234 -1.9333  1.0700
  171SAPE  C31519345   0.151   5.653   4.494  0.3464 -0.8337 -0.2259
  171SAPE  H15X19346   0.050   5.692   4.472 -0.8565 -3.8796 -0.4065
  171SAPE  H15Y19347   0.210   5.743   4.520 -1.8166  1.6574 -3.5576
  171SAPE  C31619348   0.159   5.587   4.632 -0.3386  0.3134  0.3678
  171SAPE  H16X19349   0.262   5.586   4.674 -0.7635  0.8533  1.4496
  171SAPE  H16Y19350   0.124   5.482   4.621 -0.2214  0.0941  1.8771
  171SAPE  C31719351   0.074   5.657   4.737  0.1120  0.1107  0.4088
  171SAPE  H17X19352  -0.032   5.656   4.703  0.1525  0.5254  0.2701
  171SAPE  H17Y19353   0.101   5.764   4.736 -1.0938  0.4438 -2.8783
  171SAPE  C31819354   0.092   5.605   4.875 -0.0267 -0.2549  0.2832
  171SAPE  H18X19355   0.099   5.495   4.885 -1.0845 -0.2213  1.5550
  171SAPE  H18Y19356   0.015   5.640   4.948 -1.6513 -0.9213 -1.1027
  171SAPE  H18Z19357   0.194   5.635   4.908 -0.5297  2.2722 -0.3077
  172SAPE     N19358   7.109   6.307   2.665  0.2366 -0.4337 -0.7387
  172SAPE   HN119359   7.070   6.234   2.728 -2.1847  1.6563  0.3097
  172SAPE   HN219360   7.163   6.266   2.586  1.4579 -2.4633  1.0924
  172SAPE   HN319361   7.173   6.370   2.717 -1.7732  0.9795  0.1214
  172SAPE   C1219362   6.992   6.382   2.607 -0.2475  0.3288  1.1086
  172SAPE  H12A19363   6.941   6.437   2.688  0.5489 -0.4135  2.1337
  172SAPE  H12B19364   6.928   6.304   2.562  0.2952 -0.3739  1.5422
  172SAPE   C1119365   7.051   6.471   2.503  0.3271  0.5119  0.2714
  172SAPE  H11A19366   7.117   6.546   2.552  2.7003 -0.4926 -1.2827
  172SAPE  H11B19367   6.966   6.523   2.453  0.4671 -0.0373 -0.5566
  172SAPE     P19368   7.231   6.464   2.312  0.5330  0.3281 -0.0195
  172SAPE   O1319369   7.356   6.471   2.390 -0.1366  0.0173 -0.6286
  172SAPE   O1419370   7.233   6.387   2.182 -0.0626 -0.4036 -0.1969
  172SAPE   O1219371   7.120   6.391   2.404 -0.3737  0.3896 -0.7776
  172SAPE   O1119372   7.164   6.619   2.287 -0.4597  0.2914  0.1341
  172SAPE    C119373   7.046   6.627   2.209  0.1834 -1.0367 -0.5617
  172SAPE    HA19374   7.067   6.610   2.101  0.8416  1.0413 -0.7944
  172SAPE    HB19375   6.971   6.551   2.241  0.7281 -2.0897 -1.7532
  172SAPE    C219376   6.992   6.774   2.209 -0.2881 -0.2369  0.3741
  172SAPE    HS19377   7.083   6.828   2.176 -1.2515  0.7664 -0.7096
  172SAPE   O2119378   6.962   6.809   2.344  0.3815 -0.2833 -0.2758
  172SAPE   C2119379   6.949   6.940   2.368 -0.3278 -0.6096  0.1435
  172SAPE   O2219380   6.953   7.027   2.285 -0.4069 -0.3062 -0.2832
  172SAPE   C2219381   6.912   6.955   2.517 -1.0238 -0.9005  0.2829
  172SAPE   H2R19382   6.882   7.061   2.531  0.3154 -0.6583  1.4268
  172SAPE   H2S19383   6.822   6.895   2.543 -1.6926  0.1562  0.4413
  172SAPE    C319384   6.873   6.802   2.111 -0.1791 -0.2759  0.4311
  172SAPE    HX19385   6.911   6.772   2.010  0.5525  2.8504 -0.2659
  172SAPE    HY19386   6.849   6.909   2.124 -0.1597 -0.3291  0.8909
  172SAPE   O3119387   6.762   6.718   2.148  0.5316  0.2440 -0.1896
  172SAPE   C3119388   6.660   6.779   2.218  0.1736 -0.6852  0.3622
  172SAPE   O3219389   6.656   6.896   2.246  0.7844  0.8514  0.6862
  172SAPE   C3219390   6.552   6.681   2.254  0.5627  0.4918  0.4706
  172SAPE   H2X19391   6.577   6.578   2.221  1.6714  0.3919  1.5776
  172SAPE   H2Y19392   6.452   6.709   2.215  0.3136  0.0903  0.8241
  172SAPE   C2319393   7.033   6.919   2.612  0.3162 -0.1706  0.0135
  172SAPE   H3R19394   7.134   6.946   2.573  0.0885  1.1460  0.2906
  172SAPE   H3S19395   7.042   6.809   2.619 -1.3351 -0.5339 -3.0220
  172SAPE   C2419396   7.034   6.978   2.760  0.2465  0.8631  0.3939
  172SAPE   H4R19397   7.051   7.086   2.746 -0.3654  0.8075 -0.9207
  172SAPE   H4S19398   7.122   6.931   2.808 -1.6638 -2.3817  0.8826
  172SAPE   C2519399   6.898   6.942   2.810  0.5746 -0.1221 -0.5845
  172SAPE   H5R19400   6.825   7.018   2.783 -0.3572 -0.8921 -0.2683
  172SAPE   C2619401   6.852   6.831   2.868 -0.2977  0.0008 -0.1372
  172SAPE   H6R19402   6.756   6.842   2.920 -0.7231 -0.4911 -0.8214
  172SAPE   C2719403   6.929   6.702   2.894  0.5928 -0.2537 -0.1700
  172SAPE   H7R19404   7.012   6.727   2.964  1.2161 -0.1468 -0.9454
  172SAPE   H7S19405   6.984   6.666   2.805 -0.3255 -1.4480 -0.2529
  172SAPE   C2819406   6.849   6.587   2.954  0.2552 -0.4272  0.0875
  172SAPE   H8R19407   6.847   6.493   2.897 -1.2342 -2.1328  2.8881
  172SAPE   C2919408   6.799   6.580   3.077 -0.2246  0.5572 -0.5963
  172SAPE   H9R19409   6.776   6.477   3.109 -1.1079  0.5926 -1.0874
  172SAPE  C21019410   6.821   6.692   3.184  0.0024 -0.5933 -0.1316
  172SAPE  H10R19411   6.753   6.778   3.171  0.6014  0.0160  0.7417
  172SAPE  H10S19412   6.923   6.736   3.173 -1.5288  3.4915  1.1376
  172SAPE  C21119413   6.803   6.629   3.320  0.9473  0.0918  0.1221
  172SAPE  H11R19414   6.714   6.565   3.334  0.5501  0.1620 -1.8928
  172SAPE  C21219415   6.874   6.640   3.426 -0.8016  0.2373  0.7469
  172SAPE  H12R19416   6.849   6.569   3.507  0.2826  1.3915  2.1294
  172SAPE  C21319417   7.005   6.728   3.433  0.2816  0.2527 -0.1188
  172SAPE  H13R19418   7.039   6.758   3.332 -0.6607 -0.6807 -0.7214
  172SAPE  H13S19419   7.098   6.674   3.462  0.6893  0.8702 -0.2480
  172SAPE  C21419420   6.969   6.851   3.513 -0.1124 -0.0083  0.5771
  172SAPE  H14R19421   6.900   6.922   3.465  3.1317  1.5822 -1.9274
  172SAPE  C21519422   7.000   6.878   3.641 -0.0337 -0.3825 -0.0605
  172SAPE  H15R19423   6.974   6.975   3.686  1.1113 -0.4260  0.7422
  172SAPE  C21619424   7.078   6.789   3.728  0.0747  0.1989  0.3157
  172SAPE  H16R19425   7.187   6.806   3.715 -0.0821  0.4134 -0.8313
  172SAPE  H16S19426   7.066   6.680   3.710 -1.7521  0.1845  1.5043
  172SAPE  C21719427   7.040   6.808   3.877 -0.4274 -0.2526 -0.4091
  172SAPE  H17R19428   6.943   6.754   3.882 -1.6832  2.1742  2.2705
  172SAPE  H17S19429   7.026   6.912   3.911 -1.5714 -0.7815  0.7803
  172SAPE  C21819430   7.139   6.741   3.961 -0.1525  0.1299 -0.1450
  172SAPE  H18R19431   7.244   6.777   3.950  0.3231 -1.1408  0.1904
  172SAPE  H18S19432   7.148   6.633   3.935  1.6892 -0.3344  2.2566
  172SAPE  C21919433   7.103   6.761   4.113  0.7343 -0.4358  0.0564
  172SAPE  H19R19434   7.006   6.725   4.154  1.2891 -1.2224  0.7026
  172SAPE  H19S19435   7.101   6.870   4.131 -0.4552  0.0984 -2.9931
  172SAPE  C22019436   7.209   6.702   4.203 -0.2307 -0.0715 -0.0944
  172SAPE  H20R19437   7.179   6.736   4.304  2.0668 -0.9866  0.9248
  172SAPE  H20S19438   7.314   6.735   4.197 -0.5963  0.7734 -2.6525
  172SAPE  H20T19439   7.205   6.591   4.204  1.3121 -0.1495 -0.9425
  172SAPE   C3319440   6.541   6.669   2.407  0.6038  0.1161 -0.6451
  172SAPE   H3X19441   6.445   6.614   2.415  1.4529 -1.4483 -1.0301
  172SAPE   H3Y19442   6.534   6.761   2.468  0.2001  1.8467 -3.2243
  172SAPE   C3419443   6.657   6.577   2.448 -0.5617  0.4032 -0.3914
  172SAPE   H4X19444   6.756   6.626   2.435  0.2213 -0.4599  2.0867
  172SAPE   H4Y19445   6.644   6.491   2.380 -2.1031  1.6548 -1.7384
  172SAPE   C3519446   6.641   6.516   2.584 -0.4681  0.4873 -0.8595
  172SAPE   H5X19447   6.666   6.586   2.667  0.6919  0.8761 -1.5114
  172SAPE   H5Y19448   6.715   6.433   2.579 -0.1749  0.7475 -0.9023
  172SAPE   C3619449   6.505   6.450   2.603 -0.3132  0.5420  0.3783
  172SAPE   H6X19450   6.469   6.395   2.513  2.4346  1.8230 -1.5830
  172SAPE   H6Y19451   6.433   6.528   2.635 -0.6332  0.0240  0.9423
  172SAPE   C3719452   6.484   6.346   2.716 -0.4748  0.8359  0.4121
  172SAPE   H7X19453   6.566   6.271   2.720 -2.0346 -0.8977  0.8008
  172SAPE   H7Y19454   6.392   6.286   2.697 -0.2386  0.4699  0.4098
  172SAPE   C3819455   6.476   6.412   2.860  0.0112 -0.0573 -0.8551
  172SAPE   H8X19456   6.399   6.493   2.857 -0.1452 -0.0575  1.9274
  172SAPE   H8Y19457   6.569   6.465   2.891  1.6613 -1.8798 -2.5634
  172SAPE   C3919458   6.432   6.308   2.960  0.1681  0.2968  0.6965
  172SAPE   H9X19459   6.502   6.222   2.952  0.9318  1.0599 -0.9841
  172SAPE   H9Y19460   6.335   6.263   2.931 -0.0319  0.1075  1.6317
  172SAPE  C31019461   6.419   6.339   3.114  1.3113  1.0176  0.5644
  172SAPE  H10X19462   6.519   6.327   3.160  2.4195 -0.6399 -2.1754
  172SAPE  H10Y19463   6.357   6.259   3.159  0.3551  1.1852 -0.4314
  172SAPE  C31119464   6.372   6.476   3.148 -0.1120 -0.5531  0.0058
  172SAPE  H11X19465   6.279   6.512   3.099 -1.1690 -2.7588  0.2913
  172SAPE  H11Y19466   6.447   6.554   3.123 -3.1681  2.5503  0.1998
  172SAPE  C31219467   6.354   6.502   3.298 -0.0247  0.0847 -0.4402
  172SAPE  H12X19468   6.442   6.456   3.348  0.4871  2.5512  1.0238
  172SAPE  H12Y19469   6.262   6.457   3.339  0.2691 -0.6663 -0.5915
  172SAPE  C31319470   6.377   6.652   3.324  0.3722  0.0684 -0.2482
  172SAPE  H13X19471   6.303   6.716   3.271  1.3894  1.6514  0.1904
  172SAPE  H13Y19472   6.480   6.684   3.298  0.1284  0.0120 -1.3053
  172SAPE  C31419473   6.367   6.676   3.480  0.1952  0.0055 -0.3532
  172SAPE  H14X19474   6.466   6.640   3.516 -0.6983  0.4563  2.6786
  172SAPE  H14Y19475   6.292   6.610   3.528  2.1169 -1.7109  0.3573
  172SAPE  C31519476   6.348   6.821   3.532  0.0580  0.0376  0.1833
  172SAPE  H15X19477   6.253   6.869   3.498 -0.0869 -0.6994 -0.4685
  172SAPE  H15Y19478   6.433   6.882   3.494 -0.2924  0.5858  0.2742
  172SAPE  C31619479   6.346   6.820   3.689 -0.3137  0.1269  0.3834
  172SAPE  H16X19480   6.437   6.771   3.729  0.4671  1.5448  0.3767
  172SAPE  H16Y19481   6.269   6.759   3.740  0.2704  0.3725  1.5914
  172SAPE  C31719482   6.325   6.958   3.750  0.4562  0.6064  0.4408
  172SAPE  H17X19483   6.222   6.986   3.718  0.9813  0.7176 -1.1973
  172SAPE  H17Y19484   6.398   7.028   3.705  0.9443 -0.5207 -0.5577
  172SAPE  C31819485   6.324   6.971   3.903  0.3557 -0.2545 -0.7809
  172SAPE  H18X19486   6.261   6.897   3.956 -0.7760  1.4735  0.3531
  172SAPE  H18Y19487   6.277   7.065   3.941 -0.1439 -1.9299  2.9398
  172SAPE  H18Z19488   6.425   6.963   3.948  0.1067  0.0965 -0.1530
  173SLPC     N19489   5.470   2.926   6.032  0.4670 -0.2580 -0.5302
  173SLPC   C1319490   5.444   2.823   6.143 -0.2513 -0.2242 -0.0323
  173SLPC  H13A19491   5.536   2.798   6.193  0.6988  1.4249 -0.9146
  173SLPC  H13B19492   5.383   2.876   6.215  0.9695 -0.2620  1.0498
  173SLPC  H13C19493   5.387   2.739   6.105 -1.6279  1.3789 -1.5976
  173SLPC   C1419494   5.350   2.918   5.948 -0.0527 -0.2788  0.4073
  173SLPC  H14A19495   5.264   2.944   6.008 -1.8957 -0.0171 -2.2721
  173SLPC  H14B19496   5.361   2.987   5.866  0.1534 -0.4163  0.3178
  173SLPC  H14C19497   5.332   2.821   5.904  0.3344  1.1687 -3.1323
  173SLPC   C1519498   5.592   2.875   5.958  0.3391 -0.5878  0.2388
  173SLPC  H15A19499   5.683   2.884   6.016 -1.1287  1.9668  2.3122
  173SLPC  H15B19500   5.576   2.773   5.928 -1.2418  0.0458 -1.1526
  173SLPC  H15C19501   5.607   2.941   5.874 -1.8643  1.1127  1.1163
  173SLPC   C1219502   5.493   3.059   6.098  0.2061 -0.1190  0.2054
  173SLPC  H12A19503   5.592   3.065   6.141  0.6794  0.8473 -0.9586
  173SLPC  H12B19504   5.419   3.061   6.176  1.3790  2.0440  1.3281
  173SLPC   C1119505   5.496   3.187   6.007  0.0203  0.1910 -0.1832
  173SLPC  H11A19506   5.514   3.275   6.073 -1.5905  1.1890 -1.0228
  173SLPC  H11B19507   5.395   3.197   5.962  0.1060  0.2800 -0.3580
  173SLPC     P19508   5.744   3.189   5.940  0.1770 -0.2654  0.0655
  173SLPC   O1319509   5.799   3.326   5.919  0.1674 -0.0855 -0.3113
  173SLPC   O1419510   5.764   3.132   6.072 -0.2861  0.5626  0.1086
  173SLPC   O1219511   5.589   3.181   5.897  0.0054 -0.8188 -0.2479
  173SLPC   O1119512   5.793   3.089   5.825 -0.0651  0.1799 -0.2455
  173SLPC    C119513   5.912   3.007   5.833 -0.0111  0.3674  0.0142
  173SLPC    HA19514   5.918   2.959   5.933 -0.1240  0.1296 -0.0925
  173SLPC    HB19515   5.889   2.926   5.760 -2.2173 -0.6508  1.7696
  173SLPC    C219516   6.030   3.085   5.799  0.0211  0.1071  0.0260
  173SLPC    HS19517   6.027   3.178   5.860  1.3956  0.8663 -1.0436
  173SLPC   O2119518   6.027   3.112   5.655  0.1852  0.1462 -0.1443
  173SLPC   C2119519   6.020   3.241   5.639  0.1709 -0.1978 -0.0986
  173SLPC   O2219520   6.072   3.322   5.715 -0.7266  0.1729  0.3816
  173SLPC   C2219521   5.947   3.284   5.511 -0.1298  0.1500 -0.4594
  173SLPC   H2R19522   5.838   3.281   5.535 -0.2019 -1.4417 -0.9268
  173SLPC   H2S19523   5.970   3.390   5.487 -0.1316  0.3900  0.5793
  173SLPC    C319524   6.159   3.008   5.832  0.3319  0.1929  0.0820
  173SLPC    HX19525   6.158   2.993   5.942 -0.6016 -0.5530 -0.0228
  173SLPC    HY19526   6.258   3.055   5.810  0.8527 -0.3314  1.2541
  173SLPC   O3119527   6.156   2.871   5.792 -0.1480  1.4183  0.3089
  173SLPC   C3119528   6.229   2.853   5.677  0.0508  0.7546  0.5081
  173SLPC   O3219529   6.301   2.933   5.624 -0.3347 -0.0879 -0.4627
  173SLPC   C3219530   6.201   2.708   5.624 -0.2283 -0.6100 -0.2496
  173SLPC   H2X19531   6.252   2.634   5.689  0.7159  1.1405  1.0792
  173SLPC   H2Y19532   6.251   2.697   5.525  1.7340 -0.8484  0.7284
  173SLPC   C2319533   5.982   3.189   5.390 -0.0840  0.0929 -0.1680
  173SLPC   H3R19534   5.978   3.081   5.415 -1.9154  0.3139  0.5348
  173SLPC   H3S19535   6.080   3.216   5.346 -0.8236  3.2746  0.0172
  173SLPC   C2419536   5.888   3.209   5.277 -0.0109  0.2734 -0.5405
  173SLPC   H4R19537   5.885   3.319   5.261  2.8741  0.4969  0.3098
  173SLPC   H4S19538   5.789   3.167   5.305  0.0469  0.8181  0.5094
  173SLPC   C2519539   5.930   3.152   5.137  0.7407 -0.2737 -0.0320
  173SLPC   H5R19540   5.834   3.137   5.083  1.0788 -1.9257 -0.1832
  173SLPC   H5S19541   5.968   3.048   5.130 -0.8885 -0.8024 -1.5623
  173SLPC   C2619542   5.994   3.256   5.052  0.1929  0.5503  0.5321
  173SLPC   H6R19543   5.947   3.356   5.043 -1.1654 -0.0319  1.1270
  173SLPC   H6S19544   6.001   3.214   4.950 -0.9029  1.1229  0.2217
  173SLPC   C2719545   6.140   3.282   5.089 -0.3288 -0.1482  0.1033
  173SLPC   H7R19546   6.150   3.329   5.189 -0.5835 -1.7177  0.8722
  173SLPC   H7S19547   6.179   3.362   5.022  0.5534 -0.3864  0.3257
  173SLPC   C2819548   6.228   3.156   5.086 -1.0645  0.2199  0.0725
  173SLPC   H8R19549   6.207   3.098   4.994 -3.0874 -0.9159  1.2065
  173SLPC   H8S19550   6.182   3.085   5.158  1.7106 -0.5648  1.1267
  173SLPC   C2919551   6.372   3.167   5.126  0.2596 -0.0943 -0.1633
  173SLPC   H9R19552   6.377   3.190   5.234 -1.4611  0.6011 -0.2161
  173SLPC  C21019553   6.486   3.135   5.055  0.4011 -0.8058  0.4691
  173SLPC  H10R19554   6.582   3.141   5.108  0.3816  0.6067  0.3683
  173SLPC  C21119555   6.489   3.086   4.909 -0.1259 -0.0268 -0.0256
  173SLPC  H11R19556   6.538   3.163   4.846 -3.3955  1.7920 -0.4570
  173SLPC  H11S19557   6.389   3.075   4.861  0.0058 -0.1761 -0.2649
  173SLPC  C21219558   6.547   2.951   4.895  0.2577 -0.1078  0.3583
  173SLPC  H12R19559   6.515   2.881   4.973  0.1963 -1.1817 -0.6114
  173SLPC  C21319560   6.644   2.911   4.810 -0.1275 -0.1369 -0.8724
  173SLPC  H13R19561   6.696   2.814   4.818 -0.2073 -0.2383 -1.5542
  173SLPC  C21419562   6.712   3.012   4.715  0.0113 -0.0310 -0.4202
  173SLPC  H14R19563   6.783   3.082   4.766 -0.1025  0.1037 -0.4465
  173SLPC  H14S19564   6.634   3.072   4.662 -0.6514  0.0133  0.5967
  173SLPC  C21519565   6.799   2.933   4.614 -0.3354  0.5143 -0.1349
  173SLPC  H15R19566   6.883   2.886   4.670 -2.4524 -1.7425  1.2649
  173SLPC  H15S19567   6.838   3.003   4.537  0.7385  0.1181  0.0364
  173SLPC  C21619568   6.728   2.831   4.530 -0.1455 -0.0289  0.3085
  173SLPC  H16R19569   6.661   2.901   4.475  1.0679  1.1237  0.2543
  173SLPC  H16S19570   6.661   2.763   4.586 -0.7606  0.1110 -0.2455
  173SLPC  C21719571   6.820   2.744   4.442 -1.1079 -0.1211  0.1667
  173SLPC  H17R19572   6.893   2.692   4.507 -0.9054  1.8074  1.5195
  173SLPC  H17S19573   6.884   2.816   4.386  0.9503 -1.4060  0.8082
  173SLPC  C21819574   6.730   2.665   4.350 -0.1297  0.1645 -0.4207
  173SLPC  H18R19575   6.662   2.607   4.416  0.9901 -0.9140 -0.1991
  173SLPC  H18S19576   6.808   2.601   4.304  1.5191  0.7247  1.4625
  173SLPC  H18T19577   6.689   2.728   4.269 -0.3217 -0.5948 -0.9128
  173SLPC   C3319578   6.048   2.677   5.631 -0.6530 -0.5995 -0.1632
  173SLPC   H3X19579   6.021   2.685   5.738  0.5444  1.6107  0.0209
  173SLPC   H3Y19580   6.040   2.575   5.588 -2.5904 -0.4397 -0.2142
  173SLPC   C3419581   5.954   2.754   5.528  0.0408 -0.9729 -0.7103
  173SLPC   H4X19582   5.976   2.727   5.423 -0.0547 -0.1375 -0.9512
  173SLPC   H4Y19583   5.970   2.864   5.539 -1.0917 -0.6024 -2.5520
  173SLPC   C3519584   5.811   2.724   5.555 -0.1022 -0.4069 -0.7360
  173SLPC   H5X19585   5.801   2.741   5.664 -0.2873  0.8510 -0.9469
  173SLPC   H5Y19586   5.788   2.621   5.520 -0.3180 -0.6586  0.1364
  173SLPC   C3619587   5.724   2.825   5.484  0.0405 -0.7967 -0.6181
  173SLPC   H6X19588   5.766   2.924   5.509 -1.2109  0.0512 -1.7726
  173SLPC   H6Y19589   5.626   2.808   5.533  0.1317  0.5019  0.0341
  173SLPC   C3719590   5.722   2.802   5.332  0.3640  0.1259  0.7152
  173SLPC   H7X19591   5.710   2.692   5.315 -3.1184  0.2862  1.6691
  173SLPC   H7Y19592   5.821   2.830   5.291 -0.6062  0.7669 -1.2782
  173SLPC   C3819593   5.619   2.886   5.263 -0.4113  0.5702  0.5505
  173SLPC   H8X19594   5.629   2.992   5.296 -3.4084  0.6185  1.5001
  173SLPC   H8Y19595   5.518   2.852   5.294 -1.0486  2.1881  0.3391
  173SLPC   C3919596   5.623   2.864   5.113  0.5454  0.2599  0.1611
  173SLPC   H9X19597   5.606   2.755   5.102  1.2424  0.2772 -1.3017
  173SLPC   H9Y19598   5.725   2.895   5.081  0.9797 -2.6937 -1.5184
  173SLPC  C31019599   5.510   2.937   5.038  0.5715 -0.5669 -0.3606
  173SLPC  H10X19600   5.504   3.040   5.079  1.4346 -0.9685  0.8043
  173SLPC  H10Y19601   5.412   2.895   5.070 -0.1103  0.4545 -1.0885
  173SLPC  C31119602   5.516   2.917   4.885  0.0796  0.0533 -0.0349
  173SLPC  H11X19603   5.414   2.917   4.840 -0.1530 -0.3838  0.4887
  173SLPC  H11Y19604   5.560   2.817   4.868  1.0036  0.4457  0.0009
  173SLPC  C31219605   5.610   3.023   4.831  0.9018 -0.3177 -0.1990
  173SLPC  H12X19606   5.705   3.015   4.888  1.4583 -2.5465 -1.3741
  173SLPC  H12Y19607   5.567   3.123   4.854 -0.1426 -0.4998 -1.3217
  173SLPC  C31319608   5.649   3.012   4.683  0.6710  0.0242  0.2084
  173SLPC  H13X19609   5.565   3.054   4.623  1.2756  1.4909  0.3757
  173SLPC  H13Y19610   5.661   2.904   4.659  1.9699  0.3595 -0.6595
  173SLPC  C31419611   5.784   3.087   4.670  0.2672  0.8707  0.3786
  173SLPC  H14X19612   5.857   3.056   4.748 -0.9236  1.0733  1.5992
  173SLPC  H14Y19613   5.758   3.193   4.692  0.4470  0.8279  0.7887
  173SLPC  C31519614   5.850   3.061   4.526  0.2277 -0.0819 -0.0401
  173SLPC  H15X19615   5.772   3.083   4.450  1.4744 -0.3299 -1.4155
  173SLPC  H15Y19616   5.867   2.953   4.507  2.7238  0.6462 -2.1207
  173SLPC  C31619617   5.978   3.145   4.492  0.7290 -0.0316  1.0957
  173SLPC  H16X19618   6.056   3.139   4.571  1.8093  3.6958  0.3948
  173SLPC  H16Y19619   5.943   3.247   4.465  1.7042 -0.6280 -2.6786
  173SLPC  C31719620   6.044   3.104   4.356 -0.2560 -0.1856  0.5783
  173SLPC  H17X19621   5.967   3.102   4.275 -0.3563  0.4843  0.6527
  173SLPC  H17Y19622   6.084   3.001   4.369 -0.2438 -0.0865  1.3948
  173SLPC  C31819623   6.157   3.189   4.308  0.7104  0.2451 -0.6923
  173SLPC  H18X19624   6.130   3.294   4.330  0.4917  0.2212 -0.8460
  173SLPC  H18Y19625   6.173   3.172   4.199  2.6346  0.0018 -0.3954
  173SLPC  H18Z19626   6.252   3.158   4.355 -0.8552  0.5212  2.7969
  174SLPC     N19627   1.547   1.564   5.851 -0.0053 -0.4424 -0.4009
  174SLPC   C1319628   1.506   1.677   5.767 -0.2278 -0.0735 -0.2529
  174SLPC  H13A19629   1.425   1.723   5.822  1.5315  1.5138  1.0211
  174SLPC  H13B19630   1.577   1.757   5.772 -0.1984 -0.0892 -0.4000
  174SLPC  H13C19631   1.461   1.655   5.671  2.1156  0.6129 -1.5240
  174SLPC   C1419632   1.456   1.449   5.810  0.1278  0.2841  0.3621
  174SLPC  H14A19633   1.477   1.417   5.709 -0.5337  2.0143 -0.3447
  174SLPC  H14B19634   1.471   1.364   5.875  0.9353 -1.4163 -1.9637
  174SLPC  H14C19635   1.352   1.476   5.824  0.8088  2.0658  2.3704
  174SLPC   C1519636   1.519   1.601   5.995  0.2961 -0.2084  1.0642
  174SLPC  H15A19637   1.544   1.529   6.072 -0.8412 -0.4699  1.1927
  174SLPC  H15B19638   1.557   1.697   6.028  1.6599 -0.5888  0.6396
  174SLPC  H15C19639   1.412   1.611   6.003  0.5221  1.8403  2.0470
  174SLPC   C1219640   1.690   1.534   5.825 -0.4213  0.3287  0.0021
  174SLPC  H12A19641   1.699   1.489   5.727  2.0486 -0.0507  0.3624
  174SLPC  H12B19642   1.727   1.460   5.895  1.6813  1.6607  0.3268
  174SLPC   C1119643   1.798   1.646   5.823  0.3211 -0.1953  0.3003
  174SLPC  H11A19644   1.775   1.727   5.750 -0.3001  0.4057  1.1509
  174SLPC  H11B19645   1.894   1.608   5.783  0.6610  1.2363 -0.3044
  174SLPC     P19646   1.925   1.628   6.042  0.2586 -0.1890 -0.6726
  174SLPC   O1319647   1.877   1.641   6.182 -0.4351  0.1882 -0.2672
  174SLPC   O1419648   1.940   1.492   5.989 -0.5400  0.1797  0.1907
  174SLPC   O1219649   1.820   1.705   5.958 -0.4692 -0.4957  0.3881
  174SLPC   O1119650   2.054   1.717   6.017 -0.0835  0.2467  0.1512
  174SLPC    C119651   2.140   1.692   5.907 -0.1488 -0.1612  0.4042
  174SLPC    HA19652   2.238   1.671   5.955 -0.2989 -1.5881  0.0936
  174SLPC    HB19653   2.111   1.606   5.843 -0.3564 -1.3520  2.0900
  174SLPC    C219654   2.166   1.818   5.819 -0.0136  0.0930 -0.1861
  174SLPC    HS19655   2.173   1.909   5.883 -1.1101 -0.4064  0.6631
  174SLPC   O2119656   2.052   1.837   5.728  0.6650  0.3407 -0.2406
  174SLPC   C2119657   2.030   1.956   5.671  0.2081 -0.1612  0.3683
  174SLPC   O2219658   2.088   2.059   5.696  0.1392 -0.1975  0.1883
  174SLPC   C2219659   1.898   1.948   5.606 -0.2055 -0.4633  0.8291
  174SLPC   H2R19660   1.881   1.847   5.561  0.0031 -1.1797  2.3216
  174SLPC   H2S19661   1.820   1.947   5.685 -2.1829 -1.7975 -1.0579
  174SLPC    C319662   2.302   1.797   5.751 -0.0936  0.8118  0.1755
  174SLPC    HX19663   2.387   1.778   5.819  0.1802 -0.2351 -0.4473
  174SLPC    HY19664   2.338   1.894   5.710 -2.0234  0.7091 -1.8636
  174SLPC   O3119665   2.292   1.689   5.653  0.2042  0.4843  0.0107
  174SLPC   C3119666   2.277   1.730   5.523 -0.7617  0.8765 -0.2305
  174SLPC   O3219667   2.292   1.839   5.479  0.2617  0.4434 -0.5166
  174SLPC   C3219668   2.243   1.600   5.437 -0.0011 -0.2997  0.0670
  174SLPC   H2X19669   2.198   1.526   5.507  0.0089 -0.0871  0.3004
  174SLPC   H2Y19670   2.339   1.552   5.407  1.6270  2.3740  0.7615
  174SLPC   C2319671   1.877   2.067   5.508 -0.2081  0.1557 -0.8719
  174SLPC   H3R19672   1.957   2.073   5.431  0.9673  0.5876  0.3805
  174SLPC   H3S19673   1.872   2.164   5.561  1.6557  0.4466 -1.2052
  174SLPC   C2419674   1.744   2.036   5.441 -0.3453 -0.6173  0.4562
  174SLPC   H4R19675   1.667   2.025   5.520  1.0280 -0.2779  1.8901
  174SLPC   H4S19676   1.756   1.942   5.383  1.6862 -0.0763 -0.0494
  174SLPC   C2519677   1.701   2.144   5.346  0.4371 -0.3341  0.1108
  174SLPC   H5R19678   1.787   2.152   5.276 -1.2908 -2.2841 -2.3311
  174SLPC   H5S19679   1.673   2.233   5.405 -0.1491 -0.8743  0.6630
  174SLPC   C2619680   1.583   2.104   5.260  0.7685  0.1207 -0.1717
  174SLPC   H6R19681   1.487   2.120   5.312  1.9167  3.2076  1.0993
  174SLPC   H6S19682   1.592   1.995   5.238  0.3285 -0.3708  1.9711
  174SLPC   C2719683   1.568   2.175   5.123 -0.7255 -0.0543 -0.0040
  174SLPC   H7R19684   1.492   2.126   5.058 -0.5654  0.1766 -0.3629
  174SLPC   H7S19685   1.664   2.165   5.069 -1.2843  3.4151 -1.7767
  174SLPC   C2819686   1.536   2.322   5.132  0.1039 -0.2037  0.3329
  174SLPC   H8R19687   1.548   2.377   5.036 -1.1123  0.0210  0.2995
  174SLPC   H8S19688   1.609   2.375   5.197 -0.4771  1.1976 -0.1259
  174SLPC   C2919689   1.396   2.353   5.179  0.5225  0.7643  0.2926
  174SLPC   H9R19690   1.384   2.348   5.288 -2.8918  0.3002 -0.0335
  174SLPC  C21019691   1.292   2.390   5.101  0.2887  0.5142  0.4342
  174SLPC  H10R19692   1.199   2.428   5.144  1.1792  0.8980  2.0381
  174SLPC  C21119693   1.305   2.402   4.946  0.3585  0.7527  0.6693
  174SLPC  H11R19694   1.389   2.339   4.908 -0.0337  2.0306 -2.4575
  174SLPC  H11S19695   1.332   2.504   4.913  1.3381 -0.0828 -1.1876
  174SLPC  C21219696   1.168   2.359   4.885  0.1827  0.2629  0.0886
  174SLPC  H12R19697   1.081   2.421   4.911 -0.3855 -0.5392  0.1129
  174SLPC  C21319698   1.146   2.265   4.787  0.2000  0.2638  0.0197
  174SLPC  H13R19699   1.042   2.247   4.759 -0.1282  0.4370  1.1287
  174SLPC  C21419700   1.255   2.188   4.721  0.1559  0.2138 -0.6428
  174SLPC  H14R19701   1.313   2.138   4.802  1.9577  4.0738  0.6086
  174SLPC  H14S19702   1.321   2.252   4.658  2.0004 -0.3932  0.6386
  174SLPC  C21519703   1.191   2.082   4.618 -0.1039 -0.2730 -0.0311
  174SLPC  H15R19704   1.139   2.137   4.536  0.1526  0.6629  0.4315
  174SLPC  H15S19705   1.113   2.024   4.672  0.1956  0.2203  0.9505
  174SLPC  C21619706   1.294   1.984   4.563 -0.2635  0.0802  0.1938
  174SLPC  H16R19707   1.342   1.943   4.656 -1.3088 -0.2765  0.5851
  174SLPC  H16S19708   1.358   2.052   4.504 -0.4510  0.1338  0.0538
  174SLPC  C21719709   1.233   1.865   4.480 -0.0686 -0.2867 -0.2355
  174SLPC  H17R19710   1.169   1.809   4.551  0.8901 -0.8503  0.1890
  174SLPC  H17S19711   1.312   1.792   4.453  0.2099 -1.9213  4.5618
  174SLPC  C21819712   1.161   1.902   4.352  0.2460  0.2224 -0.0209
  174SLPC  H18R19713   1.228   1.952   4.279  0.3844  1.9241  1.2533
  174SLPC  H18S19714   1.080   1.973   4.378  1.4771  1.3539  0.7908
  174SLPC  H18T19715   1.126   1.814   4.293  2.3171 -1.1760  0.7543
  174SLPC   C3319716   2.150   1.619   5.313 -0.2128 -0.4410  0.1952
  174SLPC   H3X19717   2.218   1.623   5.225 -2.3036 -0.8977 -1.4827
  174SLPC   H3Y19718   2.088   1.710   5.329  0.7443  0.4236 -0.8818
  174SLPC   C3419719   2.063   1.497   5.280  0.6563 -0.6654 -0.3244
  174SLPC   H4X19720   1.984   1.503   5.358  1.1745  0.0732  0.1493
  174SLPC   H4Y19721   2.128   1.407   5.285  1.0333 -0.4762 -1.6158
  174SLPC   C3519722   1.981   1.514   5.147 -0.4229  0.5563 -0.3561
  174SLPC   H5X19723   1.942   1.425   5.094  0.0755  1.5461 -2.4360
  174SLPC   H5Y19724   2.046   1.554   5.067 -1.0720  0.6708 -0.8337
  174SLPC   C3619725   1.873   1.624   5.160 -0.1502 -0.4788 -0.1615
  174SLPC   H6X19726   1.912   1.719   5.203  0.0261 -0.2124 -0.9021
  174SLPC   H6Y19727   1.795   1.583   5.228 -2.3815  2.7780 -0.6316
  174SLPC   C3719728   1.790   1.637   5.023  0.3704  0.8506  0.0037
  174SLPC   H7X19729   1.711   1.712   5.048 -1.6021 -0.6969 -1.3954
  174SLPC   H7Y19730   1.741   1.541   4.997  1.2708 -0.0840  1.7055
  174SLPC   C3819731   1.858   1.686   4.901  0.2999  0.3861 -0.0222
  174SLPC   H8X19732   1.944   1.749   4.935 -0.7059  1.7042  0.1363
  174SLPC   H8Y19733   1.796   1.755   4.841 -0.1230 -0.7806 -0.9369
  174SLPC   C3919734   1.907   1.573   4.813  0.1133  0.5578  0.0561
  174SLPC   H9X19735   1.823   1.550   4.744 -1.3587  0.5937  1.7742
  174SLPC   H9Y19736   1.934   1.487   4.879 -0.5244  0.7371  0.5624
  174SLPC  C31019737   2.028   1.603   4.727 -0.0995 -0.5219 -0.1440
  174SLPC  H10X19738   2.126   1.618   4.777 -0.0696 -2.4441  0.4055
  174SLPC  H10Y19739   2.002   1.698   4.675  1.0524 -0.7831 -1.2067
  174SLPC  C31119740   2.044   1.502   4.617  0.6648 -0.7612  0.5356
  174SLPC  H11X19741   1.955   1.520   4.553  0.2911 -2.4827  0.5482
  174SLPC  H11Y19742   2.035   1.398   4.656  0.1810 -1.9688 -2.5882
  174SLPC  C31219743   2.175   1.508   4.529 -0.7657 -0.3213 -0.0696
  174SLPC  H12X19744   2.165   1.425   4.456 -3.7754  1.6497 -1.9572
  174SLPC  H12Y19745   2.266   1.502   4.593  0.0946  1.7371 -1.0598
  174SLPC  C31319746   2.202   1.646   4.459  0.8767 -0.0069 -0.0300
  174SLPC  H13X19747   2.217   1.726   4.535 -3.0640  3.6716 -2.9215
  174SLPC  H13Y19748   2.107   1.670   4.408 -0.0743  0.3958  1.8707
  174SLPC  C31419749   2.317   1.650   4.360  0.4549  0.4932  0.4726
  174SLPC  H14X19750   2.332   1.755   4.326 -2.1295  0.8635  0.3603
  174SLPC  H14Y19751   2.305   1.580   4.275  1.1873 -0.0606  0.8224
  174SLPC  C31519752   2.460   1.626   4.422  0.4177 -0.1660  0.6889
  174SLPC  H15X19753   2.451   1.521   4.458 -0.8153 -1.5295 -3.3033
  174SLPC  H15Y19754   2.481   1.685   4.514 -0.4748  1.0019  0.1537
  174SLPC  C31619755   2.580   1.648   4.326 -0.0215 -0.2304  0.0599
  174SLPC  H16X19756   2.554   1.732   4.257 -0.2996  1.1598  1.8295
  174SLPC  H16Y19757   2.582   1.563   4.255  0.6980  1.2508 -1.7496
  174SLPC  C31719758   2.730   1.655   4.384  0.0103 -0.0608 -0.3572
  174SLPC  H17X19759   2.727   1.603   4.483 -1.4162 -1.6652 -1.2219
  174SLPC  H17Y19760   2.765   1.757   4.411  0.5994 -0.7653  1.6544
  174SLPC  C31819761   2.824   1.582   4.300 -0.1200 -0.1025  0.5600
  174SLPC  H18X19762   2.795   1.475   4.294  0.0199 -0.0142 -2.3070
  174SLPC  H18Y19763   2.923   1.587   4.351 -0.3291 -1.1275  1.0716
  174SLPC  H18Z19764   2.828   1.618   4.195  3.0396  1.8836  1.2848
  175SLPC     N19765   6.631   4.234   6.075 -0.4902 -0.1274 -0.4463
  175SLPC   C1319766   6.492   4.237   6.112  0.5781  0.6252  0.2117
  175SLPC  H13A19767   6.454   4.334   6.141  3.5063  1.5724  0.9772
  175SLPC  H13B19768   6.432   4.208   6.027 -1.2433  1.0298  1.3330
  175SLPC  H13C19769   6.469   4.173   6.196  0.6989  3.5950  2.5925
  175SLPC   C1419770   6.667   4.097   6.026  1.5500 -0.4377 -0.8452
  175SLPC  H14A19771   6.654   4.025   6.106 -1.4340  1.2885  0.3002
  175SLPC  H14B19772   6.615   4.066   5.937 -0.2542 -0.1883  0.1064
  175SLPC  H14C19773   6.772   4.085   6.002  2.0381 -0.8986  1.4360
  175SLPC   C1519774   6.709   4.263   6.202  0.0397 -0.2995 -0.2792
  175SLPC  H15A19775   6.694   4.366   6.231 -2.7231 -0.5390 -0.7030
  175SLPC  H15B19776   6.679   4.213   6.293 -3.9333  1.8897 -0.2704
  175SLPC  H15C19777   6.815   4.249   6.189 -0.0319 -0.6721 -0.4684
  175SLPC   C1219778   6.655   4.334   5.970  0.3969 -0.2829  0.6846
  175SLPC  H12A19779   6.609   4.424   6.007  0.9576  0.2880  0.0201
  175SLPC  H12B19780   6.600   4.318   5.878  0.1702  1.6374  0.4772
  175SLPC   C1119781   6.795   4.355   5.912  0.0414  0.0766  0.3456
  175SLPC  H11A19782   6.788   4.441   5.842  1.2625 -0.9555 -1.0745
  175SLPC  H11B19783   6.823   4.261   5.859  0.6113  0.6265 -0.3284
  175SLPC     P19784   6.925   4.525   6.073 -0.0999 -0.3876  0.1492
  175SLPC   O1319785   6.850   4.538   6.200  0.0467 -0.1401 -0.5382
  175SLPC   O1419786   7.069   4.542   6.085 -0.4074 -0.4666 -0.5656
  175SLPC   O1219787   6.894   4.384   6.011  0.2649  0.2501  0.4103
  175SLPC   O1119788   6.867   4.641   5.974  0.7378 -0.4499 -0.7636
  175SLPC    C119789   6.926   4.664   5.848 -0.6007 -0.0303  0.5267
  175SLPC    HA19790   7.009   4.735   5.872 -0.0311 -0.1394 -1.0220
  175SLPC    HB19791   6.965   4.572   5.800 -1.8462  0.7393 -2.0632
  175SLPC    C219792   6.833   4.746   5.748  0.3042  0.6224 -0.0357
  175SLPC    HS19793   6.780   4.813   5.819  1.3963  0.2191  1.1702
  175SLPC   O2119794   6.748   4.654   5.683 -0.1814  0.2540 -0.4186
  175SLPC   C2119795   6.645   4.709   5.631  0.3480  0.1565  0.1556
  175SLPC   O2219796   6.619   4.829   5.619  0.0391  0.0462  0.1238
  175SLPC   C2219797   6.551   4.591   5.583 -0.4185 -0.3891  0.8300
  175SLPC   H2R19798   6.572   4.505   5.649 -0.0129 -0.5152  0.5365
  175SLPC   H2S19799   6.445   4.620   5.599 -0.7350 -1.3679  0.5080
  175SLPC    C319800   6.927   4.820   5.646 -0.4195 -0.1898 -0.0205
  175SLPC    HX19801   6.976   4.901   5.704  0.8826 -0.2716 -0.9896
  175SLPC    HY19802   6.876   4.882   5.569  0.8439 -0.8615 -1.4179
  175SLPC   O3119803   7.021   4.722   5.590 -0.1746  0.2838 -0.1914
  175SLPC   C3119804   7.018   4.702   5.463 -0.2622  0.9564 -0.5404
  175SLPC   O3219805   6.958   4.768   5.381  0.5446  0.0767  0.8057
  175SLPC   C3219806   7.107   4.584   5.428 -0.1138  0.1232 -0.4146
  175SLPC   H2X19807   7.197   4.587   5.492  1.5485 -0.1405 -2.6823
  175SLPC   H2Y19808   7.140   4.587   5.322 -0.9605 -1.2512 -0.7353
  175SLPC   C2319809   6.573   4.551   5.437  0.1765  0.4320 -0.6248
  175SLPC   H3R19810   6.498   4.473   5.410 -1.4873  1.6490  0.4093
  175SLPC   H3S19811   6.673   4.513   5.405 -0.8358 -0.5889 -2.7109
  175SLPC   C2419812   6.567   4.673   5.339  0.1780 -0.0980 -0.0490
  175SLPC   H4R19813   6.652   4.743   5.354  0.6702 -0.7660  0.3242
  175SLPC   H4S19814   6.476   4.731   5.366 -0.4138 -1.7690  1.6382
  175SLPC   C2519815   6.560   4.622   5.198 -0.3591 -0.1108 -0.6099
  175SLPC   H5R19816   6.508   4.694   5.130 -0.9910 -1.1551 -1.2563
  175SLPC   H5S19817   6.496   4.531   5.200 -1.0265  0.3694  0.5969
  175SLPC   C2619818   6.694   4.588   5.126 -0.5228 -0.3162  0.0935
  175SLPC   H6R19819   6.748   4.511   5.185 -0.4773 -0.5972 -0.3121
  175SLPC   H6S19820   6.752   4.682   5.136  0.1069 -0.7596  0.6528
  175SLPC   C2719821   6.681   4.573   4.973  0.1223  0.0807  0.4034
  175SLPC   H7R19822   6.610   4.649   4.936  1.5806 -0.7787 -4.6152
  175SLPC   H7S19823   6.618   4.482   4.963 -1.7951  1.3242  0.9696
  175SLPC   C2819824   6.809   4.564   4.891 -0.3059 -0.3844  0.5962
  175SLPC   H8R19825   6.877   4.649   4.916  0.3668 -0.6888 -0.1889
  175SLPC   H8S19826   6.778   4.572   4.785 -0.2068 -2.9012  0.3502
  175SLPC   C2919827   6.885   4.438   4.923  0.2777 -0.0079 -0.1099
  175SLPC   H9R19828   6.824   4.348   4.941  0.8244 -0.7856 -1.9657
  175SLPC  C21019829   7.013   4.413   4.925  0.0709  0.1088 -0.4432
  175SLPC  H10R19830   7.052   4.312   4.948  0.4557  0.7582  1.9179
  175SLPC  C21119831   7.129   4.505   4.889  0.5403 -0.1217  0.4822
  175SLPC  H11R19832   7.153   4.551   4.987  0.0569 -0.0008  0.5469
  175SLPC  H11S19833   7.092   4.583   4.819 -1.9114 -1.0532  0.6805
  175SLPC  C21219834   7.247   4.427   4.830  0.2548 -0.0210 -0.4871
  175SLPC  H12R19835   7.331   4.415   4.899  0.8860 -0.5510 -1.3354
  175SLPC  C21319836   7.265   4.380   4.701  0.2161  0.0117 -0.2319
  175SLPC  H13R19837   7.342   4.304   4.685 -0.7839 -1.1641  0.5015
  175SLPC  C21419838   7.171   4.392   4.585  0.2893  0.2838 -0.1966
  175SLPC  H14R19839   7.096   4.470   4.609  1.4375  0.9759  1.1995
  175SLPC  H14S19840   7.119   4.300   4.551 -3.3842  2.8131 -1.8375
  175SLPC  C21519841   7.268   4.443   4.468  0.3355 -0.1757  0.2391
  175SLPC  H15R19842   7.342   4.365   4.441  2.7732  2.5694 -1.1861
  175SLPC  H15S19843   7.336   4.526   4.494 -0.0720 -0.1877  1.4128
  175SLPC  C21619844   7.190   4.462   4.338 -0.0214  0.1775  0.3315
  175SLPC  H16R19845   7.099   4.524   4.350 -0.8482 -0.5948 -1.6295
  175SLPC  H16S19846   7.155   4.362   4.304  0.9512  0.3289 -1.1746
  175SLPC  C21719847   7.281   4.509   4.221 -0.2143 -0.0353 -0.3510
  175SLPC  H17R19848   7.372   4.445   4.218 -0.8223 -0.8665 -1.4297
  175SLPC  H17S19849   7.318   4.610   4.250  0.3880 -0.3705  0.0549
  175SLPC  C21819850   7.207   4.518   4.088  0.0630  0.2464  0.4158
  175SLPC  H18R19851   7.271   4.549   4.002  0.9437 -0.5766  0.7746
  175SLPC  H18S19852   7.123   4.591   4.096  1.6005  2.1100 -0.1301
  175SLPC  H18T19853   7.186   4.412   4.064 -0.8514  0.5385 -0.1125
  175SLPC   C3319854   7.027   4.450   5.452 -0.3764 -0.4494 -0.3559
  175SLPC   H3X19855   7.098   4.379   5.405  0.1933 -1.0719  1.4122
  175SLPC   H3Y19856   6.934   4.442   5.392  1.4477  0.2780 -3.3674
  175SLPC   C3419857   7.006   4.395   5.596  0.5853  0.1042  0.4234
  175SLPC   H4X19858   6.905   4.422   5.632  0.9818  2.2382  0.0035
  175SLPC   H4Y19859   7.088   4.441   5.656  1.7605 -0.5476 -0.6659
  175SLPC   C3519860   7.023   4.246   5.612  0.0574  0.2225 -0.0538
  175SLPC   H5X19861   6.991   4.215   5.714 -0.1698  1.2917  0.1993
  175SLPC   H5Y19862   7.130   4.216   5.606  0.4383  1.7298 -1.1008
  175SLPC   C3619863   6.942   4.158   5.518  0.0239  0.2882 -1.3459
  175SLPC   H6X19864   6.843   4.195   5.485 -0.7333 -1.1375 -0.7034
  175SLPC   H6Y19865   6.921   4.068   5.579  1.1223  0.2702 -0.9745
  175SLPC   C3719866   7.025   4.094   5.399 -1.1300  0.1032  0.6232
  175SLPC   H7X19867   7.081   4.008   5.441 -1.4932 -0.1960  0.4935
  175SLPC   H7Y19868   7.085   4.178   5.357 -0.4090 -1.0781 -0.7577
  175SLPC   C3819869   6.936   4.040   5.282  0.1668 -0.0303 -0.2416
  175SLPC   H8X19870   6.861   4.119   5.261  1.4321  1.4626  0.8506
  175SLPC   H8Y19871   6.879   3.950   5.314 -1.1115  0.8054 -0.1063
  175SLPC   C3919872   7.019   4.009   5.157  0.3340 -0.8647  0.1046
  175SLPC   H9X19873   7.104   3.944   5.185 -0.3967 -2.1739 -0.6777
  175SLPC   H9Y19874   7.057   4.103   5.110 -2.6781  0.1110 -0.4906
  175SLPC  C31019875   6.925   3.947   5.055  0.0234  0.7005  0.4435
  175SLPC  H10X19876   6.843   4.017   5.027  0.4093  0.7322 -0.6366
  175SLPC  H10Y19877   6.875   3.854   5.088  0.3079 -0.8826 -3.3084
  175SLPC  C31119878   6.988   3.908   4.925  0.0687  0.0034  0.4418
  175SLPC  H11X19879   7.067   3.833   4.944  1.3231  1.1058 -0.3388
  175SLPC  H11Y19880   7.043   3.993   4.879  1.3376 -1.1360 -0.1506
  175SLPC  C31219881   6.888   3.854   4.815  0.1335 -0.2270  0.3300
  175SLPC  H12X19882   6.824   3.938   4.781 -0.9913 -0.5392  1.6013
  175SLPC  H12Y19883   6.826   3.783   4.875 -0.2230  1.4200  1.9514
  175SLPC  C31319884   6.961   3.784   4.695 -0.5607 -0.7018  0.2329
  175SLPC  H13X19885   6.923   3.679   4.692 -0.3113 -0.7598 -1.3599
  175SLPC  H13Y19886   7.071   3.783   4.710 -0.8584  0.6264  2.5550
  175SLPC  C31419887   6.949   3.863   4.568  0.1122  0.3496 -0.6313
  175SLPC  H14X19888   6.849   3.858   4.519  1.5491 -1.2862 -3.5639
  175SLPC  H14Y19889   7.027   3.818   4.503  3.0395  0.5196  2.6280
  175SLPC  C31519890   6.984   4.016   4.571 -0.1636 -0.7575  0.3269
  175SLPC  H15X19891   7.091   4.020   4.600 -0.3121 -0.0242  0.7773
  175SLPC  H15Y19892   6.917   4.064   4.645  0.2728 -2.8640  2.1492
  175SLPC  C31619893   6.974   4.087   4.432  0.1652  0.0988 -0.0373
  175SLPC  H16X19894   6.992   4.196   4.440  0.5077  0.0433 -0.0579
  175SLPC  H16Y19895   6.872   4.069   4.390 -0.6455  2.8093  0.6381
  175SLPC  C31719896   7.085   4.024   4.337  0.7358 -0.1843  0.0027
  175SLPC  H17X19897   7.057   4.060   4.236  0.2364  0.9047  0.5225
  175SLPC  H17Y19898   7.069   3.914   4.343  0.1530 -0.2187 -1.9647
  175SLPC  C31819899   7.228   4.058   4.370 -0.5579  0.3517  0.2983
  175SLPC  H18X19900   7.264   4.026   4.470  1.1942  1.9375  0.2143
  175SLPC  H18Y19901   7.259   4.164   4.382  1.0013 -0.0121 -0.3036
  175SLPC  H18Z19902   7.292   4.015   4.289  0.2610  1.2193  0.4782
  176SLPC     N19903   5.661   1.369   6.251  0.2024 -0.1037 -0.4513
  176SLPC   C1319904   5.507   1.365   6.257  0.7159  0.3018  0.7745
  176SLPC  H13A19905   5.460   1.271   6.235  0.1704  0.8140 -0.2494
  176SLPC  H13B19906   5.482   1.391   6.359  0.2962  0.8069  0.5422
  176SLPC  H13C19907   5.467   1.441   6.192  2.0533 -1.5485 -2.3261
  176SLPC   C1419908   5.710   1.303   6.370  0.5722  0.1399 -0.4158
  176SLPC  H14A19909   5.670   1.204   6.360  2.0098 -0.3532 -1.4685
  176SLPC  H14B19910   5.818   1.298   6.373  0.4928 -3.1001 -1.6507
  176SLPC  H14C19911   5.663   1.358   6.451 -1.7632 -2.5929  0.1644
  176SLPC   C1519912   5.701   1.514   6.259  0.7939  0.7779  0.3888
  176SLPC  H15A19913   5.673   1.559   6.165  1.5101 -1.8042 -1.1153
  176SLPC  H15B19914   5.651   1.577   6.331  0.4479 -0.2988  1.1010
  176SLPC  H15C19915   5.809   1.527   6.257  0.5874  2.6499  0.8306
  176SLPC   C1219916   5.708   1.308   6.125 -0.3115 -0.2504  0.1236
  176SLPC  H12A19917   5.677   1.205   6.118 -2.0630  0.3052 -0.6365
  176SLPC  H12B19918   5.815   1.319   6.119 -0.3101  0.6058  1.4621
  176SLPC   C1119919   5.659   1.377   5.995  0.0786 -0.2289  0.1150
  176SLPC  H11A19920   5.723   1.349   5.908 -0.8403 -0.5652 -0.4662
  176SLPC  H11B19921   5.668   1.488   5.991 -1.1097 -0.1461 -0.6035
  176SLPC     P19922   5.457   1.210   5.943 -0.4178 -0.8432 -0.3737
  176SLPC   O1319923   5.397   1.171   6.072  0.1285 -0.0683 -0.0125
  176SLPC   O1419924   5.376   1.204   5.815 -0.5013  0.1548 -0.4493
  176SLPC   O1219925   5.524   1.344   5.958  0.5576 -0.0051 -0.0089
  176SLPC   O1119926   5.583   1.108   5.929 -0.0613  0.5635  0.8822
  176SLPC    C119927   5.563   0.985   5.858  0.4919 -0.3391  0.1288
  176SLPC    HA19928   5.460   0.946   5.874 -0.2796  1.5646 -0.0305
  176SLPC    HB19929   5.568   1.002   5.748 -0.7542  0.0066  0.1157
  176SLPC    C219930   5.669   0.885   5.896 -0.3088 -0.4366  0.2641
  176SLPC    HS19931   5.672   0.869   6.006 -2.6013 -0.9341  0.2860
  176SLPC   O2119932   5.800   0.920   5.842  0.3640 -0.4595 -0.3963
  176SLPC   C2119933   5.876   0.989   5.928 -0.1139 -1.0318  0.7169
  176SLPC   O2219934   5.853   1.023   6.045  0.2295  0.3335 -0.3884
  176SLPC   C2219935   6.007   1.018   5.850  1.0779 -0.6935 -0.2014
  176SLPC   H2R19936   6.082   1.021   5.932 -1.7112 -0.2632  2.4323
  176SLPC   H2S19937   6.038   0.925   5.799  0.0524 -0.5178 -1.1616
  176SLPC    C319938   5.633   0.743   5.840  0.2399 -0.6754 -0.1585
  176SLPC    HX19939   5.537   0.709   5.883 -0.2295  1.7466  0.7670
  176SLPC    HY19940   5.709   0.679   5.889  1.8231  1.5107  0.3016
  176SLPC   O3119941   5.624   0.738   5.697 -0.3603 -0.5715  0.7571
  176SLPC   C3119942   5.738   0.729   5.627 -0.1230 -0.4038 -0.4420
  176SLPC   O3219943   5.842   0.681   5.670 -0.3880  0.1478  0.1512
  176SLPC   C3219944   5.711   0.781   5.482 -0.3264  0.2221  0.4650
  176SLPC   H2X19945   5.637   0.705   5.448  0.7981 -0.5204 -0.3601
  176SLPC   H2Y19946   5.806   0.769   5.424 -2.0124  1.0754 -2.5856
  176SLPC   C2319947   6.010   1.152   5.776 -0.1906  0.7180 -0.4551
  176SLPC   H3R19948   6.113   1.175   5.741  0.8828 -2.3132  0.5507
  176SLPC   H3S19949   5.982   1.233   5.846 -0.2788  0.8256 -0.6122
  176SLPC   C2419950   5.912   1.157   5.664 -0.7461  0.7790  0.2339
  176SLPC   H4R19951   5.811   1.134   5.705 -0.4852  2.0659  1.6269
  176SLPC   H4S19952   5.944   1.082   5.588  1.0395  1.3562  0.4028
  176SLPC   C2519953   5.899   1.288   5.587  0.0985  0.1603 -0.5162
  176SLPC   H5R19954   5.997   1.320   5.548  0.6664  0.4176  1.0897
  176SLPC   H5S19955   5.874   1.367   5.662  1.8152 -0.1997  0.4538
  176SLPC   C2619956   5.787   1.289   5.484 -0.3747 -0.1147  0.0071
  176SLPC   H6R19957   5.687   1.269   5.528  0.1149 -3.6323 -0.3404
  176SLPC   H6S19958   5.818   1.219   5.403 -2.0542  0.8561 -1.5042
  176SLPC   C2719959   5.791   1.428   5.421 -0.7042  0.2569 -0.5011
  176SLPC   H7R19960   5.894   1.460   5.394  0.2669 -1.3380  1.1592
  176SLPC   H7S19961   5.766   1.497   5.505 -2.1393 -0.5028 -0.2860
  176SLPC   C2819962   5.702   1.418   5.299  0.4716 -0.3975 -0.6887
  176SLPC   H8R19963   5.602   1.376   5.323 -1.2401  3.3560 -0.8719
  176SLPC   H8S19964   5.744   1.348   5.224  0.8636 -1.3282  0.3698
  176SLPC   C2919965   5.685   1.552   5.234 -0.6866 -0.0018  0.0467
  176SLPC   H9R19966   5.757   1.624   5.275  0.1042 -0.8634  0.1884
  176SLPC  C21019967   5.606   1.584   5.130  0.1664 -0.3121  0.3504
  176SLPC  H10R19968   5.605   1.687   5.091 -1.3196 -0.6077 -0.4017
  176SLPC  C21119969   5.516   1.480   5.062  0.3468  0.4650  0.0991
  176SLPC  H11R19970   5.427   1.472   5.127  0.1367  2.2043  0.0432
  176SLPC  H11S19971   5.561   1.379   5.065 -0.4668 -0.1804 -4.6150
  176SLPC  C21219972   5.474   1.520   4.925 -0.3944 -0.4493  0.5766
  176SLPC  H12R19973   5.411   1.610   4.925 -0.3426 -0.4076  2.1280
  176SLPC  C21319974   5.520   1.470   4.802 -0.8792  0.0598  0.1173
  176SLPC  H13R19975   5.491   1.504   4.701  0.7811 -1.5103 -0.9136
  176SLPC  C21419976   5.628   1.365   4.789  0.0331 -0.4061 -0.1103
  176SLPC  H14R19977   5.721   1.397   4.840 -1.0585  2.7588  0.0090
  176SLPC  H14S19978   5.662   1.358   4.684 -1.9911 -0.0034 -0.8155
  176SLPC  C21519979   5.592   1.223   4.838 -0.2946  0.3915  0.6159
  176SLPC  H15R19980   5.532   1.230   4.931 -1.4503  1.1698 -0.1784
  176SLPC  H15S19981   5.694   1.180   4.851  0.3195  0.5299 -3.0227
  176SLPC  C21619982   5.515   1.140   4.739  0.2328  0.5949 -0.5146
  176SLPC  H16R19983   5.482   1.211   4.660 -3.1457  0.7936  0.9991
  176SLPC  H16S19984   5.419   1.108   4.786  0.8770  0.2635  0.5938
  176SLPC  C21719985   5.586   1.010   4.698  0.1392 -0.1472 -0.0782
  176SLPC  H17R19986   5.600   0.949   4.790  1.9693  1.5861  0.8241
  176SLPC  H17S19987   5.688   1.026   4.657  0.7161 -0.6402  1.1446
  176SLPC  C21819988   5.509   0.926   4.590 -0.2846 -0.0160 -0.3113
  176SLPC  H18R19989   5.569   0.836   4.565  0.6445  1.0000 -1.7782
  176SLPC  H18S19990   5.484   0.987   4.500  1.6066 -0.6628 -1.3021
  176SLPC  H18T19991   5.415   0.893   4.640 -1.0938 -0.7976 -2.2901
  176SLPC   C3319992   5.670   0.930   5.474 -0.5682  0.4367  0.0833
  176SLPC   H3X19993   5.752   0.996   5.508 -0.8913  1.2012 -0.6003
  176SLPC   H3Y19994   5.574   0.950   5.526 -0.2614  2.3178 -0.0436
  176SLPC   C3419995   5.643   0.976   5.327  0.3808 -0.0623 -0.1708
  176SLPC   H4X19996   5.735   0.959   5.267 -0.3232 -2.2767 -0.6526
  176SLPC   H4Y19997   5.624   1.085   5.338 -0.0473 -0.2556  1.1115
  176SLPC   C3519998   5.523   0.907   5.253  0.3407  0.5242  0.4012
  176SLPC   H5X19999   5.435   0.914   5.319  0.8027  0.2542  1.0546
  176SLPC   H5Y20000   5.541   0.801   5.225  0.2937  0.4650  0.5980
  176SLPC   C3620001   5.472   0.985   5.135 -0.4803 -0.0203 -0.2499
  176SLPC   H6X20002   5.396   0.915   5.094 -0.6791 -1.3860  2.3209
  176SLPC   H6Y20003   5.552   1.004   5.060 -1.3145  2.0705 -0.6402
  176SLPC   C3720004   5.412   1.116   5.179 -0.2759  0.3041 -0.3606
  176SLPC   H7X20005   5.501   1.182   5.178 -0.3958  0.4811  0.4621
  176SLPC   H7Y20006   5.364   1.111   5.279 -1.0721 -0.0824 -0.7550
  176SLPC   C3820007   5.294   1.150   5.084  0.0854 -0.3943  0.1820
  176SLPC   H8X20008   5.334   1.133   4.982  0.8188  0.6964  0.2761
  176SLPC   H8Y20009   5.275   1.258   5.099  2.4931  0.2640 -1.2454
  176SLPC   C3920010   5.164   1.071   5.101 -0.3815  0.3954 -0.1373
  176SLPC   H9X20011   5.130   1.082   5.206  2.5632  0.0560  0.9073
  176SLPC   H9Y20012   5.190   0.963   5.096  2.4282  1.1373 -2.7915
  176SLPC  C31020013   5.062   1.107   4.999  0.4840  0.3577  0.5534
  176SLPC  H10X20014   5.027   1.209   5.026 -3.2811 -0.2543 -1.6467
  176SLPC  H10Y20015   4.966   1.051   5.000 -0.4064  1.8531  3.0494
  176SLPC  C31120016   5.106   1.105   4.851  0.6581  0.0515  0.6052
  176SLPC  H11X20017   5.148   1.003   4.831 -0.7097 -0.4386  0.2000
  176SLPC  H11Y20018   5.193   1.172   4.834  1.8238 -1.9799 -1.8392
  176SLPC  C31220019   4.990   1.125   4.748 -0.3442 -0.0464  1.2120
  176SLPC  H12X20020   4.954   1.230   4.752 -1.0681 -0.1178 -2.0170
  176SLPC  H12Y20021   4.909   1.051   4.767 -1.3432  1.5069  3.1680
  176SLPC  C31320022   5.023   1.108   4.599  0.2741 -0.3067  0.2979
  176SLPC  H13X20023   4.938   1.134   4.534  0.0912  2.0227  1.4100
  176SLPC  H13Y20024   5.048   1.006   4.563  0.4297 -0.0807 -0.2489
  176SLPC  C31420025   5.149   1.183   4.555  0.3862  0.0482  0.2644
  176SLPC  H14X20026   5.241   1.145   4.603  0.4539 -2.3857 -1.6874
  176SLPC  H14Y20027   5.123   1.291   4.556 -3.9190 -0.8817  0.2664
  176SLPC  C31520028   5.174   1.149   4.409 -0.5569 -0.1471  0.6778
  176SLPC  H15X20029   5.090   1.183   4.345  0.8688  0.3797 -0.9485
  176SLPC  H15Y20030   5.176   1.040   4.389 -0.5951  0.0736 -0.5643
  176SLPC  C31620031   5.297   1.213   4.353 -0.1376 -0.0985  0.2536
  176SLPC  H16X20032   5.325   1.166   4.256 -0.1814 -0.7667  0.5558
  176SLPC  H16Y20033   5.383   1.200   4.421 -0.1964 -0.2900  0.2929
  176SLPC  C31720034   5.287   1.366   4.326 -0.5547 -0.1724 -0.7481
  176SLPC  H17X20035   5.245   1.415   4.417 -4.3465  1.5620 -3.3070
  176SLPC  H17Y20036   5.223   1.375   4.236 -1.2394  2.5408 -0.0441
  176SLPC  C31820037   5.421   1.425   4.289  0.6631  0.4507 -0.3724
  176SLPC  H18X20038   5.508   1.386   4.347 -0.5011 -0.3480  0.8770
  176SLPC  H18Y20039   5.425   1.536   4.294  1.6676  0.3630  1.1877
  176SLPC  H18Z20040   5.439   1.406   4.181  2.4582 -0.7267  0.0991
  177SLPC     N20041   7.181   3.425   5.979  0.3565 -0.6690 -0.7550
  177SLPC   C1320042   7.207   3.563   5.929 -0.5478 -0.4515  0.4202
  177SLPC  H13A20043   7.315   3.566   5.918 -0.4761 -1.3986  0.7917
  177SLPC  H13B20044   7.154   3.589   5.838  1.2303  2.3181  0.1075
  177SLPC  H13C20045   7.181   3.633   6.006  2.2061  0.0858  0.9225
  177SLPC   C1420046   7.197   3.323   5.870  0.2689  0.1147 -0.0479
  177SLPC  H14A20047   7.126   3.341   5.791  0.1094  0.8422  0.2568
  177SLPC  H14B20048   7.289   3.335   5.815  1.0662 -0.9604  1.0264
  177SLPC  H14C20049   7.179   3.220   5.896  0.7949  0.0987  0.2579
  177SLPC   C1520050   7.039   3.410   6.022 -0.3135  0.4718  0.7942
  177SLPC  H15A20051   7.022   3.322   6.084 -0.1097  0.8245  1.3594
  177SLPC  H15B20052   7.009   3.486   6.092 -1.7769  0.8601 -0.2367
  177SLPC  H15C20053   6.969   3.403   5.940  1.1400 -2.1374 -0.2767
  177SLPC   C1220054   7.278   3.397   6.095  0.0536 -0.8084  0.2922
  177SLPC  H12A20055   7.292   3.490   6.149  0.9805 -0.2633 -0.8515
  177SLPC  H12B20056   7.380   3.380   6.064  0.2742  1.9886 -0.7054
  177SLPC   C1120057   7.248   3.293   6.201  0.2348  0.0353  0.4661
  177SLPC  H11A20058   7.151   3.320   6.247  0.9075  0.6612  1.5372
  177SLPC  H11B20059   7.328   3.294   6.278 -0.2171  2.9810  0.9604
  177SLPC     P20060   7.355   3.076   6.104  0.2551 -0.1134 -0.6000
  177SLPC   O1320061   7.478   3.156   6.120  0.6943 -0.1654  0.4734
  177SLPC   O1420062   7.354   2.947   6.180  0.7252 -0.5133  0.0922
  177SLPC   O1220063   7.230   3.157   6.152  0.4354 -0.5205  0.0936
  177SLPC   O1120064   7.303   3.056   5.951  0.1604  0.2600 -0.2500
  177SLPC    C120065   7.265   2.924   5.903  0.1116  0.2682 -0.2718
  177SLPC    HA20066   7.355   2.862   5.882  0.6867  1.3891 -1.1385
  177SLPC    HB20067   7.205   2.883   5.987  0.6611 -0.5009 -0.2433
  177SLPC    C220068   7.159   2.930   5.792 -0.3777  0.9613 -0.6420
  177SLPC    HS20069   7.072   2.985   5.835 -0.9417  0.9625 -1.7458
  177SLPC   O2120070   7.141   2.791   5.746 -0.7751 -0.3638  1.0194
  177SLPC   C2120071   7.014   2.773   5.710 -0.6991  1.0765 -0.0199
  177SLPC   O2220072   6.924   2.847   5.737 -0.0498 -0.3607  0.5520
  177SLPC   C2220073   6.982   2.635   5.646 -0.3158 -0.0155  0.2882
  177SLPC   H2R20074   7.045   2.568   5.709 -1.5209 -0.0033  1.5111
  177SLPC   H2S20075   6.874   2.612   5.653 -0.4253  0.7391  1.1002
  177SLPC    C320076   7.218   3.012   5.683  0.1478 -1.2264  0.4295
  177SLPC    HX20077   7.312   2.961   5.650 -0.5341 -1.5353 -1.0747
  177SLPC    HY20078   7.263   3.108   5.715 -0.7327 -0.2752 -1.1487
  177SLPC   O3120079   7.130   3.033   5.567 -0.1218  0.8785  0.1285
  177SLPC   C3120080   7.078   3.153   5.553  0.0766  0.2548 -0.2971
  177SLPC   O3220081   7.110   3.254   5.615 -0.2697 -0.0767 -0.0277
  177SLPC   C3220082   6.969   3.147   5.443  0.2972 -0.2422 -0.2212
  177SLPC   H2X20083   6.901   3.233   5.461 -2.2765 -1.6626 -2.7390
  177SLPC   H2Y20084   6.900   3.060   5.439  1.1669 -0.9167 -0.8445
  177SLPC   C2320085   7.022   2.627   5.500  0.0272 -0.2136 -0.2909
  177SLPC   H3R20086   7.012   2.522   5.464  1.3123 -0.8172  1.0434
  177SLPC   H3S20087   7.129   2.655   5.490  0.5855 -2.2100 -0.0912
  177SLPC   C2420088   6.937   2.723   5.413  0.2350 -0.2953  0.4867
  177SLPC   H4R20089   6.966   2.829   5.426  3.6680 -1.0547 -0.5605
  177SLPC   H4S20090   6.829   2.716   5.437  0.3104 -1.3523  0.5628
  177SLPC   C2520091   6.947   2.689   5.263 -0.0920 -0.7397 -0.7947
  177SLPC   H5R20092   6.931   2.580   5.245 -0.7584 -0.8611  0.5072
  177SLPC   H5S20093   7.051   2.721   5.243 -0.5466  1.9776  1.0026
  177SLPC   C2620094   6.861   2.778   5.180  0.3813 -0.2180 -0.3459
  177SLPC   H6R20095   6.871   2.883   5.215 -0.9225 -0.6076  1.2766
  177SLPC   H6S20096   6.755   2.759   5.208  1.1078 -2.8340  0.7296
  177SLPC   C2720097   6.900   2.774   5.026 -0.6548 -0.0193  0.1492
  177SLPC   H7R20098   7.006   2.804   5.012 -1.1430  1.5542 -0.3184
  177SLPC   H7S20099   6.830   2.837   4.967  0.1981 -0.3908 -1.2978
  177SLPC   C2820100   6.876   2.631   4.970  0.2832  0.7671 -0.1957
  177SLPC   H8R20101   6.778   2.601   5.013  0.6101 -0.8513 -0.5520
  177SLPC   H8S20102   6.964   2.570   4.999  0.7866  1.1395 -0.9283
  177SLPC   C2920103   6.873   2.612   4.822  0.4320  0.0443 -0.5127
  177SLPC   H9R20104   6.947   2.660   4.756 -0.7426  1.8582 -0.5770
  177SLPC  C21020105   6.779   2.549   4.749  0.0366 -0.3469  0.6690
  177SLPC  H10R20106   6.790   2.547   4.640  1.0037  2.2492  0.6831
  177SLPC  C21120107   6.652   2.478   4.785  0.2953  0.4011  0.1959
  177SLPC  H11R20108   6.593   2.518   4.870 -1.7777 -2.9324  0.4019
  177SLPC  H11S20109   6.680   2.375   4.817 -2.7169 -0.3158  0.6826
  177SLPC  C21220110   6.551   2.462   4.675 -0.1654  0.2782  0.3343
  177SLPC  H12R20111   6.465   2.530   4.678 -0.0204  0.4691  0.1742
  177SLPC  C21320112   6.553   2.377   4.571  0.4142 -0.4817  0.0633
  177SLPC  H13R20113   6.465   2.377   4.505  0.3264 -0.0499  0.1850
  177SLPC  C21420114   6.657   2.273   4.536 -0.0361 -0.0387  0.5602
  177SLPC  H14R20115   6.740   2.284   4.609 -1.4442  3.0082  1.7976
  177SLPC  H14S20116   6.702   2.296   4.437  0.0346  2.7382  1.1836
  177SLPC  C21520117   6.602   2.127   4.522  0.3953  0.0608 -0.3415
  177SLPC  H15R20118   6.511   2.131   4.459  0.3281  0.0534 -0.2454
  177SLPC  H15S20119   6.559   2.086   4.616  0.4160 -0.9210 -0.7562
  177SLPC  C21620120   6.703   2.034   4.452  0.7387  1.0451 -0.0102
  177SLPC  H16R20121   6.790   2.017   4.519 -2.7515 -0.9310  4.2497
  177SLPC  H16S20122   6.747   2.092   4.368  0.0451  0.5011 -0.7525
  177SLPC  C21720123   6.636   1.902   4.398 -0.2727 -0.0818  0.2664
  177SLPC  H17R20124   6.709   1.878   4.318  1.8340  0.2935  2.0326
  177SLPC  H17S20125   6.535   1.925   4.359 -0.1151 -1.2861 -0.8839
  177SLPC  C21820126   6.626   1.789   4.504 -0.2697 -0.0374  0.1570
  177SLPC  H18R20127   6.574   1.704   4.455  1.3989 -1.2917  0.5033
  177SLPC  H18S20128   6.570   1.830   4.591  0.0958  0.4243  0.1770
  177SLPC  H18T20129   6.733   1.772   4.533 -0.6841 -0.0801  1.7321
  177SLPC   C3320130   7.024   3.168   5.296 -0.0538  0.6259  0.5686
  177SLPC   H3X20131   7.070   3.075   5.255  1.0484  0.5447  1.9401
  177SLPC   H3Y20132   7.104   3.245   5.289  1.6717 -0.8953  2.7441
  177SLPC   C3420133   6.910   3.216   5.201  0.6121 -0.6368  0.4501
  177SLPC   H4X20134   6.854   3.302   5.243  2.0468 -0.2718  1.6390
  177SLPC   H4Y20135   6.827   3.143   5.202 -0.4138  0.4174 -1.9499
  177SLPC   C3520136   6.944   3.263   5.061 -0.1744 -0.4227  0.3986
  177SLPC   H5X20137   7.009   3.352   5.072 -0.0736  0.0330 -3.2511
  177SLPC   H5Y20138   6.852   3.284   5.003  0.5106  0.9007 -0.2462
  177SLPC   C3620139   7.029   3.165   4.967 -0.7114 -0.5688 -0.5666
  177SLPC   H6X20140   6.963   3.081   4.939 -1.8907 -0.0763  0.6593
  177SLPC   H6Y20141   7.121   3.132   5.021 -2.0792 -2.9302  0.4047
  177SLPC   C3720142   7.070   3.242   4.841  0.3376 -0.3376 -0.9506
  177SLPC   H7X20143   7.119   3.341   4.846 -5.5461  2.8169 -1.3208
  177SLPC   H7Y20144   6.980   3.266   4.780  0.5377 -0.1161 -1.1602
  177SLPC   C3820145   7.167   3.158   4.761  0.1652  1.0752 -0.1492
  177SLPC   H8X20146   7.126   3.064   4.718 -0.8982  1.7563 -0.6484
  177SLPC   H8Y20147   7.247   3.131   4.833 -0.1628 -2.0581 -0.8762
  177SLPC   C3920148   7.227   3.239   4.639 -0.7058 -0.5232 -0.3903
  177SLPC   H9X20149   7.290   3.322   4.678  0.2751 -1.2791 -0.3248
  177SLPC   H9Y20150   7.148   3.303   4.595  0.3011  1.1307  0.1732
  177SLPC  C31020151   7.309   3.158   4.539 -0.0258  0.4960 -0.2962
  177SLPC  H10X20152   7.380   3.092   4.593 -1.6883 -1.1011  0.0055
  177SLPC  H10Y20153   7.362   3.226   4.469 -1.2008  0.2685 -1.4309
  177SLPC  C31120154   7.213   3.061   4.457 -0.5627 -1.1605  0.5068
  177SLPC  H11X20155   7.126   3.113   4.413  0.9521  0.1908 -0.9320
  177SLPC  H11Y20156   7.178   2.974   4.517 -0.4281  0.6286  3.2612
  177SLPC  C31220157   7.304   3.001   4.349  0.5622 -0.6190 -0.1264
  177SLPC  H12X20158   7.360   2.922   4.404  1.5428  0.1101 -0.0700
  177SLPC  H12Y20159   7.368   3.080   4.303 -3.3164  1.9238 -1.4356
  177SLPC  C31320160   7.232   2.925   4.239 -0.4802 -0.3357  0.6621
  177SLPC  H13X20161   7.170   2.990   4.173 -2.9477 -1.8668  1.4302
  177SLPC  H13Y20162   7.159   2.851   4.278  0.7915 -2.1196 -0.2679
  177SLPC  C31420163   7.332   2.854   4.148 -0.0194 -0.9856  0.0931
  177SLPC  H14X20164   7.400   2.791   4.209  1.1391 -0.6270 -0.8160
  177SLPC  H14Y20165   7.406   2.933   4.124 -0.3401 -0.9549 -0.8193
  177SLPC  C31520166   7.265   2.795   4.030  0.0936 -0.7818 -0.1850
  177SLPC  H15X20167   7.197   2.874   3.994  1.0978  0.1073 -0.1559
  177SLPC  H15Y20168   7.218   2.702   4.068 -1.4336  0.1558  0.2804
  177SLPC  C31620169   7.372   2.769   3.924  0.0903  0.0004  0.6003
  177SLPC  H16X20170   7.443   2.693   3.963  0.1510 -0.6550 -0.7579
  177SLPC  H16Y20171   7.425   2.863   3.898  1.1569 -0.5494  0.7804
  177SLPC  C31720172   7.320   2.694   3.800  0.0494 -0.6951  0.7601
  177SLPC  H17X20173   7.263   2.760   3.731  0.1883 -2.2241 -0.8655
  177SLPC  H17Y20174   7.246   2.615   3.825  1.2247 -1.4662  1.8064
  177SLPC  C31820175   7.434   2.630   3.718  0.3033  0.4696  0.2302
  177SLPC  H18X20176   7.388   2.561   3.643 -0.7207  1.6455 -0.2574
  177SLPC  H18Y20177   7.510   2.576   3.777 -0.0983  0.1769  0.4865
  177SLPC  H18Z20178   7.490   2.701   3.653 -1.9639  0.3390 -1.9803
  178SLPC     N20179   1.871   6.991   6.376 -0.5554 -0.3982 -0.3984
  178SLPC   C1320180   1.846   6.846   6.329  0.5406 -0.0311 -0.1442
  178SLPC  H13A20181   1.741   6.824   6.325  0.3708  1.0586 -2.0708
  178SLPC  H13B20182   1.884   6.826   6.230  1.4524 -0.1670  0.2298
  178SLPC  H13C20183   1.895   6.779   6.398  0.1996 -2.1155 -1.8819
  178SLPC   C1420184   2.019   7.013   6.391 -0.1882 -0.2876 -0.0699
  178SLPC  H14A20185   2.064   6.931   6.444 -0.4679 -0.0550  0.5310
  178SLPC  H14B20186   2.069   7.026   6.296  2.6340  0.5188  1.4538
  178SLPC  H14C20187   2.040   7.110   6.435  0.5755 -0.2806 -0.4336
  178SLPC   C1520188   1.804   7.018   6.502  0.3916  0.4586 -0.3911
  178SLPC  H15A20189   1.843   6.948   6.574 -0.4313  1.9193  1.5221
  178SLPC  H15B20190   1.820   7.117   6.542  0.2417  0.1200  0.5168
  178SLPC  H15C20191   1.701   6.988   6.490  0.2293  0.8908 -0.0922
  178SLPC   C1220192   1.829   7.083   6.265  0.5423  0.5374  0.8769
  178SLPC  H12A20193   1.839   7.186   6.294 -1.2778  1.2395 -0.8923
  178SLPC  H12B20194   1.722   7.072   6.262  0.6017 -1.7237  4.0028
  178SLPC   C1120195   1.894   7.045   6.121  0.0582 -0.6309 -0.2711
  178SLPC  H11A20196   1.829   7.100   6.050 -1.7711  0.2954  2.0391
  178SLPC  H11B20197   1.881   6.939   6.090  1.1874 -0.3240 -1.8096
  178SLPC     P20198   2.077   7.222   6.067  0.3352 -0.1617 -0.4427
  178SLPC   O1320199   2.019   7.317   6.163 -0.5676 -0.3078  0.0849
  178SLPC   O1420200   2.227   7.228   6.048  0.0497 -1.0312 -0.0594
  178SLPC   O1220201   2.033   7.082   6.118  0.7880  0.0897 -0.5216
  178SLPC   O1120202   2.004   7.247   5.928  0.5647  0.1199 -0.4125
  178SLPC    C120203   2.031   7.156   5.816  0.7644 -0.4738 -0.2854
  178SLPC    HA20204   2.052   7.050   5.841 -1.0611 -0.0394  3.5526
  178SLPC    HB20205   1.937   7.148   5.757  2.0169 -0.7062 -2.2647
  178SLPC    C220206   2.140   7.214   5.740  0.2433 -0.1490  0.8513
  178SLPC    HS20207   2.235   7.197   5.795 -0.2617 -2.3180  1.0938
  178SLPC   O2120208   2.112   7.354   5.703  0.4695 -0.2393  0.3129
  178SLPC   C2120209   2.228   7.427   5.691  0.5267  0.1087 -0.3644
  178SLPC   O2220210   2.336   7.381   5.715  0.0336  0.5469  0.1581
  178SLPC   C2220211   2.203   7.575   5.662  0.7726  0.3254  0.0811
  178SLPC   H2R20212   2.101   7.582   5.617  0.2345  0.0209  1.2210
  178SLPC   H2S20213   2.188   7.627   5.759 -1.8194  0.6879 -0.4790
  178SLPC    C320214   2.167   7.131   5.616 -0.2856  0.1297 -0.2438
  178SLPC    HX20215   2.230   7.044   5.644  1.2315  0.7664 -1.6189
  178SLPC    HY20216   2.242   7.179   5.550 -0.8370  1.3836  0.0300
  178SLPC   O3120217   2.049   7.088   5.538 -0.6496  0.3284  0.2875
  178SLPC   C3120218   2.027   7.176   5.433  0.6582  0.4174 -0.1143
  178SLPC   O3220219   2.078   7.293   5.427  0.2345  0.5588  0.1155
  178SLPC   C3220220   1.913   7.134   5.347  0.3424 -0.5643  0.0027
  178SLPC   H2X20221   1.889   7.225   5.289  3.5306  0.5325  0.2653
  178SLPC   H2Y20222   1.827   7.110   5.413 -0.0397 -0.6822 -0.5382
  178SLPC   C2320223   2.310   7.634   5.573  0.5206  0.2299 -0.3992
  178SLPC   H3R20224   2.313   7.563   5.487  1.5350  0.3788 -0.4911
  178SLPC   H3S20225   2.413   7.623   5.613  0.3032 -0.6623 -0.0654
  178SLPC   C2420226   2.272   7.772   5.520 -0.2298 -0.3723  0.6493
  178SLPC   H4R20227   2.353   7.819   5.461 -2.0864  2.3133  0.1773
  178SLPC   H4S20228   2.266   7.838   5.609 -1.5424 -0.8604  0.9404
  178SLPC   C2520229   2.136   7.788   5.444 -0.1107 -0.5712  0.0835
  178SLPC   H5R20230   2.134   7.882   5.385  0.9739 -1.4114 -1.3264
  178SLPC   H5S20231   2.049   7.782   5.514  0.7931  1.4074  1.4105
  178SLPC   C2620232   2.123   7.684   5.325  0.0753  0.5584 -0.5244
  178SLPC   H6R20233   2.026   7.699   5.273  1.4020  0.7915 -2.9974
  178SLPC   H6S20234   2.114   7.585   5.373  0.6469  1.3068  1.1548
  178SLPC   C2720235   2.234   7.707   5.225 -0.0012 -0.6994  0.2062
  178SLPC   H7R20236   2.331   7.684   5.273  0.3304  1.3674  0.5676
  178SLPC   H7S20237   2.239   7.813   5.195 -0.7032 -1.1585 -1.6316
  178SLPC   C2820238   2.224   7.623   5.090  0.4025  1.0722 -1.0723
  178SLPC   H8R20239   2.298   7.659   5.015  2.5031  2.9328  1.7841
  178SLPC   H8S20240   2.123   7.651   5.052 -1.7659 -1.6521  2.3800
  178SLPC   C2920241   2.229   7.472   5.102 -0.1544 -0.0557  0.2945
  178SLPC   H9R20242   2.297   7.439   5.181 -1.2878  1.2530  1.8453
  178SLPC  C21020243   2.189   7.380   5.000  0.1585  0.1935 -0.1992
  178SLPC  H10R20244   2.214   7.273   4.999  1.2368  0.3949  1.9000
  178SLPC  C21120245   2.132   7.422   4.865  0.2774  0.4387 -0.4343
  178SLPC  H11R20246   2.208   7.480   4.809  0.8373  0.1506  0.0119
  178SLPC  H11S20247   2.050   7.497   4.876  1.3214  1.4662  0.5514
  178SLPC  C21220248   2.081   7.304   4.782  0.4363  0.1897 -0.2841
  178SLPC  H12R20249   1.971   7.308   4.774  0.3507  0.3897  0.8857
  178SLPC  C21320250   2.163   7.214   4.726 -0.7385 -0.4784  0.8067
  178SLPC  H13R20251   2.123   7.130   4.668  0.4991 -1.6199  1.5812
  178SLPC  C21420252   2.313   7.210   4.731  0.0096  0.5223 -0.0328
  178SLPC  H14R20253   2.358   7.134   4.798  1.9226  1.4096 -0.2934
  178SLPC  H14S20254   2.354   7.306   4.770  1.3671  0.3884 -1.1016
  178SLPC  C21520255   2.356   7.173   4.585  0.1966 -0.7105  0.1858
  178SLPC  H15R20256   2.307   7.245   4.517 -0.4058  0.1640  1.5391
  178SLPC  H15S20257   2.326   7.076   4.540 -1.6187  0.4641 -1.1933
  178SLPC  C21620258   2.505   7.195   4.564 -1.0290 -0.0235  0.4173
  178SLPC  H16R20259   2.559   7.130   4.637 -0.3429 -0.0735 -0.1319
  178SLPC  H16S20260   2.536   7.295   4.600  0.7365 -0.1490 -0.6722
  178SLPC  C21720261   2.561   7.168   4.419  0.2515  0.3086 -0.3287
  178SLPC  H17R20262   2.518   7.218   4.330 -1.1293  0.3528  0.3501
  178SLPC  H17S20263   2.544   7.059   4.400  1.1476  0.3297 -1.2285
  178SLPC  C21820264   2.708   7.192   4.415 -0.5650  0.2776  0.7221
  178SLPC  H18R20265   2.737   7.177   4.309  0.1898  2.1553  0.6417
  178SLPC  H18S20266   2.756   7.108   4.470 -0.1336 -1.5234 -2.3169
  178SLPC  H18T20267   2.746   7.289   4.454 -0.4040 -0.5520  2.7223
  178SLPC   C3320268   1.953   7.015   5.264  0.1772  0.1271 -0.0078
  178SLPC   H3X20269   1.858   6.992   5.211 -0.4424  0.1593  1.0878
  178SLPC   H3Y20270   1.978   6.928   5.327  0.5610  1.4593  1.7218
  178SLPC   C3420271   2.069   7.031   5.167 -0.0833 -0.7707  0.6486
  178SLPC   H4X20272   2.162   7.061   5.220  1.3615 -0.8533 -1.7560
  178SLPC   H4Y20273   2.038   7.114   5.100 -1.7725 -0.8975  1.2512
  178SLPC   C3520274   2.081   6.911   5.075 -0.4947  0.0816 -0.2160
  178SLPC   H5X20275   1.998   6.898   5.003  0.3317 -2.4754 -0.7685
  178SLPC   H5Y20276   2.092   6.814   5.128  1.6739 -1.5267 -3.4129
  178SLPC   C3620277   2.203   6.918   4.984 -0.2867 -1.0112  0.0902
  178SLPC   H6X20278   2.298   6.929   5.041 -0.0840 -0.1980 -0.4098
  178SLPC   H6Y20279   2.191   7.007   4.919  1.3725 -1.3932 -0.7529
  178SLPC   C3720280   2.210   6.795   4.895  0.5548  0.0407  0.0044
  178SLPC   H7X20281   2.120   6.781   4.831  1.1004  1.2545 -1.0643
  178SLPC   H7Y20282   2.222   6.709   4.964  1.1439  0.8718  0.9449
  178SLPC   C3820283   2.323   6.802   4.793 -0.3459  0.7872  0.0746
  178SLPC   H8X20284   2.416   6.824   4.850 -0.1567 -1.1585  0.5419
  178SLPC   H8Y20285   2.282   6.885   4.731  0.7892  0.7620 -0.7081
  178SLPC   C3920286   2.344   6.675   4.711 -0.2541  0.2026 -0.2244
  178SLPC   H9X20287   2.258   6.604   4.714 -0.2497  0.1277 -1.6755
  178SLPC   H9Y20288   2.423   6.622   4.768 -0.3461  1.4017  1.0288
  178SLPC  C31020289   2.392   6.706   4.567 -0.1857 -0.3297 -0.7449
  178SLPC  H10X20290   2.479   6.775   4.573  1.6063 -2.5967  0.2365
  178SLPC  H10Y20291   2.311   6.759   4.512 -1.0657  1.2281  2.0042
  178SLPC  C31120292   2.444   6.579   4.492 -0.3288  0.0390 -0.8489
  178SLPC  H11X20293   2.417   6.601   4.387  1.2830 -0.3504 -1.3629
  178SLPC  H11Y20294   2.392   6.488   4.527  2.6696 -0.9518  1.2863
  178SLPC  C31220295   2.605   6.561   4.499 -0.1849 -0.4945 -0.5689
  178SLPC  H12X20296   2.623   6.479   4.427 -0.5689 -0.0476 -1.1800
  178SLPC  H12Y20297   2.620   6.538   4.606  1.3741  0.1049 -0.6337
  178SLPC  C31320298   2.699   6.676   4.447  0.0880  0.4482 -0.2765
  178SLPC  H13X20299   2.805   6.648   4.458 -0.7256 -2.0324  1.7644
  178SLPC  H13Y20300   2.672   6.771   4.498 -0.0688 -0.1723  0.8142
  178SLPC  C31420301   2.677   6.705   4.296  0.0965 -0.7226  0.1841
  178SLPC  H14X20302   2.570   6.728   4.283  0.8377  1.8221 -1.5693
  178SLPC  H14Y20303   2.708   6.618   4.234  0.5434 -1.9651  2.0957
  178SLPC  C31520304   2.767   6.818   4.247 -0.1376  0.5948 -0.6408
  178SLPC  H15X20305   2.874   6.795   4.263 -0.2816 -0.5373 -1.2599
  178SLPC  H15Y20306   2.748   6.904   4.315  0.3030 -0.4872  0.8835
  178SLPC  C31620307   2.730   6.875   4.109  0.5817  0.0005  0.7007
  178SLPC  H16X20308   2.630   6.922   4.101 -0.0119 -0.9378  2.3442
  178SLPC  H16Y20309   2.721   6.792   4.036  2.9655  0.9080 -0.6593
  178SLPC  C31720310   2.835   6.970   4.064 -0.5929 -0.0293 -0.1486
  178SLPC  H17X20311   2.932   6.918   4.052 -0.4289  0.5789 -1.6105
  178SLPC  H17Y20312   2.840   7.055   4.135  0.0888 -0.1720 -0.0270
  178SLPC  C31820313   2.799   7.034   3.929 -0.2102  0.1434 -0.1443
  178SLPC  H18X20314   2.692   7.063   3.929 -0.1483  0.4771 -2.7018
  178SLPC  H18Y20315   2.821   6.958   3.850  1.0503  0.4925 -0.1437
  178SLPC  H18Z20316   2.866   7.121   3.910 -1.1680  0.5032 -1.9766
  179SLPC     N20317   2.844   2.386   2.216  0.0618  0.2167  0.2030
  179SLPC   C1320318   2.783   2.513   2.259  0.4778 -0.7595  0.1989
  179SLPC  H13A20319   2.768   2.509   2.365  0.5301 -2.4263  0.1495
  179SLPC  H13B20320   2.848   2.598   2.237 -1.3575  1.0145  1.4668
  179SLPC  H13C20321   2.684   2.523   2.217  0.0123  0.8021  1.6157
  179SLPC   C1420322   2.887   2.397   2.071 -0.1163 -0.1358  0.7646
  179SLPC  H14A20323   2.959   2.477   2.064 -1.3581  0.9982  0.7881
  179SLPC  H14B20324   2.941   2.309   2.038  1.1710  1.8442 -2.6098
  179SLPC  H14C20325   2.799   2.417   2.012  2.2195  2.1507 -2.0606
  179SLPC   C1520326   2.747   2.269   2.237  0.1877 -0.7830  0.2781
  179SLPC  H15A20327   2.673   2.269   2.159 -0.4574 -1.5746  0.8849
  179SLPC  H15B20328   2.811   2.182   2.242 -1.0024 -1.5583  2.6194
  179SLPC  H15C20329   2.700   2.293   2.331  2.3752 -0.0546  1.2359
  179SLPC   C1220330   2.970   2.364   2.299 -0.1998  0.2220 -0.0490
  179SLPC  H12A20331   3.038   2.448   2.295 -0.0658  0.0200 -3.1501
  179SLPC  H12B20332   3.023   2.281   2.256 -1.6105 -0.8848  0.3145
  179SLPC   C1120333   2.946   2.315   2.449  0.0751  0.3792  0.1070
  179SLPC  H11A20334   3.042   2.304   2.504 -0.2337  0.0534  0.5894
  179SLPC  H11B20335   2.895   2.216   2.440  2.6522 -1.1801  1.8394
  179SLPC     P20336   2.782   2.390   2.642 -0.2986 -0.1365  0.0272
  179SLPC   O1320337   2.664   2.484   2.647 -0.0692  0.3103  0.1323
  179SLPC   O1420338   2.750   2.248   2.656 -0.2932 -0.2416  0.2017
  179SLPC   O1220339   2.866   2.415   2.510  0.4143  0.0375  0.0763
  179SLPC   O1120340   2.878   2.434   2.759  0.1883  0.5579 -0.1762
  179SLPC    C120341   2.892   2.354   2.878 -0.0249 -0.1529  0.7452
  179SLPC    HA20342   2.828   2.264   2.868 -0.4616  0.4054 -2.0620
  179SLPC    HB20343   2.994   2.314   2.899  0.5138  0.6771 -0.2060
  179SLPC    C220344   2.828   2.429   3.000 -0.1580 -0.5236 -0.1237
  179SLPC    HS20345   2.874   2.530   3.010  0.8772 -0.6846 -2.8758
  179SLPC   O2120346   2.849   2.354   3.123  0.2085  0.0369  0.0323
  179SLPC   C2120347   2.973   2.368   3.165 -0.2777  0.1029 -0.0368
  179SLPC   O2220348   3.061   2.443   3.124  0.8147  0.0962 -0.1109
  179SLPC   C2220349   3.006   2.265   3.284  0.3364  0.5559 -0.1754
  179SLPC   H2R20350   2.919   2.281   3.352 -1.1286 -2.9801 -1.0922
  179SLPC   H2S20351   3.008   2.161   3.244  0.8906  0.2469  0.6714
  179SLPC    C320352   2.672   2.451   2.980  0.5435  0.0445 -0.8744
  179SLPC    HX20353   2.636   2.347   2.971  2.4912 -0.7103 -0.3602
  179SLPC    HY20354   2.655   2.509   2.887 -0.4105 -0.1053 -0.7972
  179SLPC   O3120355   2.602   2.517   3.088  0.2603  0.3941 -0.0695
  179SLPC   C3120356   2.471   2.526   3.071  0.2579 -0.5220 -0.1245
  179SLPC   O3220357   2.419   2.476   2.974 -0.1116  0.1524  0.0590
  179SLPC   C3220358   2.408   2.605   3.197  0.1663  0.5287  0.0983
  179SLPC   H2X20359   2.483   2.679   3.232  1.8401 -1.7872  1.5475
  179SLPC   H2Y20360   2.388   2.535   3.281 -1.4392  1.2425  0.3373
  179SLPC   C2320361   3.133   2.296   3.357 -0.0640 -0.4957 -0.1558
  179SLPC   H3R20362   3.132   2.259   3.462  1.6288  2.2806  0.9026
  179SLPC   H3S20363   3.144   2.406   3.370 -2.2367 -0.2419 -0.2179
  179SLPC   C2420364   3.259   2.231   3.296 -0.5835  0.0267 -0.3942
  179SLPC   H4R20365   3.269   2.272   3.194 -0.8014 -0.2687 -0.5345
  179SLPC   H4S20366   3.251   2.121   3.285 -1.8306  0.1307 -0.6133
  179SLPC   C2520367   3.394   2.266   3.366 -0.5486 -0.5894 -0.2298
  179SLPC   H5R20368   3.401   2.372   3.331  0.9307 -0.8567 -0.8217
  179SLPC   H5S20369   3.471   2.205   3.314  2.5172  0.5730  2.7396
  179SLPC   C2620370   3.393   2.248   3.515  1.1772 -0.3612 -0.5135
  179SLPC   H6R20371   3.323   2.322   3.557  2.7846  0.0597  1.4844
  179SLPC   H6S20372   3.500   2.263   3.540  1.3497 -3.0361  0.5043
  179SLPC   C2720373   3.343   2.118   3.559  0.1334 -0.2785  0.0400
  179SLPC   H7R20374   3.404   2.040   3.509  0.6163  1.2272 -1.7713
  179SLPC   H7S20375   3.235   2.095   3.551  0.2022 -1.0736  1.1889
  179SLPC   C2820376   3.362   2.106   3.716  0.4369 -0.5741 -0.8109
  179SLPC   H8R20377   3.468   2.112   3.749 -0.0395  2.0727  0.3839
  179SLPC   H8S20378   3.313   2.012   3.749 -0.5905  0.5837  1.0285
  179SLPC   C2920379   3.272   2.201   3.799  0.3071  0.6186  0.5599
  179SLPC   H9R20380   3.187   2.237   3.739 -0.4856 -1.2637  0.5153
  179SLPC  C21020381   3.291   2.251   3.922 -0.0755 -0.5158  0.2847
  179SLPC  H10R20382   3.229   2.333   3.961  0.5974  1.9449 -3.4629
  179SLPC  C21120383   3.416   2.225   4.000 -0.3336 -0.8533 -0.1261
  179SLPC  H11R20384   3.480   2.312   3.975 -2.8150  1.3439  0.9233
  179SLPC  H11S20385   3.463   2.136   3.954  0.9544  1.3647 -3.3094
  179SLPC  C21220386   3.391   2.225   4.143  0.3482 -0.1096  1.0447
  179SLPC  H12R20387   3.286   2.211   4.174 -0.4490 -2.2350 -2.4222
  179SLPC  C21320388   3.480   2.246   4.238  0.0959 -0.7426 -0.0779
  179SLPC  H13R20389   3.440   2.262   4.339  2.5722  1.9120  0.5792
  179SLPC  C21420390   3.622   2.279   4.218 -0.7943 -0.6284 -0.6115
  179SLPC  H14R20391   3.628   2.374   4.159  0.1646 -0.2072  0.1568
  179SLPC  H14S20392   3.677   2.203   4.159  1.2582 -0.7164  1.3776
  179SLPC  C21520393   3.696   2.302   4.345 -0.3821 -0.8463 -0.0686
  179SLPC  H15R20394   3.629   2.373   4.398 -0.2468  0.0978 -1.1657
  179SLPC  H15S20395   3.792   2.353   4.324 -2.8136  4.1334  0.2611
  179SLPC  C21620396   3.716   2.170   4.423 -0.1785 -0.3787 -0.5680
  179SLPC  H16R20397   3.755   2.095   4.352 -1.4737 -0.9238 -0.7099
  179SLPC  H16S20398   3.618   2.142   4.468  0.6355 -1.1779  0.7326
  179SLPC  C21720399   3.795   2.180   4.554 -0.2634  0.3327  0.8338
  179SLPC  H17R20400   3.781   2.088   4.616 -1.4203 -0.0526 -0.0031
  179SLPC  H17S20401   3.772   2.273   4.611 -1.0659  0.5460  0.1643
  179SLPC  C21820402   3.939   2.186   4.522  0.6705  0.2335 -0.0040
  179SLPC  H18R20403   3.979   2.103   4.460  3.5137  0.9606  0.7889
  179SLPC  H18S20404   3.996   2.186   4.617 -0.0004 -0.1340  0.3986
  179SLPC  H18T20405   3.966   2.272   4.456  2.2919 -0.2574  0.0065
  179SLPC   C3320406   2.276   2.673   3.156 -0.1622 -0.1964 -0.3283
  179SLPC   H3X20407   2.203   2.591   3.136  2.6441 -3.2374  1.3878
  179SLPC   H3Y20408   2.290   2.729   3.062  1.3316 -1.3971 -0.8451
  179SLPC   C3420409   2.220   2.775   3.258  0.1593 -0.1438 -0.0411
  179SLPC   H4X20410   2.161   2.734   3.343  0.5346 -0.4941  0.0501
  179SLPC   H4Y20411   2.142   2.822   3.194 -1.3848 -2.1882  0.2895
  179SLPC   C3520412   2.321   2.878   3.303  0.0537 -1.0951 -0.4551
  179SLPC   H5X20413   2.406   2.833   3.359 -0.2974  1.2295  2.0886
  179SLPC   H5Y20414   2.369   2.922   3.213  0.3503 -0.2832  0.0937
  179SLPC   C3620415   2.252   2.984   3.391  0.5332  0.4920 -0.2604
  179SLPC   H6X20416   2.201   2.940   3.480 -1.4685  1.0741 -1.1024
  179SLPC   H6Y20417   2.166   3.031   3.339  0.1371 -0.1781 -0.2153
  179SLPC   C3720418   2.339   3.108   3.444  0.4786 -0.3311  1.0978
  179SLPC   H7X20419   2.278   3.164   3.517 -0.3776  0.9975 -0.5998
  179SLPC   H7Y20420   2.367   3.179   3.363 -2.8418  0.7350  0.7892
  179SLPC   C3820421   2.460   3.069   3.528 -0.3260  0.2720  0.6189
  179SLPC   H8X20422   2.534   3.015   3.464 -0.4419  1.1693 -0.2866
  179SLPC   H8Y20423   2.418   3.004   3.608 -1.1361  1.2228  0.9741
  179SLPC   C3920424   2.526   3.192   3.588  0.4913  0.6858  1.2404
  179SLPC   H9X20425   2.458   3.237   3.664 -1.5673  2.0831 -1.3289
  179SLPC   H9Y20426   2.561   3.256   3.504  0.4250  0.0643  0.7416
  179SLPC  C31020427   2.648   3.156   3.678 -0.6149 -1.1359  0.2432
  179SLPC  H10X20428   2.663   3.248   3.738  1.3564 -1.3498  0.1189
  179SLPC  H10Y20429   2.733   3.151   3.607 -1.1929 -1.3048 -0.4489
  179SLPC  C31120430   2.657   3.030   3.762  0.1197 -0.5449  0.3621
  179SLPC  H11X20431   2.653   2.942   3.695 -0.3855 -0.0861 -0.2247
  179SLPC  H11Y20432   2.566   3.037   3.825 -0.6160  2.6395 -0.9050
  179SLPC  C31220433   2.782   3.011   3.850  0.3621 -0.1432  0.0215
  179SLPC  H12X20434   2.873   3.018   3.787 -0.0295  0.8493 -0.4364
  179SLPC  H12Y20435   2.777   2.926   3.922  0.0679 -0.1313  0.0185
  179SLPC  C31320436   2.794   3.135   3.947 -0.1130 -0.4220 -0.7737
  179SLPC  H13X20437   2.700   3.149   4.005  0.2397 -0.8212 -0.1054
  179SLPC  H13Y20438   2.799   3.213   3.867  1.1078 -1.1662 -1.4421
  179SLPC  C31420439   2.909   3.135   4.051 -0.5693  0.0901  0.0748
  179SLPC  H14X20440   2.913   3.243   4.079  1.7340  0.2553 -0.7346
  179SLPC  H14Y20441   3.005   3.104   4.004 -0.7518  0.9260 -0.8664
  179SLPC  C31520442   2.897   3.047   4.177  0.1606  0.8068  0.4309
  179SLPC  H15X20443   3.001   3.023   4.206  0.2381 -1.1212 -1.2996
  179SLPC  H15Y20444   2.855   2.948   4.148 -0.5711  0.8246  1.3939
  179SLPC  C31620445   2.824   3.129   4.285  0.7752 -0.2360 -0.4316
  179SLPC  H16X20446   2.721   3.162   4.257  1.4930  1.5811 -1.0028
  179SLPC  H16Y20447   2.881   3.223   4.301 -0.9041  0.9031 -1.0102
  179SLPC  C31720448   2.816   3.050   4.414  0.0046  0.4494  0.3391
  179SLPC  H17X20449   2.921   3.043   4.449 -0.2974 -1.9439  0.8601
  179SLPC  H17Y20450   2.772   2.953   4.383 -1.9593  1.8587 -1.4339
  179SLPC  C31820451   2.735   3.115   4.526  0.4276  0.1558 -0.6835
  179SLPC  H18X20452   2.762   3.223   4.526  1.7074 -0.1551 -0.0846
  179SLPC  H18Y20453   2.768   3.089   4.629  0.2833  1.7275 -0.2245
  179SLPC  H18Z20454   2.628   3.087   4.517  0.7976 -1.1562 -1.0111
  180SLPC     N20455   2.321   3.328   2.228  0.2252 -0.0658  0.8845
  180SLPC   C1320456   2.288   3.317   2.371 -1.2270 -0.3253  0.4262
  180SLPC  H13A20457   2.277   3.414   2.418  0.1335  0.6488 -1.2207
  180SLPC  H13B20458   2.194   3.265   2.377 -1.2974  0.0164  2.6001
  180SLPC  H13C20459   2.354   3.264   2.439 -0.1704 -0.2277 -0.5147
  180SLPC   C1420460   2.342   3.201   2.157 -0.0640  0.8569 -0.1658
  180SLPC  H14A20461   2.401   3.208   2.067  1.0199 -4.4642  0.0026
  180SLPC  H14B20462   2.406   3.144   2.223 -0.0069  1.3651  0.2253
  180SLPC  H14C20463   2.254   3.142   2.137  0.0308 -1.1891  4.6297
  180SLPC   C1520464   2.445   3.406   2.213  0.2469  0.0529  0.2637
  180SLPC  H15A20465   2.468   3.430   2.110 -0.4901  0.4273  0.1866
  180SLPC  H15B20466   2.435   3.506   2.253 -0.8277  0.0194  0.0728
  180SLPC  H15C20467   2.543   3.376   2.250  0.3693 -0.3107 -0.3549
  180SLPC   C1220468   2.201   3.399   2.166  0.3604 -0.4343  0.1205
  180SLPC  H12A20469   2.221   3.399   2.060  1.5046  1.5775  0.3155
  180SLPC  H12B20470   2.203   3.503   2.195 -1.7472 -1.1755  3.2082
  180SLPC   C1120471   2.059   3.332   2.202  0.4776 -0.1685 -0.2076
  180SLPC  H11A20472   2.064   3.221   2.203  0.1448 -0.1694  1.9143
  180SLPC  H11B20473   1.989   3.370   2.125  0.8515  0.9175 -0.0285
  180SLPC     P20474   1.988   3.532   2.371  0.4535 -0.3232 -0.7146
  180SLPC   O1320475   2.113   3.612   2.352  0.0757 -0.4025 -0.6953
  180SLPC   O1420476   1.871   3.563   2.290  0.0747  0.7654 -0.2894
  180SLPC   O1220477   2.019   3.384   2.331  0.1991 -0.2608 -0.1326
  180SLPC   O1120478   1.937   3.534   2.526  0.2331 -0.3502  0.0105
  180SLPC    C120479   1.940   3.663   2.590  0.5844 -0.1851 -0.0516
  180SLPC    HA20480   2.032   3.667   2.651  0.2075 -3.4568  0.8168
  180SLPC    HB20481   1.958   3.750   2.523 -1.0676 -0.0903 -0.3968
  180SLPC    C220482   1.815   3.689   2.678 -0.2289 -0.3230  0.0089
  180SLPC    HS20483   1.735   3.701   2.602  0.7590 -0.0892 -1.0096
  180SLPC   O2120484   1.845   3.820   2.736  0.2183  0.5528  0.6613
  180SLPC   C2120485   1.739   3.882   2.790 -0.0515  0.4657 -0.4550
  180SLPC   O2220486   1.629   3.835   2.778 -0.4483  0.8176 -0.8117
  180SLPC   C2220487   1.772   4.022   2.830 -0.3491  0.0148 -0.5599
  180SLPC   H2R20488   1.827   4.015   2.926 -1.2428  0.1219 -0.0382
  180SLPC   H2S20489   1.847   4.065   2.760  2.3312  0.5225  2.5199
  180SLPC    C320490   1.773   3.582   2.779  0.6982 -0.2488 -0.1469
  180SLPC    HX20491   1.769   3.502   2.702 -1.3625  0.1617 -0.4996
  180SLPC    HY20492   1.673   3.604   2.821  0.9091  1.3146 -0.4605
  180SLPC   O3120493   1.879   3.561   2.875 -0.3637  0.4869  0.0193
  180SLPC   C3120494   1.861   3.635   2.993 -0.3718 -1.2144  0.7420
  180SLPC   O3220495   1.762   3.695   3.022  0.5451  0.2608  0.4644
  180SLPC   C3220496   1.980   3.613   3.090  0.6323 -0.4575  0.0467
  180SLPC   H2X20497   2.059   3.561   3.031  0.4806  1.8213 -2.2238
  180SLPC   H2Y20498   1.946   3.532   3.159 -0.4501 -1.2487 -1.4001
  180SLPC   C2320499   1.647   4.112   2.855 -0.4002  0.1990 -0.0583
  180SLPC   H3R20500   1.578   4.063   2.928  0.0033  0.5265  0.5490
  180SLPC   H3S20501   1.608   4.139   2.755 -2.0792  1.3592  0.8760
  180SLPC   C2420502   1.690   4.243   2.928 -0.5334  0.6453 -0.3236
  180SLPC   H4R20503   1.744   4.316   2.864 -0.2224  1.1722  0.5182
  180SLPC   H4S20504   1.748   4.204   3.015 -0.5889  0.2818 -0.4498
  180SLPC   C2520505   1.552   4.292   2.991 -0.1229 -0.7795  1.4605
  180SLPC   H5R20506   1.465   4.273   2.923  0.9129 -2.6139  0.6027
  180SLPC   H5S20507   1.567   4.402   2.998 -1.5003 -0.3843 -0.9165
  180SLPC   C2620508   1.532   4.227   3.127  0.3303  0.0809 -0.1909
  180SLPC   H6R20509   1.619   4.261   3.187  0.2068  0.6201 -0.3168
  180SLPC   H6S20510   1.540   4.117   3.123 -0.8788 -0.0244 -0.0421
  180SLPC   C2720511   1.405   4.274   3.200  0.5801 -0.1550 -0.3330
  180SLPC   H7R20512   1.326   4.195   3.197 -1.4005  1.7667 -0.3091
  180SLPC   H7S20513   1.362   4.370   3.163 -0.3590 -0.2852  0.3945
  180SLPC   C2820514   1.441   4.301   3.346  1.0855  0.3424 -0.2552
  180SLPC   H8R20515   1.365   4.370   3.389  0.8530 -0.7120  1.0492
  180SLPC   H8S20516   1.533   4.361   3.362 -0.1206  2.5193 -1.1550
  180SLPC   C2920517   1.433   4.179   3.432 -0.3076  0.2511 -0.4430
  180SLPC   H9R20518   1.343   4.167   3.494 -0.6374  0.8750 -0.8034
  180SLPC  C21020519   1.524   4.087   3.459 -0.8737  0.4023 -0.1697
  180SLPC  H10R20520   1.497   4.003   3.525  0.1714 -0.8152 -1.2497
  180SLPC  C21120521   1.667   4.073   3.403  0.8901 -1.2306 -0.6080
  180SLPC  H11R20522   1.732   4.064   3.492 -0.6612  0.1318  0.7167
  180SLPC  H11S20523   1.710   4.162   3.352 -1.3278 -0.2452 -0.8573
  180SLPC  C21220524   1.692   3.955   3.305 -0.4835 -0.7278 -0.5161
  180SLPC  H12R20525   1.715   3.984   3.202  2.4845 -1.6848 -0.1974
  180SLPC  C21320526   1.692   3.826   3.340 -0.1024  0.2204  0.7033
  180SLPC  H13R20527   1.720   3.748   3.268  1.2470  1.4974 -0.1873
  180SLPC  C21420528   1.670   3.775   3.480  0.8736 -0.0977  0.7624
  180SLPC  H14R20529   1.600   3.690   3.463 -0.7191  1.5415 -1.2391
  180SLPC  H14S20530   1.622   3.848   3.548 -1.5695 -0.2424 -0.7414
  180SLPC  C21520531   1.793   3.710   3.543  0.1842 -0.0522  0.2136
  180SLPC  H15R20532   1.852   3.645   3.474 -0.9770 -1.4199  0.4899
  180SLPC  H15S20533   1.745   3.641   3.615  1.1952  0.6441  1.5624
  180SLPC  C21620534   1.881   3.818   3.606 -0.4423 -0.1136 -0.0685
  180SLPC  H16R20535   1.823   3.875   3.682  0.3064  0.3750  0.1467
  180SLPC  H16S20536   1.918   3.880   3.522 -1.0971 -0.8413 -0.8966
  180SLPC  C21720537   2.003   3.757   3.691  0.1431 -0.2474  0.3106
  180SLPC  H17R20538   1.955   3.685   3.761 -0.6004  0.3671  0.4316
  180SLPC  H17S20539   2.046   3.839   3.752  0.8490 -0.1033 -0.3713
  180SLPC  C21820540   2.114   3.686   3.610  0.3605  0.2911 -0.2853
  180SLPC  H18R20541   2.196   3.654   3.678 -0.9690 -0.6366  0.9204
  180SLPC  H18S20542   2.152   3.751   3.528  1.2973 -0.4059 -0.4165
  180SLPC  H18T20543   2.074   3.593   3.566 -1.1829  1.6432 -1.8311
  180SLPC   C3320544   2.024   3.737   3.150 -0.5809  0.2356 -0.0229
  180SLPC   H3X20545   2.093   3.723   3.235 -0.7344 -0.9807 -0.0911
  180SLPC   H3Y20546   1.933   3.779   3.197 -0.8476  1.0375 -1.2198
  180SLPC   C3420547   2.077   3.837   3.050  0.0853  0.7683 -0.1918
  180SLPC   H4X20548   1.993   3.867   2.985  0.2885  2.0972  0.1353
  180SLPC   H4Y20549   2.161   3.791   2.993 -0.5848  0.0486 -0.6084
  180SLPC   C3520550   2.135   3.964   3.110  0.1838  0.6128  0.4249
  180SLPC   H5X20551   2.151   4.023   3.017 -0.0521 -0.0118 -0.0237
  180SLPC   H5Y20552   2.237   3.950   3.152  1.2711 -0.8459 -2.5137
  180SLPC   C3620553   2.049   4.043   3.213 -0.1023  0.2186  0.2311
  180SLPC   H6X20554   1.984   3.979   3.278 -2.1762  0.1996 -1.8090
  180SLPC   H6Y20555   1.971   4.087   3.146  0.1372  0.8356  0.3527
  180SLPC   C3720556   2.135   4.155   3.279 -1.0250 -0.0060 -0.1779
  180SLPC   H7X20557   2.192   4.220   3.209 -0.7593 -0.7045 -0.6194
  180SLPC   H7Y20558   2.207   4.094   3.336 -0.6945 -1.0956 -1.7205
  180SLPC   C3820559   2.051   4.239   3.379 -1.0933 -0.1402  0.1725
  180SLPC   H8X20560   1.981   4.173   3.436 -0.9736  0.3488  0.8948
  180SLPC   H8Y20561   1.994   4.324   3.337  0.0368  0.3874 -0.3180
  180SLPC   C3920562   2.142   4.294   3.497 -0.1563  0.3356  0.0781
  180SLPC   H9X20563   2.214   4.374   3.470  3.8971 -3.7454 -1.7998
  180SLPC   H9Y20564   2.189   4.201   3.534 -1.0787  0.0767  0.6197
  180SLPC  C31020565   2.057   4.341   3.622 -0.5897 -0.5651  0.0640
  180SLPC  H10X20566   1.988   4.419   3.582 -1.0790 -1.2221 -0.3825
  180SLPC  H10Y20567   2.126   4.393   3.692 -2.5733  0.8371  1.0178
  180SLPC  C31120568   1.962   4.240   3.687  0.3683  0.3263 -0.7714
  180SLPC  H11X20569   2.022   4.147   3.698  1.8821  1.1772 -1.7484
  180SLPC  H11Y20570   1.875   4.208   3.626  1.6350  1.2426 -3.0858
  180SLPC  C31220571   1.915   4.277   3.836  0.4807  0.1849 -0.4718
  180SLPC  H12X20572   1.875   4.381   3.832  0.9311  0.3165 -1.6290
  180SLPC  H12Y20573   2.002   4.266   3.905  0.8396  0.6146 -0.8553
  180SLPC  C31320574   1.808   4.187   3.895 -0.4238 -0.0214 -0.2173
  180SLPC  H13X20575   1.783   4.224   3.997 -1.9207 -1.9916  0.1699
  180SLPC  H13Y20576   1.846   4.084   3.909  1.3364  0.8962  2.2784
  180SLPC  C31420577   1.680   4.183   3.809 -0.8642 -0.0480 -1.0022
  180SLPC  H14X20578   1.716   4.145   3.711 -0.2655  1.5170 -1.4097
  180SLPC  H14Y20579   1.645   4.286   3.785  1.8196  0.5062 -2.7636
  180SLPC  C31520580   1.575   4.099   3.876 -0.6521  0.5125  0.3882
  180SLPC  H15X20581   1.586   4.093   3.986 -1.2682  1.2267  0.4917
  180SLPC  H15Y20582   1.595   3.996   3.841  0.8852  0.5431  1.1512
  180SLPC  C31620583   1.434   4.132   3.825  0.0282  0.3647  0.6629
  180SLPC  H16X20584   1.367   4.043   3.828  1.2582 -0.5438  1.6653
  180SLPC  H16Y20585   1.438   4.164   3.719  0.6338 -0.4672  0.4290
  180SLPC  C31720586   1.379   4.245   3.906  0.3152  0.7936  0.5492
  180SLPC  H17X20587   1.453   4.328   3.903 -0.5580  1.6049  0.8026
  180SLPC  H17Y20588   1.373   4.219   4.013 -3.5314 -1.5605 -0.1401
  180SLPC  C31820589   1.251   4.306   3.856  0.1528 -0.5549 -0.0914
  180SLPC  H18X20590   1.267   4.320   3.747  0.0282 -1.0382 -0.1706
  180SLPC  H18Y20591   1.233   4.400   3.912  2.7301 -0.7533  1.1448
  180SLPC  H18Z20592   1.164   4.243   3.884 -0.9792  1.0202  0.0406
  181SLPC     N20593   1.570   2.161   2.379 -0.1372  0.3687 -0.9126
  181SLPC   C1320594   1.533   2.109   2.239  0.1968 -0.2696 -0.0523
  181SLPC  H13A20595   1.550   2.003   2.230 -1.6592 -0.6597  0.8005
  181SLPC  H13B20596   1.431   2.140   2.219  0.9534  2.5883  0.3730
  181SLPC  H13C20597   1.606   2.149   2.170  1.6095  1.6964  2.4792
  181SLPC   C1420598   1.608   2.304   2.375 -0.7974  0.6187  0.7394
  181SLPC  H14A20599   1.694   2.323   2.313 -1.2286 -1.9148 -0.6609
  181SLPC  H14B20600   1.523   2.356   2.331  0.1354  0.3386 -1.4388
  181SLPC  H14C20601   1.621   2.354   2.470  1.7244 -0.2560  0.8812
  181SLPC   C1520602   1.702   2.091   2.422 -0.4212 -0.4822  0.3411
  181SLPC  H15A20603   1.729   2.140   2.514 -0.2640 -0.5362  0.3236
  181SLPC  H15B20604   1.693   1.983   2.433  0.0886 -0.6166 -0.5351
  181SLPC  H15C20605   1.782   2.098   2.350  0.3991 -0.5738  1.2357
  181SLPC   C1220606   1.456   2.148   2.476  0.4650  0.1905 -0.2565
  181SLPC  H12A20607   1.368   2.202   2.444 -0.9795 -2.0056 -0.1040
  181SLPC  H12B20608   1.473   2.182   2.577 -0.4515  2.2433 -0.7655
  181SLPC   C1120609   1.422   1.999   2.504  0.1848 -0.0636  0.3434
  181SLPC  H11A20610   1.439   1.939   2.412 -0.2808  0.2441  0.0579
  181SLPC  H11B20611   1.317   1.967   2.521  1.0877 -3.4032  0.0918
  181SLPC     P20612   1.532   2.017   2.745  0.3325 -0.2263 -0.0106
  181SLPC   O1320613   1.603   1.919   2.826  0.4030  0.5019 -0.6380
  181SLPC   O1420614   1.592   2.149   2.725  0.4462  0.1923 -0.0142
  181SLPC   O1220615   1.514   1.957   2.607  0.1089  0.0537 -0.3435
  181SLPC   O1120616   1.380   2.030   2.793  0.2713  0.1835 -0.4300
  181SLPC    C120617   1.314   1.924   2.862 -0.3317 -0.3396 -0.4358
  181SLPC    HA20618   1.224   1.886   2.808  0.0035  0.2147 -1.3924
  181SLPC    HB20619   1.372   1.831   2.880  1.0128  1.0222  2.6033
  181SLPC    C220620   1.264   1.968   3.004 -0.2044  0.4581 -0.1079
  181SLPC    HS20621   1.174   2.032   2.995 -1.3574 -1.0169  0.6547
  181SLPC   O2120622   1.360   2.047   3.066 -0.2296  0.2868  0.4560
  181SLPC   C2120623   1.380   2.177   3.032  0.6548  0.1831 -0.5087
  181SLPC   O2220624   1.309   2.242   2.960  0.3198  0.2251 -0.0062
  181SLPC   C2220625   1.519   2.225   3.082 -0.1235 -0.6386 -0.5980
  181SLPC   H2R20626   1.587   2.137   3.081 -1.6864 -1.8707 -1.4331
  181SLPC   H2S20627   1.543   2.306   3.010  1.1702 -0.4146  0.0729
  181SLPC    C320628   1.225   1.834   3.084  0.0601  0.5967  0.1007
  181SLPC    HX20629   1.154   1.767   3.032  2.8288 -1.5766 -0.9890
  181SLPC    HY20630   1.181   1.857   3.183 -1.4487  1.3269 -0.7179
  181SLPC   O3120631   1.348   1.758   3.096  0.4870 -0.1266 -0.2751
  181SLPC   C3120632   1.407   1.766   3.213  0.8464  0.3448  0.2727
  181SLPC   O3220633   1.357   1.800   3.319  0.1701  0.0687  0.0363
  181SLPC   C3220634   1.550   1.712   3.194 -0.0768  0.4587  0.1290
  181SLPC   H2X20635   1.545   1.643   3.107 -1.9191  0.3182  0.3420
  181SLPC   H2Y20636   1.581   1.644   3.277  0.8846 -1.4776 -1.7652
  181SLPC   C2320637   1.502   2.288   3.225 -0.0205  0.1401 -0.2366
  181SLPC   H3R20638   1.489   2.201   3.293  1.6100  0.7849  0.9271
  181SLPC   H3S20639   1.403   2.333   3.244 -0.5299 -0.4640 -1.3886
  181SLPC   C2420640   1.627   2.364   3.272 -0.2444 -0.2268 -0.4798
  181SLPC   H4R20641   1.629   2.461   3.218 -4.6244  1.1778  1.6760
  181SLPC   H4S20642   1.723   2.312   3.251 -0.8282 -1.5835  0.1577
  181SLPC   C2520643   1.622   2.392   3.428  0.6582  0.3617 -0.2208
  181SLPC   H5R20644   1.524   2.428   3.468  0.0930 -1.7131  0.3400
  181SLPC   H5S20645   1.693   2.473   3.454 -1.0347  1.0362  2.5086
  181SLPC   C2620646   1.654   2.278   3.518  0.1270 -0.8320  0.2236
  181SLPC   H6R20647   1.744   2.221   3.485 -0.0732 -1.3772  0.6158
  181SLPC   H6S20648   1.566   2.211   3.512 -0.1706 -0.3919 -0.3104
  181SLPC   C2720649   1.670   2.312   3.668 -0.3941 -0.5186 -0.2977
  181SLPC   H7R20650   1.575   2.359   3.700 -0.6249 -1.2471  0.0706
  181SLPC   H7S20651   1.753   2.386   3.674 -2.2986  2.0241 -3.4859
  181SLPC   C2820652   1.712   2.198   3.761  0.1647 -0.3324  0.9203
  181SLPC   H8R20653   1.728   2.223   3.868 -2.0160  1.4525  0.8789
  181SLPC   H8S20654   1.813   2.172   3.724 -0.5462  0.9475 -2.1216
  181SLPC   C2920655   1.618   2.081   3.742  0.1961 -0.2132  0.2444
  181SLPC   H9R20656   1.626   2.034   3.642  1.3954 -1.8366  1.0826
  181SLPC  C21020657   1.544   2.026   3.835 -0.7106 -0.4310 -0.2543
  181SLPC  H10R20658   1.483   1.938   3.807 -0.9086  0.4010 -2.5046
  181SLPC  C21120659   1.528   2.058   3.984 -0.2301 -0.5216 -0.7531
  181SLPC  H11R20660   1.458   2.143   3.997 -1.5931 -1.8528  0.8347
  181SLPC  H11S20661   1.625   2.100   4.018 -0.7884 -0.1401  0.3707
  181SLPC  C21220662   1.476   1.940   4.058 -0.6304 -0.7156 -0.1098
  181SLPC  H12R20663   1.375   1.905   4.033 -0.0022 -3.4683  1.0690
  181SLPC  C21320664   1.539   1.878   4.165  0.1570  1.1723  0.1704
  181SLPC  H13R20665   1.470   1.818   4.226 -0.4214 -0.1064 -1.7273
  181SLPC  C21420666   1.673   1.912   4.226 -0.2719  0.1501  0.6190
  181SLPC  H14R20667   1.737   1.970   4.156 -0.1211 -0.1255  0.5298
  181SLPC  H14S20668   1.729   1.821   4.257  0.1629 -0.4313 -1.7999
  181SLPC  C21520669   1.676   1.998   4.358  0.5928 -0.5694  0.3778
  181SLPC  H15R20670   1.587   2.063   4.367 -0.1308 -1.4233 -0.4271
  181SLPC  H15S20671   1.759   2.071   4.367  0.7630 -0.7111 -0.0190
  181SLPC  C21620672   1.674   1.909   4.488  0.6520  0.0881  0.8537
  181SLPC  H16R20673   1.754   1.832   4.488 -0.3019 -0.9496 -1.0118
  181SLPC  H16S20674   1.580   1.849   4.487  0.9841 -0.5177 -2.9805
  181SLPC  C21720675   1.674   2.006   4.603 -0.0939  0.5401 -0.2450
  181SLPC  H17R20676   1.617   1.967   4.691 -0.3904  0.7883 -0.3269
  181SLPC  H17S20677   1.618   2.096   4.570 -3.0761 -1.1132  0.0767
  181SLPC  C21820678   1.808   2.041   4.658 -0.3715  0.1991 -0.6527
  181SLPC  H18R20679   1.795   2.102   4.750 -1.5443 -1.9127  0.6215
  181SLPC  H18S20680   1.873   2.106   4.596 -0.3445  0.0262 -0.8036
  181SLPC  H18T20681   1.871   1.952   4.679 -1.1650 -0.6113 -1.6961
  181SLPC   C3320682   1.648   1.831   3.165  0.2055 -0.6259  0.0607
  181SLPC   H3X20683   1.599   1.902   3.095  3.1570 -0.6701 -2.1288
  181SLPC   H3Y20684   1.737   1.791   3.114  0.1655  1.6339 -1.8521
  181SLPC   C3420685   1.691   1.896   3.293 -0.1151  0.1859  0.0061
  181SLPC   H4X20686   1.609   1.887   3.367  0.6120  1.6330  1.0162
  181SLPC   H4Y20687   1.702   2.006   3.279 -3.5067  0.6040  0.2267
  181SLPC   C3520688   1.823   1.841   3.351 -0.1959 -0.1039 -0.3755
  181SLPC   H5X20689   1.907   1.863   3.282  0.4952 -0.6811  0.2679
  181SLPC   H5Y20690   1.825   1.731   3.370 -1.2152 -0.1409 -0.4472
  181SLPC   C3620691   1.867   1.901   3.485  0.4281  0.0061 -0.7430
  181SLPC   H6X20692   1.790   1.868   3.558  0.9140 -0.4854 -0.4431
  181SLPC   H6Y20693   1.865   2.012   3.485  2.2047  0.0506 -1.1354
  181SLPC   C3720694   2.008   1.863   3.534  0.0921  0.3095  0.1688
  181SLPC   H7X20695   2.086   1.912   3.472 -0.3241 -0.2414 -0.7902
  181SLPC   H7Y20696   2.034   1.755   3.523 -0.9771  0.2688 -2.2352
  181SLPC   C3820697   2.034   1.904   3.674  0.5596 -0.4627 -0.7410
  181SLPC   H8X20698   1.994   2.007   3.684  0.1531 -0.5722 -1.1865
  181SLPC   H8Y20699   2.144   1.920   3.675  0.2627  1.7692  0.7908
  181SLPC   C3920700   1.976   1.810   3.777 -0.1700  0.4392 -0.1807
  181SLPC   H9X20701   2.017   1.710   3.753  2.8268  1.8657 -1.2186
  181SLPC   H9Y20702   1.865   1.809   3.788 -0.1811  0.3750 -0.3036
  181SLPC  C31020703   2.039   1.835   3.916  0.5507 -0.5588  0.4855
  181SLPC  H10X20704   2.147   1.860   3.925  0.4313 -0.8889  3.4855
  181SLPC  H10Y20705   2.024   1.745   3.980 -1.2610  0.3708  1.4167
  181SLPC  C31120706   1.963   1.939   4.006  0.0991  0.1314  1.9531
  181SLPC  H11X20707   1.853   1.920   4.001  0.3102 -0.9357  1.2480
  181SLPC  H11Y20708   1.979   2.040   3.963 -0.3574 -1.4334 -2.1356
  181SLPC  C31220709   2.017   1.932   4.148 -0.2157 -0.4903  0.6218
  181SLPC  H12X20710   2.007   1.830   4.188 -2.4943 -0.6410 -0.2845
  181SLPC  H12Y20711   1.947   1.994   4.207 -0.1941 -2.9511  3.3279
  181SLPC  C31320712   2.158   1.993   4.184  0.5408  0.1159 -0.5336
  181SLPC  H13X20713   2.171   2.091   4.132  1.0560 -0.3608 -1.3204
  181SLPC  H13Y20714   2.238   1.922   4.153  1.0095  0.0856  0.7018
  181SLPC  C31420715   2.190   2.012   4.335 -0.5861 -0.1498  0.2042
  181SLPC  H14X20716   2.301   2.024   4.336 -0.6090  0.3766  4.5448
  181SLPC  H14Y20717   2.158   1.920   4.388  0.4094 -0.9191 -0.4994
  181SLPC  C31520718   2.123   2.123   4.400  0.4546 -0.5692  0.1700
  181SLPC  H15X20719   2.013   2.118   4.409  0.4334  0.2879  0.4647
  181SLPC  H15Y20720   2.131   2.219   4.345 -0.4401 -0.3257  0.4648
  181SLPC  C31620721   2.180   2.151   4.538 -0.8704 -0.8503  0.1376
  181SLPC  H16X20722   2.291   2.156   4.528 -0.8721 -2.4499 -0.8581
  181SLPC  H16Y20723   2.165   2.066   4.608  0.0957 -0.5865  0.6763
  181SLPC  C31720724   2.134   2.288   4.598 -0.2525  0.2451 -0.3831
  181SLPC  H17X20725   2.024   2.288   4.584 -0.0658  0.6862 -1.8815
  181SLPC  H17Y20726   2.169   2.370   4.532 -0.0699 -0.1752 -0.8128
  181SLPC  C31820727   2.189   2.323   4.742  0.3101 -1.3256  0.1846
  181SLPC  H18X20728   2.294   2.358   4.736  0.4410 -1.4671  1.4942
  181SLPC  H18Y20729   2.189   2.226   4.796 -0.0286 -2.2520 -1.4205
  181SLPC  H18Z20730   2.128   2.398   4.797  1.0786  0.9710 -1.9878
  182SLPC     N20731   2.688   6.171   2.099 -0.6424 -0.5289 -0.5682
  182SLPC   C1320732   2.784   6.059   2.120  0.5969 -0.1952  0.8692
  182SLPC  H13A20733   2.829   6.068   2.218  2.1979  0.4627  0.0744
  182SLPC  H13B20734   2.736   5.963   2.103  1.1806 -0.5734  1.3112
  182SLPC  H13C20735   2.860   6.058   2.044 -1.6337 -0.5061 -1.4352
  182SLPC   C1420736   2.632   6.160   1.967 -0.0808  0.5373 -0.5398
  182SLPC  H14A20737   2.579   6.067   1.955  0.9673  0.1385 -2.4310
  182SLPC  H14B20738   2.575   6.243   1.929  1.3932  2.5058  1.3993
  182SLPC  H14C20739   2.709   6.156   1.890  0.7721 -0.6718  0.3589
  182SLPC   C1520740   2.757   6.308   2.110  0.4604 -0.1873  0.1875
  182SLPC  H15A20741   2.827   6.312   2.027  0.8884  1.4703  0.6164
  182SLPC  H15B20742   2.677   6.380   2.106  1.3272  0.8020  0.5747
  182SLPC  H15C20743   2.806   6.318   2.206  0.2113  1.1292  0.1835
  182SLPC   C1220744   2.583   6.162   2.212 -0.7901 -0.1011  0.6058
  182SLPC  H12A20745   2.544   6.063   2.193  0.9671 -1.2056  2.5333
  182SLPC  H12B20746   2.499   6.226   2.190  1.2481  1.8642 -1.8038
  182SLPC   C1120747   2.628   6.174   2.363  0.1651  0.0943  0.0093
  182SLPC  H11A20748   2.545   6.153   2.434 -0.8229  0.0792 -1.1360
  182SLPC  H11B20749   2.659   6.280   2.371  0.0913 -0.1030  3.5326
  182SLPC     P20750   2.880   6.165   2.452  0.3352  0.1304 -0.1138
  182SLPC   O1320751   2.955   6.053   2.515  0.0084  0.3737 -0.4571
  182SLPC   O1420752   2.955   6.246   2.344 -0.2742  0.5543  0.2681
  182SLPC   O1220753   2.747   6.097   2.396  0.0862  0.5446  0.2732
  182SLPC   O1120754   2.830   6.266   2.561  0.3860 -0.0276  0.6512
  182SLPC    C120755   2.761   6.203   2.672 -0.4293 -0.1835  0.1484
  182SLPC    HA20756   2.681   6.130   2.646 -2.6342  1.2551  2.7336
  182SLPC    HB20757   2.843   6.160   2.733  0.7781  0.8219 -0.7384
  182SLPC    C220758   2.690   6.304   2.764 -0.1494  1.0281  0.4791
  182SLPC    HS20759   2.767   6.382   2.780 -0.3934  1.4714 -0.4654
  182SLPC   O2120760   2.649   6.227   2.883 -0.5337  0.3472 -0.0513
  182SLPC   C2120761   2.679   6.286   3.001 -0.0518  0.4123  0.0876
  182SLPC   O2220762   2.746   6.384   3.009 -0.0290 -0.0939  0.1279
  182SLPC   C2220763   2.626   6.197   3.112  0.1358 -0.0598 -0.0899
  182SLPC   H2R20764   2.520   6.227   3.130  0.2031  0.3146 -0.3231
  182SLPC   H2S20765   2.635   6.095   3.072  1.9638  0.8216 -1.9883
  182SLPC    C320766   2.576   6.378   2.693 -0.6842 -0.5452 -0.1249
  182SLPC    HX20767   2.492   6.309   2.669 -2.2731  1.1831  0.3375
  182SLPC    HY20768   2.615   6.415   2.596 -1.7937 -0.9704 -0.7425
  182SLPC   O3120769   2.512   6.484   2.766  0.8220 -1.3976 -0.4099
  182SLPC   C3120770   2.578   6.602   2.764 -0.5439 -0.2940 -0.1078
  182SLPC   O3220771   2.694   6.622   2.725  0.0195  0.0806 -0.2547
  182SLPC   C3220772   2.495   6.705   2.847  0.0684 -0.2883  0.2449
  182SLPC   H2X20773   2.415   6.653   2.904  1.8971 -0.8030  2.3854
  182SLPC   H2Y20774   2.432   6.770   2.782  1.8084 -0.8915 -2.1060
  182SLPC   C2320775   2.694   6.224   3.245  0.5194  0.7184  0.8203
  182SLPC   H3R20776   2.696   6.334   3.262 -0.8976  0.6594  1.4687
  182SLPC   H3S20777   2.797   6.186   3.232  0.5102  0.2989  1.9394
  182SLPC   C2420778   2.617   6.168   3.361  0.0036 -0.4477 -0.1604
  182SLPC   H4R20779   2.593   6.060   3.354 -0.0635 -0.3662 -1.2713
  182SLPC   H4S20780   2.517   6.216   3.349  1.1035  1.4935 -2.0597
  182SLPC   C2520781   2.696   6.205   3.490  0.4423  0.6965  0.2808
  182SLPC   H5R20782   2.714   6.315   3.494 -1.2961  0.9989  0.1495
  182SLPC   H5S20783   2.800   6.167   3.491  0.1997  0.0350  1.8673
  182SLPC   C2620784   2.617   6.165   3.617 -0.1991 -0.7600  0.5734
  182SLPC   H6R20785   2.579   6.065   3.586  1.4439 -0.9034 -1.0677
  182SLPC   H6S20786   2.528   6.226   3.645  0.5413 -0.1715  1.6867
  182SLPC   C2720787   2.708   6.154   3.744 -1.3471  0.3214  0.6396
  182SLPC   H7R20788   2.782   6.071   3.745 -1.8694 -0.1376  1.9585
  182SLPC   H7S20789   2.643   6.125   3.829  0.6587 -1.2575  1.6660
  182SLPC   C2820790   2.784   6.287   3.768  0.2588  0.2901  0.3731
  182SLPC   H8R20791   2.836   6.329   3.679 -0.8126 -0.6697 -0.7230
  182SLPC   H8S20792   2.872   6.259   3.830 -0.2122  0.3022  1.0462
  182SLPC   C2920793   2.705   6.402   3.819 -0.0462 -0.2612 -0.0622
  182SLPC   H9R20794   2.606   6.415   3.772  0.0793  0.3708 -0.1518
  182SLPC  C21020795   2.752   6.488   3.912 -0.1466 -0.1979  0.5614
  182SLPC  H10R20796   2.686   6.571   3.941  0.8732  1.1359 -0.8041
  182SLPC  C21120797   2.897   6.490   3.967  0.1301  0.6509 -0.5542
  182SLPC  H11R20798   2.973   6.439   3.904  0.3384  2.7819 -2.0701
  182SLPC  H11S20799   2.891   6.442   4.067 -2.9292  1.7385 -0.1744
  182SLPC  C21220800   2.958   6.629   3.984 -0.3115  0.1255  0.5529
  182SLPC  H12R20801   2.913   6.711   3.928  1.3939  1.0090  0.4362
  182SLPC  C21320802   3.068   6.651   4.062 -0.2731  0.8048  0.4421
  182SLPC  H13R20803   3.109   6.753   4.068  1.5555  0.0072  2.3939
  182SLPC  C21420804   3.145   6.554   4.152  0.0731  0.2313 -0.4069
  182SLPC  H14R20805   3.255   6.552   4.136 -0.3076 -5.6295 -3.7185
  182SLPC  H14S20806   3.119   6.449   4.127  0.6884 -0.0537  0.1344
  182SLPC  C21520807   3.120   6.569   4.307 -0.5249 -0.6444 -0.2763
  182SLPC  H15R20808   3.012   6.562   4.329 -0.3333 -1.5145  0.4102
  182SLPC  H15S20809   3.136   6.676   4.336 -0.0301 -0.2546 -1.9641
  182SLPC  C21620810   3.205   6.476   4.398 -0.5015 -1.1395 -0.1103
  182SLPC  H16R20811   3.312   6.476   4.366  0.0380  1.4072  1.5159
  182SLPC  H16S20812   3.164   6.373   4.388 -0.0962 -1.4521  1.3414
  182SLPC  C21720813   3.202   6.519   4.544 -0.1807 -0.7495  0.2172
  182SLPC  H17R20814   3.278   6.598   4.559 -0.4228 -0.5675  0.4830
  182SLPC  H17S20815   3.241   6.432   4.601  0.0788 -0.4677  0.4694
  182SLPC  C21820816   3.070   6.563   4.607  0.0027 -0.3073 -0.4794
  182SLPC  H18R20817   3.089   6.572   4.716 -2.3672 -2.4464  0.1918
  182SLPC  H18S20818   2.999   6.481   4.580  0.9232 -0.7924 -1.4369
  182SLPC  H18T20819   3.022   6.655   4.567  0.5820  0.8185  1.3719
  182SLPC   C3320820   2.582   6.811   2.929 -0.5162  0.0407  0.5773
  182SLPC   H3X20821   2.510   6.895   2.944  0.3850  1.1622 -1.2201
  182SLPC   H3Y20822   2.660   6.858   2.866 -1.4875  1.7238  0.5877
  182SLPC   C3420823   2.628   6.746   3.059  0.2052 -0.4735  0.9437
  182SLPC   H4X20824   2.715   6.804   3.098 -0.0820  0.3114  0.4311
  182SLPC   H4Y20825   2.664   6.647   3.023  1.7224  1.2651 -2.5297
  182SLPC   C3520826   2.532   6.731   3.179  0.3246  0.2705 -0.2670
  182SLPC   H5X20827   2.428   6.762   3.153 -0.3170  1.9287  3.8350
  182SLPC   H5Y20828   2.568   6.796   3.261  2.0070  0.3942 -1.0932
  182SLPC   C3620829   2.516   6.593   3.234  0.3236  0.0069  0.0695
  182SLPC   H6X20830   2.611   6.551   3.272 -0.0522 -0.8626  0.0864
  182SLPC   H6Y20831   2.474   6.532   3.151  0.3231 -0.8575  0.6938
  182SLPC   C3720832   2.422   6.589   3.355 -0.0473  0.5254  0.6814
  182SLPC   H7X20833   2.388   6.484   3.371 -2.1032  1.1348  0.4752
  182SLPC   H7Y20834   2.336   6.655   3.332 -0.8967 -0.1805  1.7444
  182SLPC   C3820835   2.480   6.634   3.492 -0.0625  0.4810 -0.0867
  182SLPC   H8X20836   2.500   6.742   3.473  0.5234  0.2306 -0.9160
  182SLPC   H8Y20837   2.573   6.579   3.514  1.2524  1.4718 -2.9418
  182SLPC   C3920838   2.364   6.604   3.597 -0.2603 -0.2875  0.0410
  182SLPC   H9X20839   2.369   6.495   3.618  1.0240 -0.4328 -0.9448
  182SLPC   H9Y20840   2.262   6.623   3.557  0.3253 -1.0814 -1.8789
  182SLPC  C31020841   2.381   6.680   3.738  0.3508 -0.3435  0.2012
  182SLPC  H10X20842   2.370   6.789   3.717 -0.1576 -0.5681 -0.7586
  182SLPC  H10Y20843   2.487   6.670   3.766  0.5708  1.5980  0.1549
  182SLPC  C31120844   2.284   6.633   3.843 -0.8176 -0.1963  0.0379
  182SLPC  H11X20845   2.186   6.610   3.796 -1.7835  1.2133  1.3078
  182SLPC  H11Y20846   2.263   6.720   3.909 -0.5280  0.3905 -0.6372
  182SLPC  C31220847   2.331   6.511   3.911 -0.7388  0.1605 -0.5236
  182SLPC  H12X20848   2.431   6.514   3.958  0.1114 -0.8969 -2.2105
  182SLPC  H12Y20849   2.333   6.424   3.841  0.1234  0.3770 -0.7690
  182SLPC  C31320850   2.235   6.475   4.032  0.2660  0.0383 -0.0157
  182SLPC  H13X20851   2.147   6.423   3.989  0.9214 -1.0976  0.0101
  182SLPC  H13Y20852   2.188   6.567   4.073  0.4698  0.1994 -0.1434
  182SLPC  C31420853   2.294   6.392   4.147  0.2889 -0.8860 -0.5428
  182SLPC  H14X20854   2.219   6.357   4.221  0.3716  1.6508  0.7865
  182SLPC  H14Y20855   2.368   6.459   4.195 -1.1098  0.3205 -0.0319
  182SLPC  C31520856   2.362   6.259   4.098  0.4753  0.6514 -0.1394
  182SLPC  H15X20857   2.429   6.227   4.181  0.6641  2.3111  0.3757
  182SLPC  H15Y20858   2.436   6.287   4.019 -1.5043  0.8005 -1.9884
  182SLPC  C31620859   2.273   6.156   4.032  0.0775 -0.0440 -0.2091
  182SLPC  H16X20860   2.335   6.079   3.983  1.7300  0.2948  1.3303
  182SLPC  H16Y20861   2.202   6.194   3.955 -0.9532 -1.5223 -0.0156
  182SLPC  C31720862   2.178   6.096   4.137  0.6584 -0.2674 -0.0981
  182SLPC  H17X20863   2.114   6.176   4.180 -0.1666 -0.4269 -0.9986
  182SLPC  H17Y20864   2.230   6.042   4.219 -1.3008 -0.1676  1.2616
  182SLPC  C31820865   2.074   6.001   4.068  0.4242  0.4904  0.9148
  182SLPC  H18X20866   2.018   6.045   3.983 -0.3538  0.4563  1.4023
  182SLPC  H18Y20867   2.003   5.964   4.145  2.5022  1.7867  3.5426
  182SLPC  H18Z20868   2.127   5.911   4.031 -0.5326 -0.2444  1.3086
  183SLPC     N20869   0.194   4.197   2.503 -0.5935 -0.4827  0.3143
  183SLPC   C1320870   0.144   4.248   2.376  0.9037 -0.1474 -0.1162
  183SLPC  H13A20871   0.070   4.183   2.332 -0.3248  0.6562  0.7527
  183SLPC  H13B20872   0.110   4.350   2.376  0.0840 -0.3884 -2.2156
  183SLPC  H13C20873   0.224   4.256   2.304  0.5149  3.0026 -0.2571
  183SLPC   C1420874   0.258   4.306   2.577 -0.5742 -0.2915  0.5174
  183SLPC  H14A20875   0.271   4.284   2.682 -1.3720  0.4902  0.7809
  183SLPC  H14B20876   0.354   4.332   2.535 -1.7308 -0.0133 -2.0435
  183SLPC  H14C20877   0.203   4.398   2.576 -0.0875  0.0285  2.0160
  183SLPC   C1520878   0.308   4.100   2.474 -0.3370 -0.0985 -0.7186
  183SLPC  H15A20879   0.362   4.068   2.562  0.9989 -0.1775 -1.5485
  183SLPC  H15B20880   0.272   4.023   2.407 -1.9585 -0.6709  0.7890
  183SLPC  H15C20881   0.385   4.149   2.414 -2.2212  0.7263 -2.5359
  183SLPC   C1220882   0.085   4.120   2.581 -0.0676  0.1643 -0.4214
  183SLPC  H12A20883   0.003   4.187   2.602 -0.5889 -0.0340 -1.6982
  183SLPC  H12B20884   0.132   4.091   2.673 -0.1210  0.7197 -0.2185
  183SLPC   C1120885   0.013   3.994   2.518  0.4325 -0.1686  0.6030
  183SLPC  H11A20886  -0.040   3.956   2.607  0.7512 -1.0386  0.4232
  183SLPC  H11B20887   0.097   3.926   2.494  1.8613  2.0071 -0.7674
  183SLPC     P20888  -0.208   4.029   2.390  0.0762  0.0505  0.2813
  183SLPC   O1320889  -0.236   4.111   2.274 -0.6477 -0.1431 -0.1012
  183SLPC   O1420890  -0.250   3.887   2.395  0.1451  0.2976  1.0725
  183SLPC   O1220891  -0.054   4.019   2.396  0.2057 -0.4660 -0.0317
  183SLPC   O1120892  -0.237   4.103   2.523  0.3958 -0.2232  0.0331
  183SLPC    C120893  -0.268   4.240   2.519  0.1685 -0.3723 -0.0412
  183SLPC    HA20894  -0.198   4.295   2.585 -2.6684  2.4672  0.7673
  183SLPC    HB20895  -0.269   4.291   2.420  0.8024 -1.1907 -0.4748
  183SLPC    C220896  -0.412   4.266   2.578  0.1681  0.4070  0.7304
  183SLPC    HS20897  -0.414   4.375   2.595  1.1443  0.6295 -0.5315
  183SLPC   O2120898  -0.430   4.196   2.705 -0.2691  0.5277 -0.8503
  183SLPC   C2120899  -0.347   4.229   2.802  0.0615  0.4077 -0.0239
  183SLPC   O2220900  -0.275   4.332   2.802  1.2192  0.3805 -0.0148
  183SLPC   C2220901  -0.368   4.134   2.923 -0.0455 -0.5223  0.4466
  183SLPC   H2R20902  -0.464   4.158   2.975  1.7603  1.5290  2.9401
  183SLPC   H2S20903  -0.381   4.034   2.877  2.9365 -1.0294  0.6027
  183SLPC    C320904  -0.521   4.225   2.469  0.1928  0.1439 -0.4233
  183SLPC    HX20905  -0.453   4.204   2.384  3.3668 -0.3721  2.1496
  183SLPC    HY20906  -0.587   4.310   2.440  0.2889 -0.4470 -2.4875
  183SLPC   O3120907  -0.588   4.103   2.490 -0.1641  0.1319  0.0210
  183SLPC   C3120908  -0.712   4.111   2.530 -0.2743 -0.4245  0.9215
  183SLPC   O3220909  -0.783   4.207   2.507  0.2606  0.4186 -0.0807
  183SLPC   C3220910  -0.761   3.979   2.582 -0.3344  0.4650  0.0422
  183SLPC   H2X20911  -0.682   3.949   2.655 -1.3821  0.5376  1.2370
  183SLPC   H2Y20912  -0.756   3.906   2.499 -0.6913  0.4199  0.0577
  183SLPC   C2320913  -0.253   4.147   3.034 -0.4496 -0.0826 -0.4484
  183SLPC   H3R20914  -0.216   4.252   3.040 -1.2959  0.1039  2.1959
  183SLPC   H3S20915  -0.185   4.061   3.016 -0.5733  0.0583 -1.6563
  183SLPC   C2420916  -0.301   4.125   3.175 -0.4386  0.2305 -0.6546
  183SLPC   H4R20917  -0.275   4.024   3.213 -0.5077  0.7245  0.7343
  183SLPC   H4S20918  -0.410   4.146   3.187 -0.8705 -1.9893 -0.5865
  183SLPC   C2520919  -0.237   4.218   3.276  0.2448  0.4083 -0.4790
  183SLPC   H5R20920  -0.256   4.325   3.251  2.0188  0.5315 -1.3852
  183SLPC   H5S20921  -0.127   4.219   3.262  0.4890  0.2374  1.3580
  183SLPC   C2620922  -0.275   4.189   3.420  0.3304  0.3740  0.1476
  183SLPC   H6R20923  -0.205   4.120   3.473  0.9611  2.8203  2.6079
  183SLPC   H6S20924  -0.373   4.137   3.414  0.9716 -1.0102  1.3972
  183SLPC   C2720925  -0.278   4.321   3.494  0.6333 -0.8684  0.8046
  183SLPC   H7R20926  -0.198   4.389   3.457 -0.6559  0.8506  1.0684
  183SLPC   H7S20927  -0.249   4.313   3.601 -0.1259  1.5245  1.2256
  183SLPC   C2820928  -0.416   4.380   3.497 -0.2001  0.2677 -0.6804
  183SLPC   H8R20929  -0.454   4.407   3.396 -0.2994  0.3659 -0.6171
  183SLPC   H8S20930  -0.402   4.476   3.552 -0.2035  0.2426 -0.6364
  183SLPC   C2920931  -0.519   4.290   3.568  0.5551  0.9718 -0.3793
  183SLPC   H9R20932  -0.572   4.223   3.499 -1.5274  1.9766  0.2183
  183SLPC  C21020933  -0.547   4.284   3.705 -0.6846  0.3244  0.2772
  183SLPC  H10R20934  -0.632   4.223   3.738 -0.1385 -1.4207 -1.4609
  183SLPC  C21120935  -0.474   4.364   3.813 -0.2054  0.8848  0.0162
  183SLPC  H11R20936  -0.377   4.310   3.811 -0.2409  0.8565 -1.4223
  183SLPC  H11S20937  -0.524   4.364   3.912  0.0369 -1.2655  0.1737
  183SLPC  C21220938  -0.452   4.512   3.794  0.8554  0.0137 -0.1133
  183SLPC  H12R20939  -0.346   4.534   3.771  0.5902  1.0081 -0.4314
  183SLPC  C21320940  -0.534   4.616   3.804 -0.2471  0.1121  0.5151
  183SLPC  H13R20941  -0.499   4.719   3.790  0.0525  0.3282  2.6492
  183SLPC  C21420942  -0.683   4.624   3.835  0.0734 -0.5961 -1.0646
  183SLPC  H14R20943  -0.700   4.723   3.882 -1.6261 -2.2149  1.8003
  183SLPC  H14S20944  -0.711   4.552   3.913  1.4663  1.2047  1.1634
  183SLPC  C21520945  -0.765   4.609   3.715 -0.0280  0.6040 -0.4076
  183SLPC  H15R20946  -0.794   4.503   3.730  0.5406  0.6106  0.8134
  183SLPC  H15S20947  -0.716   4.619   3.617  0.9112  1.1908  0.1180
  183SLPC  C21620948  -0.894   4.690   3.728  0.3676  0.0115 -0.6050
  183SLPC  H16R20949  -0.971   4.668   3.651  1.8351 -1.2409 -1.7672
  183SLPC  H16S20950  -0.875   4.800   3.726  1.3187 -0.0790  2.0431
  183SLPC  C21720951  -0.959   4.667   3.864  0.3299 -0.9062  0.6624
  183SLPC  H17R20952  -0.886   4.673   3.947  1.3307  0.7321 -0.3001
  183SLPC  H17S20953  -1.007   4.567   3.864 -1.6418  0.0037  0.3184
  183SLPC  C21820954  -1.058   4.776   3.897  0.0973 -0.1811 -0.5168
  183SLPC  H18R20955  -1.008   4.873   3.920 -1.4255 -0.0193  2.3273
  183SLPC  H18S20956  -1.120   4.752   3.986  0.8706  2.0839  0.7014
  183SLPC  H18T20957  -1.132   4.790   3.816  0.5992  1.3583 -0.7299
  183SLPC   C3320958  -0.891   3.976   2.673 -0.5638 -0.1520 -0.0938
  183SLPC   H3X20959  -0.944   3.880   2.652 -0.8548 -0.8555  3.5626
  183SLPC   H3Y20960  -0.971   4.048   2.645 -1.6822 -0.7531  1.5016
  183SLPC   C3420961  -0.855   3.977   2.823 -0.3163 -0.9928  1.1978
  183SLPC   H4X20962  -0.905   4.064   2.873 -0.4259 -0.5932  0.4003
  183SLPC   H4Y20963  -0.748   4.005   2.836 -0.1974  0.9335 -3.0608
  183SLPC   C3520964  -0.887   3.844   2.887 -0.5089 -0.5809  0.0913
  183SLPC   H5X20965  -0.824   3.765   2.841  1.4715  0.6359  0.6192
  183SLPC   H5Y20966  -0.992   3.814   2.867  0.2270 -1.6154 -2.3676
  183SLPC   C3620967  -0.853   3.832   3.041 -0.0054 -0.4456  0.1415
  183SLPC   H6X20968  -0.905   3.750   3.096 -1.4278  0.3483 -0.0184
  183SLPC   H6Y20969  -0.891   3.928   3.082 -0.5969 -0.8499  0.5486
  183SLPC   C3720970  -0.695   3.820   3.071  0.3127 -0.0094 -0.5331
  183SLPC   H7X20971  -0.635   3.868   2.991  0.3776 -3.1188 -2.4220
  183SLPC   H7Y20972  -0.684   3.710   3.076 -0.0447 -0.0287 -0.0497
  183SLPC   C3820973  -0.657   3.877   3.210  0.3039  0.4720  0.6318
  183SLPC   H8X20974  -0.690   3.983   3.213  1.3702  0.8869 -1.3145
  183SLPC   H8Y20975  -0.547   3.874   3.225  0.6220  0.6413 -1.5512
  183SLPC   C3920976  -0.715   3.789   3.318  0.0539 -1.3598 -0.0949
  183SLPC   H9X20977  -0.678   3.685   3.325  4.3857  0.0508 -0.5851
  183SLPC   H9Y20978  -0.824   3.774   3.328  0.5487 -2.8726  3.8840
  183SLPC  C31020979  -0.673   3.851   3.451  0.1023 -0.2678  0.5430
  183SLPC  H10X20980  -0.729   3.945   3.471 -0.2496 -0.0399 -1.4410
  183SLPC  H10Y20981  -0.565   3.877   3.448 -0.2608  1.5733  2.3015
  183SLPC  C31120982  -0.699   3.755   3.567  0.1169  0.5865 -0.0622
  183SLPC  H11X20983  -0.648   3.662   3.535 -1.0215  0.0925 -0.4326
  183SLPC  H11Y20984  -0.807   3.739   3.584  0.2545  0.5871  0.8531
  183SLPC  C31220985  -0.640   3.813   3.700 -0.7161 -0.6451 -0.0514
  183SLPC  H12X20986  -0.681   3.745   3.778 -2.0481  0.6630  0.4212
  183SLPC  H12Y20987  -0.704   3.904   3.708 -0.4969 -0.4923 -0.0373
  183SLPC  C31320988  -0.492   3.837   3.698 -0.0378  0.0553 -0.2843
  183SLPC  H13X20989  -0.441   3.864   3.793 -1.6005 -2.4134  1.3048
  183SLPC  H13Y20990  -0.472   3.917   3.624 -0.7850  1.1294  0.6549
  183SLPC  C31420991  -0.405   3.719   3.652 -0.3795  0.3238  0.4021
  183SLPC  H14X20992  -0.448   3.678   3.558  1.0406 -0.1408 -0.0514
  183SLPC  H14Y20993  -0.431   3.652   3.737 -2.2440  1.8793  1.0910
  183SLPC  C31520994  -0.254   3.739   3.651 -0.3512  0.1439 -0.2730
  183SLPC  H15X20995  -0.215   3.724   3.753 -0.1227 -1.9257 -0.6518
  183SLPC  H15Y20996  -0.227   3.843   3.621 -1.0970  0.3295 -0.3313
  183SLPC  C31620997  -0.168   3.648   3.562 -0.2843  0.0073 -0.7649
  183SLPC  H16X20998  -0.182   3.541   3.590  2.2787 -0.1327  0.0997
  183SLPC  H16Y20999  -0.063   3.677   3.580 -0.4256 -0.2861  0.5602
  183SLPC  C31721000  -0.183   3.662   3.408  0.2020  0.5389  0.9266
  183SLPC  H17X21001  -0.277   3.617   3.371 -0.9909  3.9876 -0.4844
  183SLPC  H17Y21002  -0.108   3.601   3.354 -0.6011  0.5133 -0.1793
  183SLPC  C31821003  -0.189   3.808   3.350 -0.3214 -0.4357 -0.6673
  183SLPC  H18X21004  -0.084   3.842   3.358  0.3925 -2.8260  0.5766
  183SLPC  H18Y21005  -0.246   3.866   3.426  2.5796  1.3099  0.2482
  183SLPC  H18Z21006  -0.232   3.813   3.248 -2.7363 -2.7168  0.1939
  184SLPC     N21007   6.947   5.559   2.539 -0.3167 -0.1148  0.2901
  184SLPC   C1321008   6.980   5.673   2.442 -0.8804 -0.1070 -0.1714
  184SLPC  H13A21009   6.905   5.750   2.454 -0.6475  0.1537 -0.3857
  184SLPC  H13B21010   7.078   5.710   2.467 -0.6849 -2.5486  3.0035
  184SLPC  H13C21011   6.977   5.643   2.338 -0.8872  0.9059 -0.4629
  184SLPC   C1421012   7.062   5.458   2.534  0.0802  0.2007 -1.0389
  184SLPC  H14A21013   7.067   5.391   2.619  0.1855 -0.8956 -1.8938
  184SLPC  H14B21014   7.059   5.400   2.443 -1.9116 -0.6689 -0.4589
  184SLPC  H14C21015   7.157   5.509   2.534  0.2308 -0.0752 -1.7447
  184SLPC   C1521016   6.825   5.479   2.501 -0.0376  0.4964 -0.7434
  184SLPC  H15A21017   6.825   5.457   2.395  1.6203  1.7415 -1.0323
  184SLPC  H15B21018   6.803   5.394   2.563  0.2433 -0.6022 -2.1241
  184SLPC  H15C21019   6.735   5.536   2.518 -0.7685 -0.7965 -0.2221
  184SLPC   C1221020   6.932   5.618   2.675 -0.4653  0.1632 -0.3097
  184SLPC  H12A21021   6.910   5.536   2.741 -0.0437 -0.6208 -1.1311
  184SLPC  H12B21022   6.852   5.690   2.674  2.0975  3.1416 -1.1061
  184SLPC   C1121023   7.053   5.712   2.725  0.6429 -0.0147 -0.4690
  184SLPC  H11A21024   7.152   5.662   2.715  0.7163  0.7636 -4.4156
  184SLPC  H11B21025   7.025   5.740   2.829  0.1116 -0.1992 -0.5624
  184SLPC     P21026   6.967   5.943   2.647 -0.2062  0.1040  0.0882
  184SLPC   O1321027   7.018   6.051   2.734  0.3651 -0.1387  0.0599
  184SLPC   O1421028   6.923   5.976   2.506 -0.1884  0.2278  0.5833
  184SLPC   O1221029   7.072   5.829   2.642 -0.0567  0.5157 -0.3929
  184SLPC   O1121030   6.845   5.881   2.731 -0.4658  0.1861 -0.0269
  184SLPC    C121031   6.705   5.889   2.682 -0.6399  0.0130  1.0820
  184SLPC    HA21032   6.695   5.996   2.653 -0.6924 -0.5315 -1.0211
  184SLPC    HB21033   6.692   5.837   2.584  2.3466  0.6936  0.2649
  184SLPC    C221034   6.594   5.853   2.780  0.6184  0.2803  1.0950
  184SLPC    HS21035   6.519   5.935   2.770  1.6115  0.9942 -0.9479
  184SLPC   O2121036   6.653   5.830   2.911  0.1670 -0.4005 -0.3033
  184SLPC   C2121037   6.689   5.935   2.974 -0.0449 -0.0786 -0.3771
  184SLPC   O2221038   6.675   6.053   2.942  0.4220  0.0205  0.0735
  184SLPC   C2221039   6.777   5.890   3.098  0.5361 -0.0540 -0.0053
  184SLPC   H2R21040   6.703   5.890   3.181  1.4742 -0.0505  0.8379
  184SLPC   H2S21041   6.825   5.790   3.089  0.0310 -0.2942 -0.0294
  184SLPC    C321042   6.520   5.726   2.733 -0.0813 -0.7041 -0.0352
  184SLPC    HX21043   6.502   5.741   2.624  0.5293 -2.9414 -0.4592
  184SLPC    HY21044   6.421   5.726   2.783  0.4516 -0.5997  1.0220
  184SLPC   O3121045   6.591   5.602   2.761 -0.3771  0.5801  0.2437
  184SLPC   C3121046   6.551   5.535   2.871  0.3433 -0.5291 -0.1121
  184SLPC   O3221047   6.465   5.578   2.948 -0.5821  0.1400 -0.1410
  184SLPC   C3221048   6.611   5.397   2.875  0.3500 -0.5059 -0.4588
  184SLPC   H2X21049   6.694   5.385   2.802  0.3277  0.1251 -0.5924
  184SLPC   H2Y21050   6.532   5.322   2.853 -1.6209  1.2563  0.3935
  184SLPC   C2321051   6.887   5.993   3.136  0.1148  0.3536  0.0981
  184SLPC   H3R21052   6.944   6.011   3.043 -1.1719 -0.2214 -0.8160
  184SLPC   H3S21053   6.961   5.947   3.206  1.1977  0.0253 -1.2537
  184SLPC   C2421054   6.834   6.118   3.206 -0.1782 -1.1681 -0.0620
  184SLPC   H4R21055   6.805   6.188   3.125  1.8595 -0.2797 -0.0505
  184SLPC   H4S21056   6.921   6.161   3.258  0.6259 -1.0119 -1.5103
  184SLPC   C2521057   6.717   6.119   3.310  0.3070  0.7222 -0.0754
  184SLPC   H5R21058   6.675   6.016   3.319  0.3437  0.7229  0.1121
  184SLPC   H5S21059   6.634   6.181   3.271  0.5518  1.8276  1.1352
  184SLPC   C2621060   6.756   6.175   3.452  0.9267 -0.3131  0.7373
  184SLPC   H6R21061   6.804   6.272   3.426 -1.4242  0.6721 -0.0167
  184SLPC   H6S21062   6.845   6.122   3.493  0.7653 -1.9273 -0.9156
  184SLPC   C2721063   6.642   6.186   3.554  0.2015 -0.3709 -0.6643
  184SLPC   H7R21064   6.588   6.089   3.553  0.7929 -0.7130  0.1517
  184SLPC   H7S21065   6.570   6.263   3.518  1.5327  1.2580  0.1206
  184SLPC   C2821066   6.679   6.222   3.698 -0.6266 -0.3706  0.1118
  184SLPC   H8R21067   6.746   6.138   3.728  0.8676 -0.1184 -2.3300
  184SLPC   H8S21068   6.586   6.235   3.757 -0.0127  1.4922  0.6878
  184SLPC   C2921069   6.773   6.337   3.687 -0.4245 -0.2310 -0.5796
  184SLPC   H9R21070   6.860   6.326   3.621  1.2165 -0.4186  1.5416
  184SLPC  C21021071   6.752   6.454   3.755 -0.2061 -0.1140  1.2719
  184SLPC  H10R21072   6.832   6.529   3.757  2.0522 -2.3757 -0.6758
  184SLPC  C21121073   6.642   6.494   3.847  0.1344  0.2377  0.7327
  184SLPC  H11R21074   6.552   6.431   3.827 -0.2016  0.3094  2.0115
  184SLPC  H11S21075   6.610   6.599   3.832 -2.9384 -0.9496 -1.5864
  184SLPC  C21221076   6.679   6.471   3.989  0.1679 -0.6336 -0.8427
  184SLPC  H12R21077   6.738   6.379   4.003 -0.2901 -1.2067 -2.5209
  184SLPC  C21321078   6.637   6.535   4.102 -0.2573  0.1893  0.2337
  184SLPC  H13R21079   6.679   6.508   4.200  0.4855 -2.0358 -0.6617
  184SLPC  C21421080   6.536   6.646   4.099  0.5689  0.9231 -0.3617
  184SLPC  H14R21081   6.489   6.652   4.199  1.9364 -0.0756  0.3599
  184SLPC  H14S21082   6.454   6.632   4.025  0.6891  1.4810 -0.6025
  184SLPC  C21521083   6.595   6.778   4.063 -0.1601 -0.4367  0.2644
  184SLPC  H15R21084   6.518   6.854   4.090 -1.1865 -1.6207  0.7745
  184SLPC  H15S21085   6.606   6.769   3.953  3.9368  1.8695  0.4174
  184SLPC  C21621086   6.727   6.813   4.132 -0.5020  0.2945  0.1914
  184SLPC  H16R21087   6.782   6.904   4.100 -0.4485  0.8586  1.8033
  184SLPC  H16S21088   6.805   6.739   4.108  0.8022  1.5999  0.3111
  184SLPC  C21721089   6.720   6.812   4.282 -0.1575  0.5233 -0.3207
  184SLPC  H17R21090   6.662   6.725   4.320  1.0473  0.5896  1.7990
  184SLPC  H17S21091   6.683   6.911   4.316  1.3017  2.5119 -4.2345
  184SLPC  C21821092   6.854   6.789   4.351 -0.4206  0.2167  0.5084
  184SLPC  H18R21093   6.845   6.806   4.460 -0.4573  1.0638  0.3808
  184SLPC  H18S21094   6.938   6.849   4.308 -1.9207  2.2441  0.3013
  184SLPC  H18T21095   6.885   6.683   4.340 -0.6462  0.3591 -1.8326
  184SLPC   C3321096   6.675   5.357   3.015  0.2944  0.3850  0.3825
  184SLPC   H3X21097   6.719   5.255   3.010  1.7706  1.0716 -0.9393
  184SLPC   H3Y21098   6.595   5.362   3.092 -0.3330  0.2919 -0.2628
  184SLPC   C3421099   6.780   5.457   3.064  1.2061 -0.4367 -0.5042
  184SLPC   H4X21100   6.735   5.554   3.092 -0.3412 -1.7002  1.5110
  184SLPC   H4Y21101   6.857   5.482   2.988  2.8262 -3.7156 -0.0337
  184SLPC   C3521102   6.853   5.404   3.192  0.1552 -0.3273  0.8034
  184SLPC   H5X21103   6.901   5.308   3.163 -0.6150 -1.3288  2.7637
  184SLPC   H5Y21104   6.779   5.366   3.265 -0.7918 -0.8177 -0.3845
  184SLPC   C3621105   6.958   5.511   3.250  0.0283 -0.4193  0.1124
  184SLPC   H6X21106   6.967   5.476   3.355 -1.6282  0.9032  0.7083
  184SLPC   H6Y21107   6.900   5.606   3.247  2.8966  1.4082  0.0435
  184SLPC   C3721108   7.085   5.535   3.160  0.5172 -0.8282  0.5475
  184SLPC   H7X21109   7.056   5.599   3.075 -0.5734  0.5609  1.9290
  184SLPC   H7Y21110   7.121   5.438   3.121 -1.8739 -0.9901 -1.3794
  184SLPC   C3821111   7.202   5.592   3.248 -0.4382 -0.3059  0.0494
  184SLPC   H8X21112   7.287   5.593   3.177  0.8598 -1.1566  1.5367
  184SLPC   H8Y21113   7.222   5.535   3.341 -0.3941 -1.3417 -0.5903
  184SLPC   C3921114   7.168   5.732   3.298  0.4481 -0.5209 -0.2367
  184SLPC   H9X21115   7.071   5.726   3.351  0.4953  0.2353 -0.0485
  184SLPC   H9Y21116   7.142   5.784   3.203  0.8472  2.5097  1.2404
  184SLPC  C31021117   7.285   5.787   3.384  1.1633  0.2915 -0.5642
  184SLPC  H10X21118   7.378   5.815   3.329 -0.1337  1.8804 -2.0067
  184SLPC  H10Y21119   7.315   5.717   3.465  1.5568  2.4850  1.2145
  184SLPC  C31121120   7.252   5.934   3.449  0.7029  0.6690  0.0113
  184SLPC  H11X21121   7.226   6.007   3.369  0.8663  2.8897  1.9414
  184SLPC  H11Y21122   7.343   5.964   3.505  2.3971 -1.4648 -1.5012
  184SLPC  C31221123   7.124   5.922   3.532 -0.3036 -0.1063  0.4644
  184SLPC  H12X21124   7.035   5.907   3.466  1.0593  1.2673 -1.7532
  184SLPC  H12Y21125   7.109   6.019   3.583 -0.1135  1.6368 -2.6358
  184SLPC  C31321126   7.135   5.813   3.639  0.4769  0.5118  0.2650
  184SLPC  H13X21127   7.226   5.839   3.697  0.3727  0.8664  0.2708
  184SLPC  H13Y21128   7.146   5.716   3.585 -0.1666 -1.3948  3.4551
  184SLPC  C31421129   7.014   5.795   3.733  0.1707 -1.1142 -0.3276
  184SLPC  H14X21130   6.924   5.756   3.681  0.1404 -0.5166 -0.7342
  184SLPC  H14Y21131   6.982   5.890   3.781 -1.4138 -0.8421 -1.8596
  184SLPC  C31521132   7.043   5.704   3.851  0.6955  0.5737 -0.5603
  184SLPC  H15X21133   7.062   5.604   3.807 -0.0786 -0.5847  1.6554
  184SLPC  H15Y21134   6.951   5.682   3.908  1.4283 -0.1103  0.3682
  184SLPC  C31621135   7.158   5.748   3.941 -0.5391  0.2239  1.4242
  184SLPC  H16X21136   7.142   5.856   3.961  0.7259  0.5587  0.6999
  184SLPC  H16Y21137   7.249   5.745   3.878  0.5172 -1.3170  2.9700
  184SLPC  C31721138   7.175   5.671   4.066  0.2496  0.4952 -0.1845
  184SLPC  H17X21139   7.083   5.667   4.128  0.6265 -0.2303  0.3485
  184SLPC  H17Y21140   7.251   5.720   4.130 -0.6110 -2.0499  2.9220
  184SLPC  C31821141   7.220   5.521   4.055  0.4052  0.0123 -0.8663
  184SLPC  H18X21142   7.168   5.467   3.972 -0.6845 -1.1200  0.5255
  184SLPC  H18Y21143   7.207   5.472   4.154 -0.3124  2.3715  0.2403
  184SLPC  H18Z21144   7.328   5.524   4.029  0.1460  0.6513 -1.8677
  185POPC     N21145   5.326   5.885   6.279 -0.1856  0.2206 -0.1076
  185POPC   C1221146   5.347   5.806   6.156  0.1483  0.6659  0.4698
  185POPC  H12A21147   5.410   5.721   6.178 -0.4146  0.6606  2.0978
  185POPC  H12B21148   5.411   5.868   6.094 -0.4556 -0.0889 -0.9200
  185POPC   C1321149   5.262   5.803   6.391 -0.1337  0.4890  0.5654
  185POPC  H13A21150   5.283   5.842   6.489  0.2671  0.5382  0.4577
  185POPC  H13B21151   5.157   5.784   6.371 -0.1131  3.2214 -2.5267
  185POPC  H13C21152   5.309   5.707   6.376  0.9980  1.4302 -2.1829
  185POPC   C1421153   5.466   5.932   6.327 -0.4149  0.0025  0.2496
  185POPC  H14A21154   5.458   6.030   6.370  2.6004 -0.6904  2.5866
  185POPC  H14B21155   5.506   5.872   6.408  1.0858  0.8142  0.1359
  185POPC  H14C21156   5.540   5.935   6.248  1.2479  0.7399  1.7925
  185POPC   C1521157   5.243   6.010   6.254 -0.1733 -0.1585 -0.2880
  185POPC  H15A21158   5.140   5.986   6.232  0.2046 -0.1991 -2.0943
  185POPC  H15B21159   5.283   6.060   6.167  0.3051  0.1993  0.1364
  185POPC  H15C21160   5.239   6.078   6.338 -0.3966 -1.7503  1.0062
  185POPC   C1121161   5.226   5.763   6.073 -0.0584  0.0526  0.5281
  185POPC  H11A21162   5.265   5.707   5.986  0.0370  0.2621  0.4371
  185POPC  H11B21163   5.181   5.861   6.046  1.9228  0.8833  0.1679
  185POPC     P21164   4.991   5.665   6.110  0.2491 -0.1746  0.1778
  185POPC   O1321165   4.929   5.793   6.133  0.3955  0.6039 -0.1785
  185POPC   O1421166   4.924   5.554   6.184 -0.2732 -0.2629 -0.0718
  185POPC   O1221167   5.141   5.674   6.148 -0.0002 -0.0764 -0.1918
  185POPC   O1121168   5.003   5.624   5.961 -0.4619  0.1670  0.0972
  185POPC    C121169   5.070   5.502   5.907 -0.0425  0.3114 -0.2724
  185POPC    HA21170   5.081   5.430   5.992 -0.1692  1.9244  1.1477
  185POPC    HB21171   5.174   5.526   5.875  0.8053 -0.0050  2.1001
  185POPC    C221172   4.998   5.420   5.796 -0.1089 -0.4154  0.3178
  185POPC    HS21173   5.062   5.332   5.773 -1.4380 -1.3660  0.2312
  185POPC   O2121174   4.996   5.503   5.682  0.4940 -0.3266  0.0165
  185POPC   C2121175   4.949   5.443   5.574 -0.2618 -0.7745  0.1615
  185POPC   O2221176   4.934   5.324   5.559 -0.5583 -0.2147  0.2692
  185POPC   C2221177   4.922   5.546   5.468 -0.0665 -0.5635  0.1636
  185POPC   H2R21178   4.946   5.643   5.516  1.7199 -2.0555  2.4003
  185POPC   H2S21179   4.815   5.559   5.440 -0.4163 -3.0016  0.2453
  185POPC    C321180   4.857   5.373   5.840 -0.0176 -0.0828  0.4665
  185POPC    HX21181   4.865   5.327   5.941  0.3454 -2.4320 -0.6131
  185POPC    HY21182   4.831   5.295   5.765  1.6148 -0.9796  0.8114
  185POPC   O3121183   4.766   5.484   5.833 -0.3836 -0.2197  0.0930
  185POPC   C3121184   4.697   5.510   5.936  0.3776 -0.4228  0.2794
  185POPC   O3221185   4.676   5.439   6.033 -0.4333  0.0613  0.5135
  185POPC   C3221186   4.639   5.654   5.916  0.0629 -0.3936 -0.2672
  185POPC   H2X21187   4.659   5.706   6.012  0.5947 -2.4503  0.7709
  185POPC   H2Y21188   4.530   5.633   5.906 -0.1362  0.0111  0.9194
  185POPC   C2321189   5.000   5.519   5.340 -0.3631 -0.6548  0.4619
  185POPC   H3R21190   4.928   5.454   5.286 -1.5677  1.1987 -0.2041
  185POPC   H3S21191   5.093   5.459   5.348  1.0247  1.7061  2.7372
  185POPC   C2421192   5.047   5.638   5.261 -0.1972  0.1663  0.0068
  185POPC   H4R21193   5.073   5.719   5.334 -1.6346 -0.1738  0.9139
  185POPC   H4S21194   4.968   5.680   5.196 -0.1323 -0.9124 -0.7733
  185POPC   C2521195   5.162   5.607   5.166 -0.0903  0.8296  0.0051
  185POPC   H5R21196   5.135   5.520   5.102  1.3703  0.6392 -0.3664
  185POPC   H5S21197   5.246   5.569   5.229 -0.4583  0.7041  0.4246
  185POPC   C2621198   5.209   5.727   5.086 -0.4363  0.1344 -0.5268
  185POPC   H6R21199   5.237   5.816   5.146  1.0888 -0.0445 -0.9474
  185POPC   H6S21200   5.122   5.749   5.020  1.1153  0.0769 -2.6483
  185POPC   C2721201   5.331   5.695   4.996  0.4419 -0.3289  0.1956
  185POPC   H7R21202   5.316   5.597   4.945 -1.3043 -0.1173  0.2821
  185POPC   H7S21203   5.429   5.675   5.045  1.2101 -1.5516 -1.7504
  185POPC   C2821204   5.353   5.809   4.891  0.0021  0.0398  0.4708
  185POPC   H8R21205   5.368   5.908   4.937  4.2474  1.1246 -2.8804
  185POPC   H8S21206   5.257   5.813   4.835  0.6227  2.8771 -0.4855
  185POPC   C2921207   5.465   5.777   4.791 -0.3516 -0.1183  0.0295
  185POPC   H9121208   5.552   5.723   4.831 -1.6181  0.2944  3.5608
  185POPC  C21021209   5.476   5.810   4.661 -0.5296 -0.6291  0.5490
  185POPC  H10121210   5.568   5.772   4.612 -0.2013 -0.0112  0.6846
  185POPC  C21121211   5.379   5.886   4.573 -0.2498 -0.5298  0.3708
  185POPC  H11R21212   5.281   5.868   4.623  0.3619 -0.2291  1.7121
  185POPC  H11S21213   5.394   5.851   4.469  2.0762 -0.7956  0.7646
  185POPC  C21221214   5.397   6.036   4.563 -0.4832  0.2872 -0.3677
  185POPC  H12R21215   5.409   6.065   4.670 -1.8725 -2.9647  0.7544
  185POPC  H12S21216   5.302   6.073   4.519 -1.0755 -0.8570 -0.0793
  185POPC  C21321217   5.522   6.078   4.475 -0.1272  0.1368 -0.1883
  185POPC  H13R21218   5.528   6.009   4.388 -1.5539  0.6152 -0.6800
  185POPC  H13S21219   5.612   6.066   4.538  0.5186  4.0748 -0.2418
  185POPC  C21421220   5.523   6.211   4.412 -0.0174 -0.0103 -0.6000
  185POPC  H14R21221   5.619   6.257   4.384 -0.6477  0.3352 -2.2405
  185POPC  H14S21222   5.485   6.283   4.488  2.8093  1.2982 -0.3770
  185POPC  C21521223   5.424   6.220   4.286  0.5055 -0.2642 -0.2426
  185POPC  H15R21224   5.327   6.177   4.320  0.4469  0.4296  0.4730
  185POPC  H15S21225   5.457   6.153   4.204 -1.2047 -0.1476 -1.0460
  185POPC  C21621226   5.425   6.361   4.238 -0.6722 -1.2978  0.2302
  185POPC  H16R21227   5.533   6.383   4.224 -1.4274  1.3520 -2.1138
  185POPC  H16S21228   5.378   6.428   4.313 -1.2347  0.8949 -2.0091
  185POPC  C21721229   5.366   6.390   4.095 -0.8126 -0.3499 -1.4011
  185POPC  H17R21230   5.418   6.344   4.008 -0.5516  0.8732 -1.9044
  185POPC  H17S21231   5.365   6.501   4.098  1.8551 -0.3401 -0.1672
  185POPC  C21821232   5.223   6.331   4.086 -0.0135  0.0652  0.0197
  185POPC  H18R21233   5.224   6.222   4.063  1.5131 -0.0037  0.3459
  185POPC  H18S21234   5.182   6.382   3.996  3.2308 -0.0410 -1.6012
  185POPC  H18T21235   5.174   6.341   4.185 -0.3400 -1.5642  0.0444
  185POPC   C3321236   4.700   5.728   5.800  0.4468 -0.0391 -1.1585
  185POPC   H3X21237   4.688   5.671   5.705 -1.4689  1.0265 -1.5912
  185POPC   H3Y21238   4.805   5.748   5.833 -0.0364  2.0926 -0.8382
  185POPC   C3421239   4.636   5.867   5.765 -0.4253 -0.1212 -0.1755
  185POPC   H4X21240   4.619   5.926   5.858 -0.1714  1.8533 -1.3583
  185POPC   H4Y21241   4.531   5.847   5.735  0.1868 -1.2811 -1.5898
  185POPC   C3521242   4.705   5.940   5.648 -0.0695  0.7548 -0.4954
  185POPC   H5X21243   4.813   5.916   5.649 -0.3084 -0.3107  1.4890
  185POPC   H5Y21244   4.706   6.050   5.662  1.8082  1.0059 -2.3182
  185POPC   C3621245   4.647   5.923   5.510  1.1875 -0.0991  0.3187
  185POPC   H6X21246   4.536   5.921   5.515  1.2644 -2.7946  1.9856
  185POPC   H6Y21247   4.681   5.825   5.471 -0.5289  0.4114 -2.6562
  185POPC   C3721248   4.691   6.035   5.404  0.3810 -0.7625  0.0458
  185POPC   H7X21249   4.668   6.134   5.448  2.2290 -0.2867 -0.0374
  185POPC   H7Y21250   4.637   6.015   5.309 -1.1226 -2.0713  1.1402
  185POPC   C3821251   4.838   6.027   5.374 -0.3164  0.2454 -0.4274
  185POPC   H8X21252   4.859   5.919   5.368  1.4251  0.3649  2.6115
  185POPC   H8Y21253   4.892   6.052   5.467 -1.7165  2.7396 -0.2236
  185POPC   C3921254   4.881   6.100   5.250  0.4413 -0.2337  0.2175
  185POPC   H9X21255   4.865   6.209   5.257  0.5272 -0.2177  0.1582
  185POPC   H9Y21256   4.818   6.059   5.169  1.6922  0.2627 -1.0194
  185POPC  C31021257   5.028   6.069   5.223  0.1661  0.0735  0.0430
  185POPC  H10X21258   5.037   5.959   5.236  2.9073  0.4726  1.8082
  185POPC  H10Y21259   5.080   6.118   5.308 -1.9434  0.5624  1.0855
  185POPC  C31121260   5.084   6.104   5.083 -0.7399 -0.5163 -0.1344
  185POPC  H11X21261   5.193   6.083   5.083 -0.9031 -1.4053  1.5515
  185POPC  H11Y21262   5.060   6.211   5.065 -0.4311 -0.5681 -0.8991
  185POPC  C31221263   5.009   6.031   4.968  0.4788  0.2100  0.0267
  185POPC  H12X21264   4.904   6.067   4.973  0.2697 -0.1682 -1.3620
  185POPC  H12Y21265   5.017   5.921   4.984 -2.1757 -0.2596 -1.4573
  185POPC  C31321266   5.064   6.060   4.828 -0.6477  0.1959 -0.4402
  185POPC  H13X21267   5.000   6.000   4.760  0.3119 -0.6042 -0.6549
  185POPC  H13Y21268   5.165   6.016   4.814 -0.3360  0.3641  1.1654
  185POPC  C31421269   5.042   6.212   4.787 -0.1849  0.6695  0.2173
  185POPC  H14X21270   5.099   6.275   4.859  1.6043  1.1446 -1.5714
  185POPC  H14Y21271   4.937   6.249   4.782 -1.0422 -1.7331 -0.1794
  185POPC  C31521272   5.104   6.261   4.651 -0.5034  0.1978 -0.1416
  185POPC  H15X21273   5.052   6.198   4.576  3.8415 -1.7389 -1.7268
  185POPC  H15Y21274   5.214   6.243   4.647 -0.7810 -1.5524 -0.4165
  185POPC  C31621275   5.103   6.413   4.620 -0.2551 -0.3981 -0.2110
  185POPC  H16X21276   5.141   6.472   4.705 -0.6388 -0.9205  0.3256
  185POPC  H16Y21277   5.001   6.455   4.603 -0.5677 -0.4222  1.5187
  185POPC  H16Z21278   5.166   6.439   4.532  1.1841 -1.1672  0.5801
  186POPC     N21279   2.242   0.897   6.319 -0.0134 -0.1181  0.1127
  186POPC   C1221280   2.149   0.789   6.268  0.5929  0.3878 -0.1764
  186POPC  H12A21281   2.130   0.727   6.355  1.7766 -0.9781 -0.8711
  186POPC  H12B21282   2.205   0.725   6.201 -1.7273  0.6774 -2.4376
  186POPC   C1321283   2.294   0.979   6.208  0.2339 -0.1375 -0.1614
  186POPC  H13A21284   2.212   0.997   6.140  2.0453 -0.1335 -2.4345
  186POPC  H13B21285   2.325   1.074   6.248 -0.8071 -0.3921  1.2508
  186POPC  H13C21286   2.376   0.930   6.157  1.4739  0.2308  1.4352
  186POPC   C1421287   2.175   0.993   6.413  0.5352  0.0412 -0.5266
  186POPC  H14A21288   2.089   1.032   6.361  0.2532 -2.0524 -1.6628
  186POPC  H14B21289   2.130   0.937   6.494  1.5323  1.2934  0.9372
  186POPC  H14C21290   2.238   1.071   6.455  2.8618 -1.5978 -0.9075
  186POPC   C1521291   2.369   0.824   6.385 -0.4125 -0.1126 -0.1512
  186POPC  H15A21292   2.432   0.902   6.425 -2.0030  1.8053 -1.2843
  186POPC  H15B21293   2.432   0.766   6.319  3.1275  1.5154  1.6124
  186POPC  H15C21294   2.336   0.757   6.462 -0.0377  1.4842  1.4507
  186POPC   C1121295   2.012   0.832   6.206  0.2842  0.8163  0.0118
  186POPC  H11A21296   1.956   0.741   6.175 -1.2828  2.3131 -1.6571
  186POPC  H11B21297   2.035   0.885   6.111  2.6939 -1.0409 -0.5023
  186POPC     P21298   1.805   0.985   6.241  0.0217  0.2020  0.4133
  186POPC   O1321299   1.824   1.027   6.101  0.5975  0.2968  0.1031
  186POPC   O1421300   1.787   1.093   6.338 -0.1219 -0.1779 -0.2982
  186POPC   O1221301   1.930   0.903   6.300  0.0761 -0.1797 -0.4251
  186POPC   O1121302   1.679   0.897   6.256  0.6157  0.1427  0.2457
  186POPC    C121303   1.675   0.756   6.280 -0.4893  0.8338 -0.2043
  186POPC    HA21304   1.590   0.750   6.352 -1.2826  0.8495 -1.1392
  186POPC    HB21305   1.763   0.714   6.335  0.0751  0.5812 -1.2967
  186POPC    C221306   1.622   0.672   6.163 -0.0736 -0.0116 -0.1634
  186POPC    HS21307   1.613   0.567   6.197  1.2337 -0.2748 -0.5838
  186POPC   O2121308   1.724   0.685   6.057 -0.0472  0.4838 -0.0793
  186POPC   C2121309   1.744   0.576   5.983  1.1852  0.4345 -1.2640
  186POPC   O2221310   1.677   0.473   5.992 -0.2326 -0.8839  0.0943
  186POPC   C2221311   1.858   0.599   5.892  0.3658 -0.7209 -0.2957
  186POPC   H2R21312   1.943   0.640   5.950  0.1121 -1.4715  0.6111
  186POPC   H2S21313   1.821   0.682   5.828  0.4447 -0.1389  0.4128
  186POPC    C321314   1.478   0.719   6.111 -0.1671 -0.6946 -0.4284
  186POPC    HX21315   1.413   0.731   6.200  0.2526 -2.1692  0.1031
  186POPC    HY21316   1.442   0.630   6.054 -0.1660 -2.8281  2.7724
  186POPC   O3121317   1.484   0.845   6.036  0.2362  0.2763 -0.2452
  186POPC   C3121318   1.475   0.852   5.905  0.1411  1.0898  0.3051
  186POPC   O3221319   1.444   0.758   5.835 -0.6541 -0.3331 -0.0384
  186POPC   C3221320   1.507   0.990   5.856  0.6773 -0.4221 -0.9815
  186POPC   H2X21321   1.614   1.008   5.882  1.0183 -2.1808 -1.1037
  186POPC   H2Y21322   1.440   1.069   5.896  0.1907 -0.6368 -1.3755
  186POPC   C2321323   1.919   0.485   5.818  0.5747  0.2366  0.1237
  186POPC   H3R21324   1.935   0.389   5.871 -2.2239 -0.5656 -0.3712
  186POPC   H3S21325   2.013   0.514   5.767  1.2765 -3.1465 -0.5958
  186POPC   C2421326   1.812   0.439   5.711 -0.1815 -0.9067 -0.2302
  186POPC   H4R21327   1.730   0.392   5.769 -0.2779 -1.3588 -0.7342
  186POPC   H4S21328   1.856   0.361   5.646  1.4713  0.1983 -0.4832
  186POPC   C2521329   1.751   0.545   5.620  0.4234  0.0743  0.0291
  186POPC   H5R21330   1.827   0.605   5.565 -0.2319 -1.3375 -2.4484
  186POPC   H5S21331   1.703   0.620   5.687 -0.5284 -1.1466  0.7404
  186POPC   C2621332   1.644   0.490   5.524  0.1218 -0.4329  0.0968
  186POPC   H6R21333   1.550   0.456   5.571 -0.3806  0.4279 -0.2821
  186POPC   H6S21334   1.691   0.402   5.474 -1.1564 -0.6793 -0.6753
  186POPC   C2721335   1.628   0.579   5.401 -0.2598 -0.1081 -0.2047
  186POPC   H7R21336   1.551   0.535   5.334 -0.7332  1.3393 -0.6293
  186POPC   H7S21337   1.717   0.589   5.336  0.3183 -2.6029  0.1628
  186POPC   C2821338   1.574   0.718   5.437 -0.1070  0.1132 -0.7875
  186POPC   H8R21339   1.570   0.784   5.348  0.0467  1.3206  0.0840
  186POPC   H8S21340   1.647   0.766   5.507 -0.4849 -1.1871  0.5381
  186POPC   C2921341   1.440   0.703   5.494 -0.2155 -0.4514  0.2894
  186POPC   H9121342   1.444   0.682   5.601  1.0780  0.4075  0.4184
  186POPC  C21021343   1.319   0.715   5.435  0.7423 -0.0227 -1.3169
  186POPC  H10121344   1.227   0.695   5.493  0.2497  3.4300 -0.8214
  186POPC  C21121345   1.298   0.738   5.284 -0.6832 -0.6034 -0.6604
  186POPC  H11R21346   1.269   0.643   5.234 -1.2117 -0.9288  0.2395
  186POPC  H11S21347   1.392   0.769   5.234 -0.0482  0.9375  1.4167
  186POPC  C21221348   1.192   0.851   5.254  0.2470 -0.7646 -0.2156
  186POPC  H12R21349   1.219   0.946   5.303  0.4758 -0.5571 -0.7467
  186POPC  H12S21350   1.093   0.822   5.297  0.4007 -3.1245 -1.3280
  186POPC  C21321351   1.164   0.858   5.100  0.1606  0.2187  0.7115
  186POPC  H13R21352   1.063   0.894   5.074 -0.1422  1.7920  3.8679
  186POPC  H13S21353   1.170   0.753   5.063 -1.0949 -0.0463  1.2628
  186POPC  C21421354   1.272   0.944   5.022 -0.0447 -0.3770  0.4583
  186POPC  H14R21355   1.367   0.888   5.003  0.1391 -0.2185  0.8910
  186POPC  H14S21356   1.305   1.030   5.083 -1.0724  0.1060  0.3372
  186POPC  C21521357   1.213   0.995   4.893  0.5887  0.0022  0.2566
  186POPC  H15R21358   1.137   1.072   4.918 -0.5994 -0.6681 -1.2173
  186POPC  H15S21359   1.160   0.914   4.839  2.0336 -1.3268  0.7907
  186POPC  C21621360   1.315   1.054   4.798 -0.9629 -0.4649 -0.4017
  186POPC  H16R21361   1.408   0.993   4.795 -1.5348 -1.3130 -1.2211
  186POPC  H16S21362   1.351   1.151   4.838 -0.6196 -1.0684  0.7846
  186POPC  C21721363   1.264   1.065   4.660  0.2501 -0.7482 -0.3637
  186POPC  H17R21364   1.306   1.155   4.610 -0.7469 -0.3397 -0.4815
  186POPC  H17S21365   1.154   1.080   4.659  0.1974 -0.7485  2.3677
  186POPC  C21821366   1.301   0.943   4.570 -0.2202 -0.4041 -0.1146
  186POPC  H18R21367   1.230   0.945   4.485 -0.7312  1.0843  0.3370
  186POPC  H18S21368   1.277   0.853   4.630  1.4454  1.4281  3.5122
  186POPC  H18T21369   1.409   0.936   4.545  0.6228  5.6683  1.0076
  186POPC   C3321370   1.509   0.988   5.701  0.4369 -0.6247  0.3705
  186POPC   H3X21371   1.409   0.969   5.657  0.2006 -0.6699  0.9121
  186POPC   H3Y21372   1.586   0.919   5.661  0.7366  0.9152 -1.7791
  186POPC   C3421373   1.570   1.121   5.655  0.9581 -0.7619  0.1599
  186POPC   H4X21374   1.676   1.136   5.686  1.2181 -2.8243  0.3293
  186POPC   H4Y21375   1.507   1.200   5.701 -0.9554 -1.7490 -0.7275
  186POPC   C3521376   1.550   1.141   5.499  0.2267 -0.4648 -0.5949
  186POPC   H5X21377   1.442   1.123   5.478 -0.1639 -1.2883  1.8955
  186POPC   H5Y21378   1.623   1.073   5.450 -0.2464 -1.4803  0.0867
  186POPC   C3621379   1.568   1.282   5.440 -0.2132 -0.0948 -0.7524
  186POPC   H6X21380   1.661   1.312   5.491 -1.1111  1.1146  0.1889
  186POPC   H6Y21381   1.488   1.346   5.483 -1.3348 -1.5364 -0.6359
  186POPC   C3721382   1.559   1.289   5.290 -0.3339  0.2055 -0.7878
  186POPC   H7X21383   1.547   1.395   5.263  0.1113  0.8219  1.3130
  186POPC   H7Y21384   1.466   1.240   5.254 -1.3961  1.9070 -0.4068
  186POPC   C3821385   1.685   1.232   5.221  0.1606 -0.4531 -0.1631
  186POPC   H8X21386   1.713   1.133   5.264 -0.7911  0.1240  1.8785
  186POPC   H8Y21387   1.769   1.301   5.244 -0.8039  0.2177  1.4794
  186POPC   C3921388   1.664   1.234   5.072 -0.1094  1.0338  0.5069
  186POPC   H9X21389   1.622   1.329   5.034 -1.1836  0.0467 -0.8338
  186POPC   H9Y21390   1.579   1.166   5.049  0.0599  0.9833  0.0172
  186POPC  C31021391   1.780   1.178   4.989 -0.7090  0.5997 -0.0543
  186POPC  H10X21392   1.864   1.247   5.010  0.6221 -1.3568  1.2465
  186POPC  H10Y21393   1.749   1.201   4.885  1.0789  0.3254 -0.6585
  186POPC  C31121394   1.807   1.032   5.011  0.5695 -0.3349 -0.7144
  186POPC  H11X21395   1.704   0.992   5.026  2.2239 -3.8263  2.1201
  186POPC  H11Y21396   1.865   1.012   5.104  1.1227 -0.1672 -1.0196
  186POPC  C31221397   1.868   0.956   4.900  0.1624  0.0192  0.2082
  186POPC  H12X21398   1.974   0.987   4.885  0.0934 -0.3720 -1.1410
  186POPC  H12Y21399   1.812   0.968   4.805  2.1769  1.6274 -0.8099
  186POPC  C31321400   1.874   0.801   4.923  0.4727 -0.2857  0.2722
  186POPC  H13X21401   1.937   0.775   5.010  0.7146  1.0949  0.5210
  186POPC  H13Y21402   1.918   0.751   4.835 -4.5503 -1.5937 -1.7165
  186POPC  C31421403   1.732   0.745   4.939 -0.2397  0.5688 -0.3638
  186POPC  H14X21404   1.688   0.788   4.846 -0.4532  0.0715 -0.4978
  186POPC  H14Y21405   1.675   0.791   5.023  0.0851  0.8715 -0.3112
  186POPC  C31521406   1.723   0.596   4.943 -0.6142  0.0116 -0.5847
  186POPC  H15X21407   1.758   0.552   4.847  1.8107 -2.8489  1.5303
  186POPC  H15Y21408   1.616   0.566   4.948  0.0995 -3.0634 -2.3389
  186POPC  C31621409   1.803   0.541   5.067 -0.0938  0.6163 -0.5253
  186POPC  H16X21410   1.754   0.598   5.148  1.3304  1.7297 -0.4257
  186POPC  H16Y21411   1.911   0.569   5.062  0.3347 -1.2341 -3.3893
  186POPC  H16Z21412   1.807   0.430   5.081 -3.3370  0.5144 -0.0501
  187POPC     N21413   5.683   6.253   2.237 -0.0419  0.3932  0.4159
  187POPC   C1221414   5.753   6.120   2.217 -0.5535 -0.3971 -0.6285
  187POPC  H12A21415   5.834   6.107   2.288 -1.0104 -2.5546 -0.4447
  187POPC  H12B21416   5.791   6.124   2.116  1.1878  0.8372  0.0463
  187POPC   C1321417   5.571   6.275   2.140 -0.1657  0.1271 -0.1951
  187POPC  H13A21418   5.528   6.373   2.149 -0.6427 -0.0764 -0.2330
  187POPC  H13B21419   5.595   6.263   2.035  0.7140  0.0821  0.0019
  187POPC  H13C21420   5.495   6.200   2.157  0.1669  0.2958  2.2469
  187POPC   C1421421   5.617   6.270   2.376  0.5205  0.2439 -0.3195
  187POPC  H14A21422   5.576   6.176   2.409  1.1490  0.4022  0.9511
  187POPC  H14B21423   5.691   6.283   2.453 -0.8447  1.6354  0.7943
  187POPC  H14C21424   5.557   6.359   2.391  2.2912  1.5765 -0.8949
  187POPC   C1521425   5.792   6.358   2.228 -0.8856 -1.0210 -0.1922
  187POPC  H15A21426   5.752   6.455   2.254 -0.5238 -1.4493  2.0481
  187POPC  H15B21427   5.834   6.354   2.128 -0.2034  0.3268  0.0383
  187POPC  H15C21428   5.866   6.329   2.301  1.4108  0.0247 -2.0250
  187POPC   C1121429   5.671   5.997   2.226 -0.4080  0.0498  0.2532
  187POPC  H11A21430   5.713   5.901   2.189 -0.8911  0.1109 -0.4648
  187POPC  H11B21431   5.573   6.012   2.176  0.5380 -1.6448 -2.2234
  187POPC     P21432   5.750   5.919   2.456  0.0196  0.2006  0.5445
  187POPC   O1321433   5.868   6.006   2.457  0.9929 -0.3682  0.2737
  187POPC   O1421434   5.779   5.781   2.412  0.0352 -0.2965 -0.0675
  187POPC   O1221435   5.636   5.978   2.362  0.2882 -0.5247  0.8820
  187POPC   O1121436   5.698   5.914   2.609  0.4289  0.7225  0.2197
  187POPC    C121437   5.573   5.865   2.652  0.6177  0.1613 -0.1396
  187POPC    HA21438   5.590   5.811   2.747 -1.0827  2.2346  1.3748
  187POPC    HB21439   5.537   5.797   2.571 -1.0592  0.7574  0.0863
  187POPC    C221440   5.469   5.982   2.669  0.9484 -0.4930 -0.2037
  187POPC    HS21441   5.475   6.051   2.582 -1.3783  1.0548  0.8165
  187POPC   O2121442   5.500   6.047   2.791  0.1786 -0.3500 -0.0821
  187POPC   C2121443   5.481   6.177   2.791 -0.0339 -0.0585  0.6500
  187POPC   O2221444   5.451   6.247   2.695  0.7888 -0.4712  0.1970
  187POPC   C2221445   5.528   6.231   2.920 -0.2987 -0.1074 -0.0587
  187POPC   H2R21446   5.638   6.247   2.913 -0.0545 -2.0859 -1.1278
  187POPC   H2S21447   5.513   6.158   3.003  1.4394 -0.9033 -0.4200
  187POPC    C321448   5.325   5.929   2.687  0.1970 -0.4417  0.6365
  187POPC    HX21449   5.301   5.889   2.586  2.5254 -0.6291  0.1259
  187POPC    HY21450   5.248   6.007   2.707 -0.6840 -1.0519 -0.3251
  187POPC   O3121451   5.325   5.823   2.788 -0.4285  0.2938  0.2638
  187POPC   C3121452   5.254   5.853   2.894  0.1224  0.4248  0.0119
  187POPC   O3221453   5.193   5.959   2.914 -0.1127  0.0598  0.1695
  187POPC   C3221454   5.290   5.740   2.990 -0.0884  0.3703 -0.4390
  187POPC   H2X21455   5.397   5.713   3.002 -0.5698 -1.2222  0.4685
  187POPC   H2Y21456   5.258   5.647   2.937  0.8144 -1.5403  2.2602
  187POPC   C2321457   5.470   6.368   2.946  0.0524 -0.5358 -0.4753
  187POPC   H3R21458   5.362   6.346   2.955 -0.5651  2.8975  1.1350
  187POPC   H3S21459   5.483   6.427   2.853 -0.7578  1.2217  0.5147
  187POPC   C2421460   5.516   6.432   3.072  0.0101  0.1193  0.5272
  187POPC   H4R21461   5.481   6.537   3.066 -0.1112  0.0888  0.6908
  187POPC   H4S21462   5.623   6.456   3.086  0.1331  0.2449 -0.5768
  187POPC   C2521463   5.469   6.358   3.199  0.2016 -0.1578  0.5488
  187POPC   H5R21464   5.504   6.253   3.201  0.3715 -0.0666  3.4244
  187POPC   H5S21465   5.358   6.367   3.191 -0.0790 -2.5059  1.4297
  187POPC   C2621466   5.497   6.424   3.335  0.1377  0.7552  0.4498
  187POPC   H6R21467   5.505   6.534   3.322  0.5311  0.5060 -1.4961
  187POPC   H6S21468   5.591   6.401   3.390  0.3926 -0.4020 -0.4506
  187POPC   C2721469   5.385   6.400   3.427 -0.3856 -0.0411  0.4746
  187POPC   H7R21470   5.370   6.290   3.423  0.5752 -0.1763  0.5324
  187POPC   H7S21471   5.298   6.445   3.375 -0.4402 -1.3021 -0.5591
  187POPC   C2821472   5.402   6.457   3.567  0.1834  1.0769  0.3836
  187POPC   H8R21473   5.403   6.568   3.562 -0.2768  1.1695  1.9884
  187POPC   H8S21474   5.493   6.427   3.623 -1.5655 -4.0860  0.7063
  187POPC   C2921475   5.286   6.413   3.652  0.6984  0.2580  0.6086
  187POPC   H9121476   5.283   6.312   3.695  0.7645 -0.0870 -0.1877
  187POPC  C21021477   5.191   6.501   3.685 -0.2298 -0.2922 -0.1361
  187POPC  H10121478   5.129   6.473   3.772 -1.8388 -2.4037 -1.8923
  187POPC  C21121479   5.179   6.644   3.645  0.2737 -0.0224  0.2557
  187POPC  H11R21480   5.169   6.651   3.534 -0.6957 -0.2663  0.3242
  187POPC  H11S21481   5.267   6.706   3.671 -2.3698  3.9147  0.1394
  187POPC  C21221482   5.067   6.710   3.728 -0.1880  0.2821 -0.2062
  187POPC  H12R21483   5.099   6.725   3.833 -0.6896  0.9536 -0.1443
  187POPC  H12S21484   4.973   6.650   3.729 -1.0856  1.5834 -2.6120
  187POPC  C21321485   5.023   6.841   3.665  0.8630 -0.3014 -0.3612
  187POPC  H13R21486   4.945   6.826   3.587  0.7082  3.1734 -0.9483
  187POPC  H13S21487   5.106   6.902   3.624 -1.1703  0.9272 -2.8159
  187POPC  C21421488   4.964   6.940   3.773  0.6881  0.2496  0.1036
  187POPC  H14R21489   5.037   6.953   3.856 -1.7074  2.1067  2.0341
  187POPC  H14S21490   4.865   6.900   3.806  1.2328 -1.3442 -0.1833
  187POPC  C21521491   4.945   7.082   3.717  0.2303 -0.2602  0.0914
  187POPC  H15R21492   4.934   7.077   3.607 -0.3246  3.0755 -0.0680
  187POPC  H15S21493   5.036   7.140   3.745  0.5780 -2.0547  2.8940
  187POPC  C21621494   4.835   7.177   3.770 -0.5399  0.2922  0.7576
  187POPC  H16R21495   4.858   7.209   3.874 -1.5188 -0.0963  1.1046
  187POPC  H16S21496   4.739   7.121   3.778 -0.3283 -0.1939 -0.0833
  187POPC  C21721497   4.815   7.308   3.690 -0.0890 -0.6105 -0.3196
  187POPC  H17R21498   4.722   7.360   3.721  0.4004  0.7017 -1.0031
  187POPC  H17S21499   4.790   7.281   3.586 -0.3738  2.3987 -1.0970
  187POPC  C21821500   4.930   7.408   3.692  1.1783 -0.1823 -0.3458
  187POPC  H18R21501   4.942   7.458   3.790  2.5945 -0.8476 -0.1739
  187POPC  H18S21502   4.901   7.485   3.617  2.9819  0.0234 -0.8525
  187POPC  H18T21503   5.026   7.370   3.651  1.3461 -0.4781  0.3060
  187POPC   C3321504   5.221   5.764   3.134 -0.1744 -1.0612 -0.6193
  187POPC   H3X21505   5.243   5.676   3.198 -0.2401  0.4233  1.5111
  187POPC   H3Y21506   5.114   5.775   3.104 -0.4993 -0.1386  0.8100
  187POPC   C3421507   5.269   5.881   3.218 -0.5337 -0.3721  1.0939
  187POPC   H4X21508   5.243   5.981   3.179  2.2982  0.2124  0.5576
  187POPC   H4Y21509   5.380   5.888   3.218 -0.4778 -1.1315  0.4077
  187POPC   C3521510   5.233   5.872   3.364 -0.7015 -0.1097 -0.5936
  187POPC   H5X21511   5.260   5.775   3.410  0.2251 -0.0240 -0.9588
  187POPC   H5Y21512   5.122   5.877   3.361 -0.7293 -0.6506 -0.4248
  187POPC   C3621513   5.273   5.992   3.446  0.1454  0.3287  0.0727
  187POPC   H6X21514   5.198   5.981   3.527  0.8328  0.1953  0.7028
  187POPC   H6Y21515   5.246   6.087   3.396 -0.8307 -0.2023 -0.4080
  187POPC   C3721516   5.423   6.002   3.494 -0.1622  0.5154  0.0621
  187POPC   H7X21517   5.470   6.067   3.417 -0.7450  0.8847  0.0069
  187POPC   H7Y21518   5.470   5.903   3.482 -2.0925 -0.4816  0.4909
  187POPC   C3821519   5.433   6.043   3.644 -0.3476 -0.0821  1.0411
  187POPC   H8X21520   5.355   5.983   3.697  1.3655 -0.5663  3.0824
  187POPC   H8Y21521   5.403   6.150   3.641  0.6287  0.1618 -0.5025
  187POPC   C3921522   5.565   6.001   3.695  0.0050 -0.2402 -0.5049
  187POPC   H9X21523   5.642   6.042   3.626 -2.8882  3.4919 -1.6810
  187POPC   H9Y21524   5.575   5.891   3.711  3.1709 -0.1739 -1.5111
  187POPC  C31021525   5.600   6.068   3.824  0.0425 -0.1884  0.4941
  187POPC  H10X21526   5.636   5.994   3.899  1.4156  1.3199  1.3385
  187POPC  H10Y21527   5.504   6.104   3.867  0.5201  1.3495  0.2944
  187POPC  C31121528   5.706   6.179   3.815  0.0943  0.2041  0.0434
  187POPC  H11X21529   5.680   6.254   3.738  0.8859 -0.2244 -0.6497
  187POPC  H11Y21530   5.804   6.138   3.781  0.9297  1.4243  0.9316
  187POPC  C31221531   5.729   6.247   3.946  0.6974  0.3756 -0.3261
  187POPC  H12X21532   5.749   6.172   4.026 -0.9569  0.3904  0.1170
  187POPC  H12Y21533   5.645   6.303   3.992 -0.6152  0.1712 -2.4285
  187POPC  C31321534   5.853   6.331   3.936  0.4047 -0.7885  0.3740
  187POPC  H13X21535   5.865   6.409   3.858  2.9323 -0.4515  1.0451
  187POPC  H13Y21536   5.938   6.261   3.927  1.1470  0.3543 -1.9410
  187POPC  C31421537   5.870   6.411   4.067  0.7744 -0.4527 -0.2114
  187POPC  H14X21538   5.883   6.342   4.154 -2.1975 -1.6325 -0.6346
  187POPC  H14Y21539   5.777   6.467   4.091  0.6745 -1.1702  1.1069
  187POPC  C31521540   5.983   6.510   4.058 -0.0616  0.0606 -0.4077
  187POPC  H15X21541   5.946   6.610   4.092 -3.9251 -0.4387 -2.8646
  187POPC  H15Y21542   6.025   6.528   3.957  1.1689 -0.8218 -0.0570
  187POPC  C31621543   6.097   6.471   4.159 -0.0107  1.1742  0.0565
  187POPC  H16X21544   6.170   6.399   4.118  0.5709  1.1486  1.1131
  187POPC  H16Y21545   6.055   6.425   4.251  0.2196  0.2872 -0.2797
  187POPC  H16Z21546   6.152   6.564   4.184  1.9398 -0.4446  2.0151
  188POPC     N21547   6.312   5.861   2.045 -0.3766  0.3450  0.1196
  188POPC   C1221548   6.194   5.812   2.124  0.7618  0.1108 -0.1281
  188POPC  H12A21549   6.187   5.705   2.137 -2.1242 -0.0771 -2.7962
  188POPC  H12B21550   6.111   5.833   2.059  0.7600  3.6974  0.9723
  188POPC   C1321551   6.427   5.796   2.108 -0.5044  0.1134  0.4254
  188POPC  H13A21552   6.424   5.815   2.214 -0.9945 -0.6412  0.5441
  188POPC  H13B21553   6.417   5.691   2.084 -0.8115  0.3325 -0.4139
  188POPC  H13C21554   6.520   5.828   2.062 -0.5558  2.8185  2.1222
  188POPC   C1421555   6.297   5.814   1.896 -0.2946 -0.0741  0.0637
  188POPC  H14A21556   6.205   5.840   1.846 -0.4840 -0.4243  0.2311
  188POPC  H14B21557   6.382   5.838   1.833 -0.1018 -2.2435 -0.5402
  188POPC  H14C21558   6.300   5.707   1.889 -2.1377 -0.2526  1.6106
  188POPC   C1521559   6.335   6.010   2.050  0.7569 -0.2440  0.4532
  188POPC  H15A21560   6.440   6.023   2.030  0.2707  0.6607 -1.6546
  188POPC  H15B21561   6.334   6.048   2.151 -0.4661 -1.2828  0.8519
  188POPC  H15C21562   6.276   6.075   1.987  0.8318 -0.3023  0.3253
  188POPC   C1121563   6.158   5.878   2.257 -0.1673 -0.2481 -0.2232
  188POPC  H11A21564   6.068   5.824   2.293 -1.3756  1.0442 -1.2545
  188POPC  H11B21565   6.130   5.985   2.246  0.9605 -0.0956 -1.7100
  188POPC     P21566   6.338   5.975   2.430  0.5510 -0.9821  0.0811
  188POPC   O1321567   6.276   6.107   2.393  0.3720 -0.0748 -0.2199
  188POPC   O1421568   6.477   5.947   2.379  0.2127 -0.3307  0.5791
  188POPC   O1221569   6.261   5.855   2.353 -0.5964 -0.5529 -0.7784
  188POPC   O1121570   6.312   5.931   2.581  0.2734  1.1150  0.0508
  188POPC    C121571   6.184   5.876   2.616 -0.3979  0.5344 -0.2915
  188POPC    HA21572   6.186   5.765   2.619  0.5833  0.5805  0.9849
  188POPC    HB21573   6.108   5.912   2.543  0.9123  3.6916 -0.1615
  188POPC    C221574   6.130   5.928   2.752  0.3326  0.1787  0.3849
  188POPC    HS21575   6.126   6.039   2.753 -1.1582  0.1331 -0.0080
  188POPC   O2121576   6.215   5.876   2.861  0.5179 -0.2114  0.4523
  188POPC   C2121577   6.219   5.944   2.973 -0.4753 -0.0110 -0.0230
  188POPC   O2221578   6.160   6.048   2.989  0.0512  0.0166  0.3944
  188POPC   C2221579   6.306   5.871   3.072 -0.2895  0.0349 -0.2879
  188POPC   H2R21580   6.382   5.820   3.009 -2.1838 -1.7465 -1.1633
  188POPC   H2S21581   6.244   5.793   3.120  1.0018 -0.8477 -0.0189
  188POPC    C321582   5.977   5.882   2.761 -0.1906 -0.7682  0.8706
  188POPC    HX21583   5.982   5.779   2.721 -1.1716 -1.5754  2.7321
  188POPC    HY21584   5.921   5.949   2.692  0.4595 -0.9743  0.1336
  188POPC   O3121585   5.922   5.874   2.896  0.5560 -0.2208 -0.0182
  188POPC   C3121586   5.865   5.979   2.951  1.0101  0.4333  0.0066
  188POPC   O3221587   5.851   6.085   2.896 -0.2691 -0.2311  0.1650
  188POPC   C3221588   5.818   5.952   3.092  0.2126  0.8391  0.3424
  188POPC   H2X21589   5.777   6.046   3.133 -2.0355 -0.8445  2.0691
  188POPC   H2Y21590   5.907   5.916   3.149  0.5149  0.1858 -0.5211
  188POPC   C2321591   6.382   5.955   3.178  0.1051 -0.1341 -0.2057
  188POPC   H3R21592   6.438   6.028   3.115  0.4539  0.4262  0.7462
  188POPC   H3S21593   6.454   5.885   3.226  0.2339  1.1402  1.5020
  188POPC   C2421594   6.284   6.018   3.279 -0.6112 -0.1400  0.2002
  188POPC   H4R21595   6.219   6.091   3.226  0.3054  1.0153  0.6423
  188POPC   H4S21596   6.344   6.070   3.357 -1.3521  1.8922 -0.5717
  188POPC   C2521597   6.196   5.912   3.345  0.5073  1.0157 -0.4183
  188POPC   H5R21598   6.262   5.832   3.385 -2.6907 -0.8187  1.4687
  188POPC   H5S21599   6.130   5.857   3.274  1.8953 -1.2537 -0.0157
  188POPC   C2621600   6.108   5.966   3.460 -0.7327  0.3420 -0.5421
  188POPC   H6R21601   6.110   5.886   3.536  1.7865  0.5617 -0.3204
  188POPC   H6S21602   6.001   5.980   3.436 -0.9224  1.4507  0.9126
  188POPC   C2721603   6.158   6.094   3.530 -0.4952 -1.0619 -0.3184
  188POPC   H7R21604   6.172   6.178   3.459  2.6868 -0.8464  0.4858
  188POPC   H7S21605   6.260   6.070   3.567 -0.8358  0.3056  1.5541
  188POPC   C2821606   6.077   6.137   3.649 -0.1939  0.5599  0.1698
  188POPC   H8R21607   6.073   6.049   3.717  0.4733  1.2678  1.1473
  188POPC   H8S21608   5.973   6.165   3.621 -1.2507 -1.8867  1.4686
  188POPC   C2921609   6.151   6.248   3.712  0.0424 -0.2246 -0.2959
  188POPC   H9121610   6.132   6.346   3.666 -2.0481 -0.5328 -0.0989
  188POPC  C21021611   6.225   6.248   3.822  0.9637 -0.1263  0.6480
  188POPC  H10121612   6.258   6.347   3.856 -2.1918  0.6403  1.6049
  188POPC  C21121613   6.264   6.144   3.922 -0.1957 -0.6497  0.0717
  188POPC  H11R21614   6.299   6.048   3.878  0.9841 -0.0290 -0.3727
  188POPC  H11S21615   6.184   6.120   3.996  0.4039 -1.5069  0.4494
  188POPC  C21221616   6.397   6.183   3.988  0.3324 -0.8263  0.4428
  188POPC  H12R21617   6.371   6.266   4.057 -1.6517 -2.4070  1.6776
  188POPC  H12S21618   6.473   6.216   3.914  0.3261 -0.3446  0.6480
  188POPC  C21321619   6.455   6.069   4.072 -0.2090  0.2776  0.0541
  188POPC  H13R21620   6.496   5.987   4.010  1.6848 -1.1973  3.1511
  188POPC  H13S21621   6.373   6.032   4.137 -2.3624 -2.4102 -4.0045
  188POPC  C21421622   6.576   6.100   4.157 -0.6651  0.0832 -0.8871
  188POPC  H14R21623   6.663   6.134   4.097  0.3530  1.1400  1.1317
  188POPC  H14S21624   6.616   6.009   4.206 -0.5348  1.0200  0.7846
  188POPC  C21521625   6.538   6.204   4.262 -0.0464 -0.4135 -0.7736
  188POPC  H15R21626   6.440   6.181   4.308  0.9280  2.1722  2.8331
  188POPC  H15S21627   6.535   6.304   4.213  0.2171 -0.9071 -1.8299
  188POPC  C21621628   6.658   6.209   4.370 -0.1610  0.5859 -0.2221
  188POPC  H16R21629   6.684   6.108   4.407  1.0760  1.0164  0.1078
  188POPC  H16S21630   6.607   6.262   4.454  1.8409 -1.8522  2.6342
  188POPC  C21721631   6.781   6.296   4.353 -0.1926  1.3086 -0.4904
  188POPC  H17R21632   6.773   6.407   4.347  1.1058  1.6018  2.3313
  188POPC  H17S21633   6.826   6.263   4.256 -0.4737 -0.8037  0.0782
  188POPC  C21821634   6.881   6.261   4.462  0.2944 -0.0763 -0.0454
  188POPC  H18R21635   6.903   6.152   4.468 -1.6477 -0.3972  1.7501
  188POPC  H18S21636   6.831   6.289   4.557 -0.5961  0.7823 -0.7627
  188POPC  H18T21637   6.968   6.329   4.450 -0.6484  1.0760 -0.4048
  188POPC   C3321638   5.704   5.839   3.113 -0.8077  0.6860 -0.6432
  188POPC   H3X21639   5.754   5.743   3.085 -2.1697 -0.6814  1.4957
  188POPC   H3Y21640   5.618   5.845   3.042 -0.5194 -0.4171 -1.0997
  188POPC   C3421641   5.685   5.824   3.259  0.2506  0.5261 -0.4961
  188POPC   H4X21642   5.588   5.775   3.282 -0.1700  1.5675 -0.0221
  188POPC   H4Y21643   5.680   5.921   3.311 -2.0061  0.9030 -1.3645
  188POPC   C3521644   5.786   5.731   3.337  0.0237 -0.1077  0.6448
  188POPC   H5X21645   5.888   5.734   3.293  0.0855  2.0726  0.8780
  188POPC   H5Y21646   5.740   5.631   3.321 -0.8497  0.5849 -1.3168
  188POPC   C3621647   5.794   5.776   3.485 -0.1745 -0.3245  0.5071
  188POPC   H6X21648   5.693   5.791   3.528 -0.0023  0.4731  0.6302
  188POPC   H6Y21649   5.848   5.872   3.498  0.8374 -0.8517  0.2784
  188POPC   C3721650   5.873   5.658   3.555 -1.1956  0.3471 -0.9641
  188POPC   H7X21651   5.979   5.655   3.521 -0.6703 -0.3838  0.7147
  188POPC   H7Y21652   5.828   5.562   3.523 -1.3021  0.4159 -1.0183
  188POPC   C3821653   5.864   5.670   3.703  0.2840  0.2637  0.5047
  188POPC   H8X21654   5.915   5.578   3.738 -1.5799 -0.5445  1.1559
  188POPC   H8Y21655   5.758   5.680   3.733 -0.4466 -0.9008 -1.6038
  188POPC   C3921656   5.945   5.786   3.772  0.5872  0.0379 -0.1068
  188POPC   H9X21657   5.923   5.879   3.715  0.5131  1.7742  2.6733
  188POPC   H9Y21658   6.055   5.766   3.767  0.6006 -0.0964  0.6659
  188POPC  C31021659   5.901   5.800   3.915 -0.2144  0.0745 -0.3211
  188POPC  H10X21660   5.905   5.705   3.973  0.0620 -0.2509 -0.8747
  188POPC  H10Y21661   5.791   5.819   3.916 -0.5017 -1.3955 -1.8820
  188POPC  C31121662   5.971   5.918   3.987  0.0426 -0.6675 -0.6104
  188POPC  H11X21663   5.954   6.016   3.936  0.4561  0.4017  1.2367
  188POPC  H11Y21664   6.076   5.885   3.994  0.0231 -0.4305  0.8456
  188POPC  C31221665   5.913   5.930   4.130 -0.5469 -0.1653 -0.2219
  188POPC  H12X21666   5.938   5.832   4.175 -0.4555 -0.2473 -0.4546
  188POPC  H12Y21667   5.806   5.962   4.129 -0.1062  1.3281 -1.1937
  188POPC  C31321668   5.984   6.042   4.208  0.1339 -0.1857 -0.1287
  188POPC  H13X21669   5.974   6.139   4.154  1.8142 -1.3384 -2.6342
  188POPC  H13Y21670   6.094   6.032   4.196  0.0863  0.5750 -1.2684
  188POPC  C31421671   5.944   6.045   4.356  0.8622 -0.2260  0.0176
  188POPC  H14X21672   5.977   5.949   4.401  0.3214 -1.0651 -1.3177
  188POPC  H14Y21673   5.833   6.049   4.358  0.7012 -0.5941 -4.0363
  188POPC  C31521674   5.990   6.173   4.422  0.0189  0.4574  0.0378
  188POPC  H15X21675   5.936   6.256   4.373  0.3793  0.1450 -0.9170
  188POPC  H15Y21676   6.098   6.188   4.399  0.7185 -1.8424  1.6424
  188POPC  C31621677   5.973   6.177   4.574 -0.2170  0.1777 -0.2303
  188POPC  H16X21678   6.015   6.093   4.634 -1.2309  0.3432  0.7207
  188POPC  H16Y21679   5.870   6.188   4.613 -0.0968  3.1901 -0.5864
  188POPC  H16Z21680   6.022   6.269   4.615  2.1045 -1.2659  0.3437
  189SAPI   C1221681   5.697   6.211   6.543 -0.4079 -0.6357  0.5181
  189SAPI    H221682   5.683   6.176   6.439  2.3389 -3.0024  0.9023
  189SAPI    O221683   5.639   6.341   6.532 -0.4373  0.3853  0.8476
  189SAPI   HO221684   5.686   6.389   6.463  1.1360  2.5634  3.3159
  189SAPI   C1321685   5.620   6.120   6.629  0.1175 -0.6365 -0.5159
  189SAPI    H321686   5.667   6.019   6.632  1.8694  0.1944  0.7252
  189SAPI    O321687   5.490   6.100   6.578 -0.0624  0.1879 -0.4448
  189SAPI   HO321688   5.475   6.169   6.513  1.7051  0.4677 -0.5722
  189SAPI   C1421689   5.620   6.183   6.771  0.1266  0.2792 -0.1049
  189SAPI    H421690   5.571   6.282   6.762  0.7671  0.6972  0.8919
  189SAPI    O421691   5.534   6.106   6.860 -0.1200  0.9485 -0.1862
  189SAPI   HO421692   5.445   6.140   6.861 -0.0066  1.2483  1.2101
  189SAPI   C1521693   5.758   6.209   6.823  0.4671  0.8401  0.4159
  189SAPI    H521694   5.807   6.111   6.843  0.4272  1.0468  1.5980
  189SAPI    O521695   5.751   6.270   6.951  0.8084  0.0706  0.3067
  189SAPI   HO521696   5.737   6.198   7.013 -0.7683  0.0677 -0.0483
  189SAPI   C1621697   5.842   6.291   6.727 -0.3971  0.3296  0.8341
  189SAPI    H621698   5.807   6.397   6.729  0.8585  0.7709 -0.0094
  189SAPI    O621699   5.980   6.293   6.764 -0.0041  0.5225  0.3309
  189SAPI   HO621700   6.025   6.214   6.732 -0.3016  0.3943  0.2236
  189SAPI   C1121701   5.840   6.226   6.591  0.1078  0.3516  0.7479
  189SAPI    H121702   5.882   6.123   6.596 -1.1033 -0.3879 -2.8480
  189SAPI     P21703   6.013   6.247   6.379 -0.4247 -0.1645  0.2088
  189SAPI   O1321704   6.110   6.143   6.424 -0.2400  0.4442 -0.2034
  189SAPI   O1421705   6.074   6.358   6.306  0.2150  0.1546 -0.4358
  189SAPI   O1221706   5.910   6.299   6.499  0.0233  0.6077  0.3021
  189SAPI   O1121707   5.906   6.181   6.278 -0.0354  0.2045 -0.4817
  189SAPI    C121708   5.855   6.281   6.177  0.7984  0.5332  0.2682
  189SAPI    HA21709   5.824   6.381   6.213  0.2000  1.1960 -2.0094
  189SAPI    HB21710   5.934   6.307   6.103 -1.2647  1.9672 -1.4893
  189SAPI    C221711   5.735   6.217   6.092 -0.8698 -0.7681 -0.2456
  189SAPI    HS21712   5.654   6.206   6.167 -1.2843  0.2138 -0.5450
  189SAPI   O2121713   5.775   6.081   6.055 -0.0958 -0.4892  0.2964
  189SAPI   C2121714   5.681   6.003   6.017  0.2365 -0.2189  0.2151
  189SAPI   O2221715   5.561   6.019   6.022 -0.5000 -0.1186 -0.5981
  189SAPI   C2221716   5.764   5.881   5.963 -0.1165 -0.0104  0.0944
  189SAPI   H2R21717   5.830   5.928   5.887 -1.3305  0.7281 -0.5375
  189SAPI   H2S21718   5.833   5.850   6.043 -1.6364 -0.0629  1.4220
  189SAPI    C321719   5.697   6.295   5.966  0.8432 -0.6650 -0.0642
  189SAPI    HX21720   5.655   6.394   5.994 -0.9909 -1.4387  0.0023
  189SAPI    HY21721   5.603   6.258   5.920 -0.4706  1.0069  1.2018
  189SAPI   O3121722   5.803   6.315   5.874  0.3631  0.2781 -0.0425
  189SAPI   C3121723   5.805   6.223   5.776 -0.5452 -0.6817  0.4076
  189SAPI   O3221724   5.730   6.128   5.760  0.3241 -0.6703 -0.8058
  189SAPI   C3221725   5.911   6.276   5.674 -0.2622  0.3556 -0.3810
  189SAPI   H2X21726   5.975   6.330   5.747  0.6434 -3.2720  1.6175
  189SAPI   H2Y21727   5.866   6.341   5.597  0.4983  1.1932 -0.1293
  189SAPI   C2321728   5.680   5.766   5.910 -0.3920  0.0019 -0.0280
  189SAPI   H3R21729   5.587   5.748   5.968 -2.1378  0.6814 -2.5391
  189SAPI   H3S21730   5.737   5.671   5.920 -1.4893 -0.6775 -0.1182
  189SAPI   C2421731   5.630   5.789   5.764 -0.1191 -0.5319 -1.0284
  189SAPI   H4R21732   5.719   5.820   5.706  1.2002 -0.6219  0.9021
  189SAPI   H4S21733   5.555   5.871   5.764 -2.3916 -2.4992 -3.7550
  189SAPI   C2521734   5.581   5.664   5.702 -0.5015  0.0923  0.6341
  189SAPI   H5R21735   5.639   5.574   5.728  1.5658  1.0225 -0.6146
  189SAPI   C2621736   5.471   5.641   5.623 -0.0523 -0.5463  0.4895
  189SAPI   H6R21737   5.435   5.544   5.585 -1.7036  0.2178  0.0190
  189SAPI   C2721738   5.374   5.748   5.586  0.2962  0.7507  0.5241
  189SAPI   H7R21739   5.364   5.762   5.477 -3.0533  1.5897  0.8701
  189SAPI   H7S21740   5.409   5.850   5.612 -1.4901  2.0735 -2.0630
  189SAPI   C2821741   5.235   5.718   5.640  0.2430  0.5234  0.1651
  189SAPI   H8R21742   5.214   5.611   5.651 -3.4088  0.6001 -4.3651
  189SAPI   C2921743   5.133   5.805   5.654 -1.3118 -0.1664 -0.4760
  189SAPI   H9R21744   5.031   5.769   5.672 -0.3821 -2.0467  1.2273
  189SAPI  C21021745   5.139   5.952   5.621 -0.4337 -0.1645 -0.0959
  189SAPI  H10R21746   5.035   5.991   5.621 -0.2193  0.5004 -2.6723
  189SAPI  H10S21747   5.184   5.963   5.520  3.0988  0.9532  1.5210
  189SAPI  C21121748   5.222   6.023   5.726  0.5087  0.1050  0.0298
  189SAPI  H11R21749   5.196   5.994   5.829 -3.9293  1.8046 -0.4878
  189SAPI  C21221750   5.299   6.130   5.689 -0.3043 -0.1207 -0.5326
  189SAPI  H12R21751   5.349   6.188   5.768  0.9165 -2.0145  0.1281
  189SAPI  C21321752   5.323   6.195   5.550 -0.7917  1.4261  0.2593
  189SAPI  H13R21753   5.268   6.291   5.551 -1.5576  1.0134 -1.0786
  189SAPI  H13S21754   5.286   6.136   5.463  1.9832 -1.0631  0.6814
  189SAPI  C21421755   5.473   6.207   5.522  0.0988 -0.4153  0.1938
  189SAPI  H14R21756   5.540   6.184   5.606 -1.2483 -0.8558  1.1666
  189SAPI  C21521757   5.526   6.250   5.405  0.2967  0.0801 -0.1367
  189SAPI  H15R21758   5.635   6.244   5.397  0.5901 -0.7966  3.4165
  189SAPI  C21621759   5.445   6.293   5.283  0.3027 -0.3558 -0.6050
  189SAPI  H16R21760   5.467   6.399   5.259  0.1775 -0.7530 -2.6199
  189SAPI  H16S21761   5.337   6.272   5.297  0.8280 -0.0274  4.8844
  189SAPI  C21721762   5.485   6.228   5.145  0.3070  0.1104  0.8172
  189SAPI  H17R21763   5.395   6.238   5.079  1.0002  0.6852 -0.0499
  189SAPI  H17S21764   5.500   6.118   5.147  1.3702  0.0893 -3.7408
  189SAPI  C21821765   5.612   6.298   5.087 -0.1364  0.1798  0.7450
  189SAPI  H18R21766   5.697   6.284   5.157  0.4338  2.1614  0.5094
  189SAPI  H18S21767   5.597   6.408   5.075 -1.0868  0.0011  0.2486
  189SAPI  C21921768   5.645   6.238   4.954 -0.3557 -0.0749 -0.3646
  189SAPI  H19R21769   5.675   6.132   4.969  0.2579  0.1859  0.2729
  189SAPI  H19S21770   5.722   6.292   4.895 -4.2201  1.6938 -4.0529
  189SAPI  C22021771   5.527   6.237   4.849 -0.4144 -0.9344 -0.3220
  189SAPI  H20R21772   5.570   6.195   4.755  1.5860 -1.3386  0.7278
  189SAPI  H20S21773   5.498   6.343   4.829  2.3219 -0.1282 -0.2317
  189SAPI  H20T21774   5.449   6.165   4.881 -0.8614 -0.9856 -1.5099
  189SAPI   C3321775   5.990   6.160   5.613 -0.1001 -0.3730 -0.1460
  189SAPI   H3X21776   6.033   6.088   5.685 -0.0587 -1.0773 -0.8708
  189SAPI   H3Y21777   6.070   6.207   5.553 -1.6218  0.5293 -1.5008
  189SAPI   C3421778   5.908   6.084   5.507  0.0177 -0.0820  0.5726
  189SAPI   H4X21779   5.855   6.155   5.440 -0.4777 -0.4443  0.5779
  189SAPI   H4Y21780   5.835   6.019   5.559 -0.4347  0.3602  0.4923
  189SAPI   C3521781   5.988   5.986   5.412 -0.2526  0.5944 -0.1680
  189SAPI   H5X21782   6.068   6.047   5.365 -1.2573  1.7910 -0.3387
  189SAPI   H5Y21783   5.914   5.962   5.333 -1.6338 -0.8258  1.5191
  189SAPI   C3621784   6.045   5.863   5.477 -0.2430  0.6297  0.1448
  189SAPI   H6X21785   6.071   5.878   5.584  2.1352  2.5932 -0.6522
  189SAPI   H6Y21786   6.132   5.830   5.415 -0.9786  2.1578 -1.7558
  189SAPI   C3721787   5.946   5.743   5.475 -0.4969  0.5548  0.9286
  189SAPI   H7X21788   5.897   5.729   5.377  1.7719 -1.4511  0.0356
  189SAPI   H7Y21789   5.865   5.767   5.547 -2.0645 -3.1229  0.5104
  189SAPI   C3821790   6.009   5.611   5.519 -0.3759  0.4247  0.1948
  189SAPI   H8X21791   6.074   5.626   5.608  0.5334  1.2270 -0.5934
  189SAPI   H8Y21792   6.075   5.579   5.436 -0.0920  1.6056 -0.0407
  189SAPI   C3921793   5.907   5.508   5.549 -0.2002  0.0531  1.0465
  189SAPI   H9X21794   5.843   5.538   5.635 -1.3033 -0.0050  0.2518
  189SAPI   H9Y21795   5.958   5.414   5.579 -1.8961 -1.8042 -1.6590
  189SAPI  C31021796   5.825   5.459   5.426  0.1354 -0.2120  0.6768
  189SAPI  H10X21797   5.890   5.465   5.336 -1.9781 -0.0388 -0.8489
  189SAPI  H10Y21798   5.738   5.526   5.413 -0.1419 -0.6360  0.3687
  189SAPI  C31121799   5.781   5.315   5.430 -0.1892 -0.1333  0.6959
  189SAPI  H11X21800   5.735   5.284   5.526 -2.7965 -0.1426 -0.4896
  189SAPI  H11Y21801   5.868   5.247   5.437 -0.9302 -1.0563  1.1260
  189SAPI  C31221802   5.687   5.274   5.316 -0.4323  0.0172 -0.1077
  189SAPI  H12X21803   5.611   5.355   5.308  1.9579  2.2472 -1.0598
  189SAPI  H12Y21804   5.639   5.176   5.332 -0.0514 -0.6874 -2.9304
  189SAPI  C31321805   5.751   5.273   5.186  0.0803 -0.2526 -0.1242
  189SAPI  H13X21806   5.826   5.191   5.182 -0.5113 -0.9688  2.4985
  189SAPI  H13Y21807   5.818   5.359   5.163  0.9433 -0.7621  0.4242
  189SAPI  C31421808   5.667   5.253   5.057 -1.1986  0.8473 -0.0891
  189SAPI  H14X21809   5.639   5.146   5.049  1.5006  0.1582 -0.6613
  189SAPI  H14Y21810   5.731   5.265   4.967  0.1720 -0.3754  0.6926
  189SAPI  C31521811   5.551   5.354   5.040  0.3616 -0.5156 -0.1981
  189SAPI  H15X21812   5.567   5.446   5.099 -3.0544 -0.6223  1.0309
  189SAPI  H15Y21813   5.460   5.300   5.076 -0.9206  0.5208 -1.7875
  189SAPI  C31621814   5.526   5.395   4.896 -0.0223  0.3150  0.7016
  189SAPI  H16X21815   5.592   5.474   4.854 -5.0585  3.2750 -2.1940
  189SAPI  H16Y21816   5.428   5.448   4.891  0.5839  1.5528  1.5840
  189SAPI  C31721817   5.508   5.276   4.794 -0.0226 -0.4522  0.1415
  189SAPI  H17X21818   5.434   5.216   4.851 -1.7993 -0.3840 -2.0305
  189SAPI  H17Y21819   5.599   5.218   4.765 -0.3518 -0.8956 -0.0045
  189SAPI  C31821820   5.431   5.332   4.667 -0.6547 -0.3528 -0.8080
  189SAPI  H18X21821   5.346   5.392   4.705  0.6248  0.7384  0.3876
  189SAPI  H18Y21822   5.396   5.252   4.597  0.5690  0.1018 -1.9635
  189SAPI  H18Z21823   5.501   5.399   4.613 -1.4978  1.8473  0.7960
  190SAPI   C1221824   0.052   1.696   6.520  0.3989 -0.2053  0.5825
  190SAPI    H221825   0.028   1.678   6.413  0.6324  0.5707  0.3989
  190SAPI    O221826   0.021   1.830   6.558 -0.0603  0.2566 -0.3224
  190SAPI   HO221827   0.104   1.873   6.536 -0.3586 -0.0768 -2.2210
  190SAPI   C1321828  -0.032   1.583   6.591  0.1491 -0.2971 -0.1026
  190SAPI    H321829   0.007   1.486   6.551 -2.2505  0.5048 -4.7198
  190SAPI    O321830  -0.171   1.598   6.550  0.1333 -0.0352  0.0009
  190SAPI   HO321831  -0.209   1.653   6.619 -0.9012  0.3029 -0.8264
  190SAPI   C1421832  -0.010   1.589   6.741  0.5174  0.1591  0.0781
  190SAPI    H421833  -0.042   1.688   6.781  4.0276  1.6383 -0.5504
  190SAPI    O421834  -0.081   1.483   6.807 -0.1565  0.3340 -0.0519
  190SAPI   HO421835  -0.172   1.505   6.826 -1.0718 -2.3082 -1.2219
  190SAPI   C1521836   0.135   1.577   6.771  0.0417  0.0838 -0.8498
  190SAPI    H521837   0.171   1.476   6.741  1.8453  0.5742 -0.3574
  190SAPI    O521838   0.159   1.575   6.914  0.0779 -0.0009 -0.6076
  190SAPI   HO521839   0.089   1.633   6.946 -1.5955 -1.4447 -1.5432
  190SAPI   C1621840   0.219   1.679   6.695 -0.3272  0.0360 -0.0611
  190SAPI    H621841   0.201   1.779   6.741  1.1283 -0.6710  2.1373
  190SAPI    O621842   0.357   1.648   6.710  0.3241  0.0631 -0.2537
  190SAPI   HO621843   0.411   1.720   6.677 -0.4528  1.3024  1.1168
  190SAPI   C1121844   0.197   1.673   6.550  0.5329  0.7188  0.2227
  190SAPI    H121845   0.211   1.565   6.531 -4.1606 -0.2111  1.3308
  190SAPI     P21846   0.390   1.694   6.361  0.1396  0.1181  0.1951
  190SAPI   O1321847   0.322   1.587   6.284  0.1615 -0.1084 -0.7151
  190SAPI   O1421848   0.505   1.663   6.444  0.2129 -0.5907  0.0211
  190SAPI   O1221849   0.273   1.760   6.465  0.1603  0.2349  0.1648
  190SAPI   O1121850   0.445   1.808   6.268  0.7267  0.1853 -0.7148
  190SAPI    C121851   0.419   1.948   6.291 -0.0674 -0.0769 -0.1430
  190SAPI    HA21852   0.315   1.985   6.279 -0.9532 -2.4394 -0.0540
  190SAPI    HB21853   0.451   1.972   6.394  1.9647 -1.6742 -0.3726
  190SAPI    C221854   0.504   2.030   6.188 -0.3006  0.6229  0.9519
  190SAPI    HS21855   0.476   2.135   6.210  0.5364  0.6425  1.9505
  190SAPI   O2121856   0.476   1.999   6.051  0.5794  0.0329 -0.4603
  190SAPI   C2121857   0.497   2.093   5.957 -0.8436  0.2080  0.6285
  190SAPI   O2221858   0.532   2.208   5.984  0.0554 -0.3754  0.1688
  190SAPI   C2221859   0.454   2.032   5.823  0.5352  0.2433  0.5144
  190SAPI   H2R21860   0.529   2.050   5.742  1.0610  0.5497  1.0694
  190SAPI   H2S21861   0.431   1.924   5.827 -2.2207  0.6720 -1.8913
  190SAPI    C321862   0.659   2.005   6.220 -0.1441 -0.3256 -0.6083
  190SAPI    HX21863   0.673   2.009   6.330 -0.6386 -0.3996 -0.5390
  190SAPI    HY21864   0.708   2.085   6.161 -1.1090  1.2019  0.6224
  190SAPI   O3121865   0.707   1.873   6.182  0.3365 -0.2262  0.1663
  190SAPI   C3121866   0.755   1.860   6.061 -0.4253  0.0522 -0.3713
  190SAPI   O3221867   0.773   1.952   5.980  0.0699 -0.3026 -0.4984
  190SAPI   C3221868   0.805   1.720   6.032  0.0432  0.2311 -0.2261
  190SAPI   H2X21869   0.810   1.672   6.132  0.1608  1.4114  0.3400
  190SAPI   H2Y21870   0.907   1.735   5.991  1.1569 -2.3235  1.4184
  190SAPI   C2321871   0.317   2.095   5.776  0.2684  0.0224 -0.5232
  190SAPI   H3R21872   0.318   2.205   5.794  1.9289  0.1124 -1.0372
  190SAPI   H3S21873   0.234   2.054   5.837  1.4175 -0.5756  0.6686
  190SAPI   C2421874   0.278   2.075   5.623 -0.2687  0.6397 -0.2761
  190SAPI   H4R21875   0.363   2.118   5.565 -0.4354  0.0469 -0.9600
  190SAPI   H4S21876   0.183   2.127   5.600  0.2349  2.0940  0.8506
  190SAPI   C2521877   0.261   1.925   5.584 -0.5010 -1.2963  0.8208
  190SAPI   H5R21878   0.217   1.863   5.663  0.5211 -0.7664  1.8258
  190SAPI   C2621879   0.289   1.865   5.462  0.5647  0.3004 -0.0492
  190SAPI   H6R21880   0.256   1.762   5.442  0.2444  0.4256 -0.1845
  190SAPI   C2721881   0.350   1.929   5.337  0.6899 -0.0616 -0.4596
  190SAPI   H7R21882   0.446   1.886   5.300  1.0624  2.0667 -2.0177
  190SAPI   H7S21883   0.386   2.030   5.364  0.7269 -0.5870  1.4944
  190SAPI   C2821884   0.254   1.941   5.226  0.7588  0.0944 -0.1043
  190SAPI   H8R21885   0.187   2.027   5.228 -0.7313 -1.0545  0.1396
  190SAPI   C2921886   0.246   1.868   5.107 -0.6937 -0.6348  0.3066
  190SAPI   H9R21887   0.166   1.902   5.040 -0.9332  0.0011  0.9151
  190SAPI  C21021888   0.344   1.756   5.065  0.0790 -0.1577 -0.1472
  190SAPI  H10R21889   0.293   1.659   5.081  1.4490 -1.0188 -0.8182
  190SAPI  H10S21890   0.432   1.762   5.133  0.2568  2.3121 -0.5690
  190SAPI  C21121891   0.380   1.767   4.918 -0.2682  0.7087 -0.2762
  190SAPI  H11R21892   0.305   1.743   4.841  0.3454  0.8199 -0.9095
  190SAPI  C21221893   0.494   1.807   4.868  0.0159  0.3234 -0.4992
  190SAPI  H12R21894   0.511   1.794   4.760  2.2488  1.7389 -0.3667
  190SAPI  C21321895   0.618   1.838   4.952  0.3841  0.1421 -0.2789
  190SAPI  H13R21896   0.612   1.824   5.062  2.7981 -0.0214 -0.1480
  190SAPI  H13S21897   0.636   1.947   4.946 -0.9107  0.3791  0.0047
  190SAPI  C21421898   0.740   1.761   4.896  0.6802 -0.1784  0.3932
  190SAPI  H14R21899   0.767   1.666   4.945 -0.0380 -0.7279 -0.2554
  190SAPI  C21521900   0.814   1.801   4.796 -0.6040 -0.2655  1.1965
  190SAPI  H15R21901   0.915   1.758   4.790 -0.4942  0.0840  0.4463
  190SAPI  C21621902   0.803   1.934   4.717  0.3448  0.4638  0.3164
  190SAPI  H16R21903   0.900   1.986   4.733 -0.2105  1.4253  0.5435
  190SAPI  H16S21904   0.730   2.011   4.750 -0.1173  0.4129 -0.5827
  190SAPI  C21721905   0.794   1.905   4.561 -0.0802 -0.2378  0.3053
  190SAPI  H17R21906   0.872   1.831   4.532 -0.0696 -1.1235  2.4294
  190SAPI  H17S21907   0.808   1.997   4.501  1.2790 -1.2988 -1.0374
  190SAPI  C21821908   0.658   1.851   4.512  0.0058  0.1321 -0.5326
  190SAPI  H18R21909   0.591   1.928   4.554  0.6279  0.7479 -0.6544
  190SAPI  H18S21910   0.639   1.751   4.557  1.9587  0.1623  0.4267
  190SAPI  C21921911   0.654   1.839   4.361 -1.1251  0.6221 -0.1186
  190SAPI  H19R21912   0.694   1.933   4.318 -0.6710  0.9934  1.0777
  190SAPI  H19S21913   0.549   1.821   4.330 -0.9465  2.1294 -1.6554
  190SAPI  C22021914   0.735   1.719   4.309  0.0658  0.6889  0.3531
  190SAPI  H20R21915   0.685   1.620   4.316  0.7730  0.3754  1.0711
  190SAPI  H20S21916   0.840   1.705   4.345  0.3024 -0.0743 -0.6223
  190SAPI  H20T21917   0.740   1.723   4.198  0.1604 -0.3436  0.3116
  190SAPI   C3321918   0.704   1.647   5.942  0.6277  0.6371 -0.1875
  190SAPI   H3X21919   0.749   1.549   5.916 -2.7788 -1.1690  0.5202
  190SAPI   H3Y21920   0.690   1.701   5.846  1.8453  1.1608 -0.0806
  190SAPI   C3421921   0.564   1.620   6.006  0.2710 -0.8083 -0.4593
  190SAPI   H4X21922   0.523   1.719   6.035  1.0460  0.2189 -2.7280
  190SAPI   H4Y21923   0.583   1.565   6.101  1.4197 -2.0030 -1.3514
  190SAPI   C3521924   0.475   1.543   5.908  0.1359 -0.0538 -0.0603
  190SAPI   H5X21925   0.383   1.509   5.960  0.4529 -1.1866 -0.2340
  190SAPI   H5Y21926   0.533   1.455   5.874 -0.9898 -0.8040 -0.0557
  190SAPI   C3621927   0.437   1.620   5.782 -0.5358 -0.0104 -0.3198
  190SAPI   H6X21928   0.537   1.641   5.739 -0.3173 -1.4426 -0.5486
  190SAPI   H6Y21929   0.395   1.721   5.801  1.4471  1.0545 -1.4264
  190SAPI   C3721930   0.361   1.531   5.693  0.1064  0.1351 -0.7326
  190SAPI   H7X21931   0.252   1.546   5.697  0.3015  1.1529  1.1554
  190SAPI   H7Y21932   0.367   1.424   5.725  2.9627  0.0051 -1.5718
  190SAPI   C3821933   0.420   1.522   5.548  0.1274 -0.2093 -0.5126
  190SAPI   H8X21934   0.522   1.477   5.543 -0.5080 -1.3853 -3.5332
  190SAPI   H8Y21935   0.423   1.627   5.514 -1.7120 -1.4160 -4.7018
  190SAPI   C3921936   0.336   1.436   5.455  0.7146 -0.3101 -0.1873
  190SAPI   H9X21937   0.230   1.462   5.473  0.5991 -0.4330 -0.6813
  190SAPI   H9Y21938   0.368   1.335   5.488 -0.5478 -0.9772 -0.9715
  190SAPI  C31021939   0.360   1.452   5.306  0.0937 -0.1269  0.0982
  190SAPI  H10X21940   0.320   1.554   5.291 -1.3661 -0.7656 -0.5394
  190SAPI  H10Y21941   0.294   1.389   5.242 -0.4774 -1.2547  1.7543
  190SAPI  C31121942   0.509   1.427   5.252 -0.1383 -0.2133  0.3216
  190SAPI  H11X21943   0.537   1.321   5.271  1.1675 -0.2288 -1.5391
  190SAPI  H11Y21944   0.577   1.488   5.315 -1.2995  1.1744  0.2480
  190SAPI  C31221945   0.527   1.445   5.106  0.3819 -0.0114 -0.9407
  190SAPI  H12X21946   0.630   1.405   5.093  0.4451 -0.6980  1.4135
  190SAPI  H12Y21947   0.533   1.555   5.093  1.2525  0.1678  0.8902
  190SAPI  C31321948   0.449   1.364   5.010 -0.3787  0.1198 -0.5046
  190SAPI  H13X21949   0.353   1.410   4.979 -0.9640 -0.6762  0.1360
  190SAPI  H13Y21950   0.420   1.271   5.063 -0.7072  0.7053  0.3552
  190SAPI  C31421951   0.517   1.317   4.885  0.3156  0.4129 -0.5349
  190SAPI  H14X21952   0.455   1.234   4.844  0.0251 -0.0160  0.7181
  190SAPI  H14Y21953   0.610   1.262   4.911  0.5712  1.1695  0.1609
  190SAPI  C31521954   0.550   1.421   4.782 -0.0716  0.0513  0.1013
  190SAPI  H15X21955   0.633   1.484   4.819  0.7076 -0.8689 -0.0542
  190SAPI  H15Y21956   0.470   1.497   4.774 -0.0741  0.2532  1.9099
  190SAPI  C31621957   0.576   1.367   4.641 -0.3314  0.6008  0.5249
  190SAPI  H16X21958   0.543   1.261   4.643 -1.3993  0.9303  0.8551
  190SAPI  H16Y21959   0.684   1.371   4.615  0.1772 -0.2816  2.4380
  190SAPI  C31721960   0.513   1.443   4.523 -0.7422  0.7243 -0.0623
  190SAPI  H17X21961   0.570   1.538   4.509 -0.1687  0.2980 -0.6541
  190SAPI  H17Y21962   0.416   1.484   4.558 -1.5750 -2.4775  1.5534
  190SAPI  C31821963   0.514   1.372   4.388 -0.4780 -0.0169 -0.5829
  190SAPI  H18X21964   0.488   1.437   4.302 -0.4925  0.1666 -0.4376
  190SAPI  H18Y21965   0.431   1.298   4.385 -1.1715  0.7569 -0.5294
  190SAPI  H18Z21966   0.611   1.322   4.364  0.8538  1.6019  1.2713
  191SAPI   C1221967   4.479   3.956   2.130  0.6481 -0.1455 -0.4331
  191SAPI    H221968   4.415   3.931   2.217 -1.3782  4.1894 -0.5160
  191SAPI    O221969   4.411   3.947   2.004  0.1727 -0.1045 -0.2357
  191SAPI   HO221970   4.370   3.860   1.993 -1.4467  0.3597  1.8810
  191SAPI   C1321971   4.531   4.100   2.163  0.9929  0.4467  0.3021
  191SAPI    H321972   4.580   4.087   2.262  0.3654  2.7340  0.9600
  191SAPI    O321973   4.423   4.193   2.183 -0.2753  0.0260 -0.0390
  191SAPI   HO321974   4.386   4.171   2.269 -0.9191 -0.0463 -0.3320
  191SAPI   C1421975   4.627   4.144   2.049 -0.3367 -0.3003 -0.2869
  191SAPI    H421976   4.575   4.137   1.951 -0.4015 -1.3358 -0.1877
  191SAPI    O421977   4.668   4.281   2.069  0.2774  0.0846 -0.0573
  191SAPI   HO421978   4.587   4.331   2.079 -1.1184 -2.3296  1.2295
  191SAPI   C1521979   4.745   4.047   2.034  0.7327 -0.3254  0.2349
  191SAPI    H521980   4.800   4.051   2.131 -0.3299 -0.8561  0.8743
  191SAPI    O521981   4.840   4.076   1.935  0.3121 -0.0047  0.0185
  191SAPI   HO521982   4.926   4.076   1.978  0.4243  1.9342 -0.1471
  191SAPI   C1621983   4.692   3.902   2.018 -0.2673  0.4833  0.0149
  191SAPI    H621984   4.637   3.897   1.922  1.3747 -0.1130 -0.9247
  191SAPI    O621985   4.801   3.807   2.007  0.3951 -0.1134  0.0346
  191SAPI   HO621986   4.765   3.719   2.022 -0.3434 -0.2124 -2.1953
  191SAPI   C1121987   4.602   3.863   2.124  0.7451  0.1504 -0.0560
  191SAPI    H121988   4.656   3.883   2.219  0.0080  0.2268  0.3489
  191SAPI     P21989   4.493   3.625   2.234 -0.0723 -0.0285 -0.1325
  191SAPI   O1321990   4.404   3.538   2.155  0.2453  0.1719 -0.4241
  191SAPI   O1421991   4.428   3.713   2.333  0.4379  0.5347 -0.9055
  191SAPI   O1221992   4.568   3.722   2.120  0.0028  0.2106 -0.0217
  191SAPI   O1121993   4.604   3.530   2.304  0.1397  0.0985 -0.9359
  191SAPI    C121994   4.713   3.598   2.361 -0.0083  0.0110  0.4195
  191SAPI    HA21995   4.803   3.546   2.321  0.1704 -1.2433  2.3390
  191SAPI    HB21996   4.730   3.706   2.345  1.7143 -0.0897  1.3333
  191SAPI    C221997   4.716   3.588   2.518  0.0540 -0.2085 -0.4042
  191SAPI    HS21998   4.804   3.640   2.561  0.2479  0.6182 -1.7637
  191SAPI   O2121999   4.706   3.445   2.556  0.4052 -0.1625  0.1540
  191SAPI   C2122000   4.823   3.391   2.549 -0.8450  0.8030  0.3610
  191SAPI   O2222001   4.931   3.440   2.521 -0.1028 -0.0496  0.9405
  191SAPI   C2222002   4.812   3.248   2.608 -0.4665  0.2142  0.2088
  191SAPI   H2R22003   4.709   3.245   2.651 -0.7272 -0.4813 -0.4386
  191SAPI   H2S22004   4.809   3.191   2.513  0.0345  2.4764 -1.2014
  191SAPI    C322005   4.594   3.652   2.595  0.5205 -0.3413  0.4413
  191SAPI    HX22006   4.499   3.633   2.539  0.8583  0.8939 -0.5925
  191SAPI    HY22007   4.607   3.762   2.583 -1.4169 -0.2545 -1.1700
  191SAPI   O3122008   4.586   3.621   2.730 -0.5110 -0.4030  0.1937
  191SAPI   C3122009   4.471   3.661   2.786 -0.0222  0.0951 -0.1962
  191SAPI   O3222010   4.390   3.728   2.727  0.4922 -0.5762 -0.5549
  191SAPI   C3222011   4.473   3.623   2.935 -0.1908 -1.1195  0.2097
  191SAPI   H2X22012   4.522   3.701   2.995  0.3182  1.2082 -3.0968
  191SAPI   H2Y22013   4.527   3.527   2.948  2.0447 -0.1314 -1.4753
  191SAPI   C2322014   4.916   3.189   2.708  0.6210  0.2507  0.1127
  191SAPI   H3R22015   5.018   3.204   2.666  1.4562 -0.5632  1.8155
  191SAPI   H3S22016   4.905   3.079   2.713 -0.3080  0.3966  1.6957
  191SAPI   C2422017   4.918   3.241   2.851 -0.7222  0.2108 -0.6626
  191SAPI   H4R22018   4.996   3.320   2.861  0.6359 -0.9663 -1.9112
  191SAPI   H4S22019   4.957   3.164   2.921 -3.1521 -0.0309  0.5135
  191SAPI   C2522020   4.789   3.296   2.903  0.4123 -0.7174  0.5637
  191SAPI   H5R22021   4.722   3.342   2.829 -0.5082 -1.5320  0.8675
  191SAPI   C2622022   4.738   3.274   3.024  0.4513  0.4508  0.1121
  191SAPI   H6R22023   4.645   3.331   3.043  0.7888  1.7629 -2.0262
  191SAPI   C2722024   4.803   3.207   3.137 -0.2130 -0.0197 -0.1739
  191SAPI   H7R22025   4.870   3.119   3.121  1.6047  1.2514  0.3420
  191SAPI   H7S22026   4.724   3.168   3.205  1.3667 -1.0507  1.1241
  191SAPI   C2822027   4.876   3.311   3.216 -0.6819 -0.7995  1.0122
  191SAPI   H8R22028   4.950   3.367   3.158 -0.7270 -1.0234  0.7380
  191SAPI   C2922029   4.875   3.330   3.350 -0.2040 -0.4484 -0.1831
  191SAPI   H9R22030   4.943   3.410   3.380  0.5244 -0.3267 -2.0775
  191SAPI  C21022031   4.793   3.254   3.454 -0.0438 -1.1079 -0.2303
  191SAPI  H10R22032   4.741   3.167   3.410 -1.0316 -0.0946 -1.1130
  191SAPI  H10S22033   4.714   3.322   3.494  0.3362 -0.7865 -0.0125
  191SAPI  C21122034   4.869   3.199   3.572  1.2290 -0.3670 -0.6236
  191SAPI  H11R22035   4.967   3.154   3.547  2.3703  0.4834  2.1395
  191SAPI  C21222036   4.846   3.200   3.704  0.5810  0.5157  0.2830
  191SAPI  H12R22037   4.916   3.149   3.772 -0.1530 -2.2804 -0.9865
  191SAPI  C21322038   4.729   3.257   3.776  0.0978 -0.7162 -0.2993
  191SAPI  H13R22039   4.680   3.172   3.829  0.7868 -0.1121  1.3555
  191SAPI  H13S22040   4.658   3.293   3.699 -0.4296  1.9392  1.3422
  191SAPI  C21422041   4.775   3.373   3.859  0.4265 -1.3495  0.3796
  191SAPI  H14R22042   4.871   3.414   3.824 -0.4215  0.9123  0.6183
  191SAPI  C21522043   4.712   3.417   3.973 -0.2753  0.4499  0.1854
  191SAPI  H15R22044   4.760   3.500   4.026 -0.8912  0.5793  0.5564
  191SAPI  C21622045   4.588   3.347   4.034  0.3404 -0.0620  0.1623
  191SAPI  H16R22046   4.524   3.305   3.953  0.9175 -0.3973 -0.1314
  191SAPI  H16S22047   4.530   3.431   4.077 -0.4417 -0.8296  0.6121
  191SAPI  C21722048   4.613   3.251   4.157  0.9678 -0.3698  0.1021
  191SAPI  H17R22049   4.528   3.273   4.225 -0.2133 -0.3962 -1.3272
  191SAPI  H17S22050   4.705   3.267   4.218 -0.5494  0.5790  2.1842
  191SAPI  C21822051   4.609   3.099   4.117 -0.5174  0.0172  0.2140
  191SAPI  H18R22052   4.682   3.080   4.036  1.8339 -3.2823  2.9851
  191SAPI  H18S22053   4.510   3.079   4.071  0.2611 -1.6362 -0.7842
  191SAPI  C21922054   4.633   2.997   4.232  0.2289 -1.1107  0.6697
  191SAPI  H19R22055   4.554   2.921   4.216 -1.4942  0.5963  0.8444
  191SAPI  H19S22056   4.619   3.048   4.329  0.8208  0.6961 -0.1622
  191SAPI  C22022057   4.773   2.921   4.222 -0.3667 -0.1879 -0.4494
  191SAPI  H20R22058   4.865   2.980   4.240  2.5619 -4.3529 -1.0216
  191SAPI  H20S22059   4.788   2.895   4.115  0.7968 -0.3193 -0.2611
  191SAPI  H20T22060   4.764   2.825   4.278 -0.7433  0.5608  0.7926
  191SAPI   C3322061   4.326   3.611   2.990 -0.9222  0.5180  0.3888
  191SAPI   H3X22062   4.274   3.522   2.948  0.8662 -1.8768  3.1142
  191SAPI   H3Y22063   4.275   3.702   2.950 -2.2456  0.5453  2.0616
  191SAPI   C3422064   4.324   3.607   3.144  0.6837  0.0581  0.5313
  191SAPI   H4X22065   4.342   3.708   3.187 -2.0432  1.3457 -1.1893
  191SAPI   H4Y22066   4.413   3.546   3.170  0.2879 -1.0601 -0.6722
  191SAPI   C3522067   4.197   3.544   3.203 -0.2740 -0.4890  0.2730
  191SAPI   H5X22068   4.192   3.439   3.166 -0.8209 -0.0641 -0.8902
  191SAPI   H5Y22069   4.110   3.594   3.157  2.0481  0.9413 -2.7652
  191SAPI   C3622070   4.196   3.564   3.354 -0.3843  0.6215 -0.3957
  191SAPI   H6X22071   4.093   3.587   3.389 -0.2398 -0.1210  0.5365
  191SAPI   H6Y22072   4.268   3.641   3.391  1.6797 -0.4501 -2.0626
  191SAPI   C3722073   4.223   3.429   3.424 -0.0565 -0.2088  0.1564
  191SAPI   H7X22074   4.324   3.397   3.390 -0.6465 -0.9540 -0.9084
  191SAPI   H7Y22075   4.149   3.363   3.374  1.2062  0.9578 -3.4195
  191SAPI   C3822076   4.191   3.421   3.575 -0.0379 -0.7710  0.2457
  191SAPI   H8X22077   4.086   3.454   3.584 -0.1797 -0.0273 -3.1617
  191SAPI   H8Y22078   4.260   3.486   3.633 -0.8896 -1.2090  1.7570
  191SAPI   C3922079   4.211   3.282   3.648 -1.1285 -0.1198  0.5345
  191SAPI   H9X22080   4.130   3.216   3.608  0.0416 -1.2037 -0.0727
  191SAPI   H9Y22081   4.211   3.292   3.758  0.5997  1.5944  0.3939
  191SAPI  C31022082   4.341   3.209   3.628  0.2439  0.1509  0.1908
  191SAPI  H10X22083   4.423   3.269   3.672  0.5719 -0.3216  0.2216
  191SAPI  H10Y22084   4.366   3.192   3.521  1.9475  0.0569  0.5946
  191SAPI  C31122085   4.325   3.073   3.697  0.4036  0.0077 -0.4197
  191SAPI  H11X22086   4.240   3.017   3.651 -0.8030  1.5654 -0.1495
  191SAPI  H11Y22087   4.286   3.086   3.801  1.6588  1.1948 -0.0969
  191SAPI  C31222088   4.451   2.988   3.684  0.5150 -0.4707 -0.0209
  191SAPI  H12X22089   4.542   3.050   3.697  1.0958 -0.6029 -3.0922
  191SAPI  H12Y22090   4.449   2.953   3.579  1.1923 -0.5669 -0.0017
  191SAPI  C31322091   4.457   2.863   3.774  0.0489  0.3361  0.5458
  191SAPI  H13X22092   4.422   2.777   3.714 -0.2158  2.2112 -2.0791
  191SAPI  H13Y22093   4.380   2.871   3.853  0.6566  0.2067  1.1599
  191SAPI  C31422094   4.594   2.839   3.844 -0.2595  0.4700 -0.5593
  191SAPI  H14X22095   4.582   2.774   3.933 -0.2495  0.1324 -0.8012
  191SAPI  H14Y22096   4.637   2.932   3.886 -0.6891  0.0072  0.9336
  191SAPI  C31522097   4.705   2.775   3.753  0.1981  0.5393 -0.1042
  191SAPI  H15X22098   4.703   2.832   3.658  0.1177 -0.8018 -0.9305
  191SAPI  H15Y22099   4.689   2.669   3.721 -0.9222  0.7509 -0.2362
  191SAPI  C31622100   4.856   2.771   3.804  0.1330 -0.3774  0.6652
  191SAPI  H16X22101   4.893   2.872   3.830 -0.4153  0.3763 -1.3342
  191SAPI  H16Y22102   4.911   2.732   3.715 -0.0520 -0.8533  0.7603
  191SAPI  C31722103   4.870   2.675   3.931 -0.3141  0.2674  0.0047
  191SAPI  H17X22104   4.872   2.573   3.888 -4.5529  0.3510 -0.6300
  191SAPI  H17Y22105   4.780   2.677   3.996  1.5896 -3.7204  2.9807
  191SAPI  C31822106   5.005   2.694   4.010 -0.5444  0.9012 -0.0437
  191SAPI  H18X22107   5.083   2.688   3.931  0.1011 -0.9123  0.6987
  191SAPI  H18Y22108   5.030   2.606   4.073 -0.2392  1.1551  0.1882
  191SAPI  H18Z22109   5.005   2.793   4.060 -1.2144  0.9002 -0.0329
  192SAPI   C1222110   0.870   2.021   2.106 -0.4663 -0.1558 -0.6663
  192SAPI    H222111   0.973   2.044   2.138 -0.3387  0.5465 -1.5788
  192SAPI    O222112   0.880   2.013   1.962 -0.2051  0.3633 -0.4740
  192SAPI   HO222113   0.906   2.094   1.918  1.2705 -0.7700 -1.7405
  192SAPI   C1322114   0.843   1.887   2.178  0.2658 -0.8902  0.3128
  192SAPI    H322115   0.850   1.895   2.289 -0.4661  2.0889  0.1951
  192SAPI    O322116   0.942   1.785   2.148  0.1013  0.0788  0.2819
  192SAPI   HO322117   0.989   1.761   2.228  1.1123  0.1513 -0.2819
  192SAPI   C1422118   0.701   1.840   2.144 -0.1427  0.4147  0.2768
  192SAPI    H422119   0.691   1.833   2.033  0.9883 -0.9968  0.2503
  192SAPI    O422120   0.684   1.712   2.206  0.1790 -0.2610 -0.3586
  192SAPI   HO422121   0.718   1.641   2.151 -0.5618  0.9143 -2.3836
  192SAPI   C1522122   0.587   1.937   2.182 -0.8102 -0.3143  0.9874
  192SAPI    H522123   0.589   1.951   2.292  1.5974 -0.8551  1.0532
  192SAPI    O522124   0.461   1.884   2.153  0.0186 -0.1250  0.4185
  192SAPI   HO522125   0.433   1.828   2.226 -2.0661  2.3362  1.5654
  192SAPI   C1622126   0.619   2.075   2.117 -0.4253 -0.1872  0.1315
  192SAPI    H622127   0.613   2.066   2.007 -1.4064 -0.8575  0.2261
  192SAPI    O622128   0.506   2.160   2.140 -0.0057 -0.1914  0.1797
  192SAPI   HO622129   0.454   2.123   2.211  0.1827 -0.2753  0.2754
  192SAPI   C1122130   0.758   2.125   2.155  0.2320  0.8125 -0.2076
  192SAPI    H122131   0.765   2.126   2.265 -0.4322 -0.4305 -0.1468
  192SAPI     P22132   0.883   2.365   2.170  0.2712  0.1101 -0.2954
  192SAPI   O1322133   0.885   2.483   2.086  0.0617 -0.1287 -0.1933
  192SAPI   O1422134   1.018   2.307   2.198 -0.3140 -0.1350 -0.3303
  192SAPI   O1222135   0.796   2.252   2.091  0.2171 -0.1636  0.4943
  192SAPI   O1122136   0.814   2.397   2.311 -0.1476 -0.5524  0.5752
  192SAPI    C122137   0.680   2.434   2.334 -0.7119 -0.1518 -0.3803
  192SAPI    HA22138   0.663   2.541   2.312  0.7425 -0.0175 -0.8948
  192SAPI    HB22139   0.608   2.385   2.265  1.4995 -4.3999  0.1292
  192SAPI    C222140   0.641   2.395   2.476  0.6554 -0.9727 -0.2897
  192SAPI    HS22141   0.699   2.450   2.554  1.8288 -1.4782 -0.7971
  192SAPI   O2122142   0.640   2.252   2.487  0.0993 -0.7715  0.3253
  192SAPI   C2122143   0.702   2.208   2.599 -0.2440  0.1450 -0.2141
  192SAPI   O2222144   0.772   2.273   2.679  0.0175  0.4642  0.1444
  192SAPI   C2222145   0.708   2.054   2.582 -0.5887 -0.1456  0.9387
  192SAPI   H2R22146   0.608   2.013   2.608  0.9472 -2.5330  3.3665
  192SAPI   H2S22147   0.732   2.034   2.476  0.8992 -1.2854  1.4654
  192SAPI    C322148   0.495   2.437   2.508  0.8385 -0.0037  0.3573
  192SAPI    HX22149   0.431   2.383   2.435 -0.3052  0.9706  0.6227
  192SAPI    HY22150   0.486   2.545   2.482 -1.7637 -0.4115 -0.6454
  192SAPI   O3122151   0.458   2.419   2.646 -0.2641 -0.0609  0.7718
  192SAPI   C3122152   0.395   2.306   2.682  0.2603  0.2628  0.7602
  192SAPI   O3222153   0.382   2.209   2.608  0.5204 -0.0382  0.2895
  192SAPI   C3222154   0.343   2.311   2.827  0.0791  0.1803 -0.5072
  192SAPI   H2X22155   0.321   2.209   2.863  0.7469  0.8016  1.7728
  192SAPI   H2Y22156   0.240   2.353   2.832 -1.1461 -2.5965 -1.6857
  192SAPI   C2322157   0.821   1.983   2.658  0.5963  0.6600  0.0988
  192SAPI   H3R22158   0.851   2.034   2.751  1.7813  1.2068 -0.5802
  192SAPI   H3S22159   0.910   1.976   2.592  2.6025  1.4853  2.6192
  192SAPI   C2422160   0.774   1.843   2.700  0.2085 -0.6621 -0.2299
  192SAPI   H4R22161   0.732   1.794   2.610 -1.9925  1.9609 -0.7195
  192SAPI   H4S22162   0.689   1.856   2.771 -0.3675  0.3375 -1.0774
  192SAPI   C2522163   0.886   1.757   2.748  0.3765 -0.2281  0.2133
  192SAPI   H5R22164   0.966   1.750   2.673  0.9116  1.0191  0.6560
  192SAPI   C2622165   0.920   1.708   2.871 -0.6052  0.5112 -0.0287
  192SAPI   H6R22166   1.002   1.634   2.874  0.3676  1.5224 -1.2976
  192SAPI   C2722167   0.843   1.736   2.995 -0.3411  1.0643 -0.5161
  192SAPI   H7R22168   0.740   1.771   2.971 -0.8612 -0.6211 -0.8605
  192SAPI   H7S22169   0.900   1.815   3.048  1.6852 -0.6156 -0.1376
  192SAPI   C2822170   0.839   1.614   3.076  0.3831  0.8729  0.5999
  192SAPI   H8R22171   0.813   1.525   3.016  1.2512  1.0775 -0.0829
  192SAPI   C2922172   0.837   1.615   3.211 -0.5082 -0.2981  0.7468
  192SAPI   H9R22173   0.821   1.515   3.253  0.3184 -0.5950  0.3540
  192SAPI  C21022174   0.840   1.726   3.316 -0.1881 -0.0589  0.2584
  192SAPI  H10R22175   0.907   1.807   3.280  1.4661 -1.4448  0.1634
  192SAPI  H10S22176   0.896   1.682   3.401 -0.8627 -0.4792  0.4940
  192SAPI  C21122177   0.712   1.800   3.353  0.1066 -0.6618 -0.6364
  192SAPI  H11R22178   0.628   1.796   3.283 -0.7747 -0.1892  0.3789
  192SAPI  C21222179   0.688   1.884   3.456 -0.2443  0.4644  0.1763
  192SAPI  H12R22180   0.589   1.931   3.451  0.4575  1.9211 -0.5534
  192SAPI  C21322181   0.791   1.927   3.552 -0.1597 -0.6945 -0.4184
  192SAPI  H13R22182   0.798   2.037   3.539  3.1799 -0.8397 -0.3798
  192SAPI  H13S22183   0.890   1.893   3.515 -0.0386  0.9128 -1.5870
  192SAPI  C21422184   0.741   1.897   3.697 -0.2682 -0.8613  0.1251
  192SAPI  H14R22185   0.640   1.930   3.723  0.3868 -0.4235  2.1585
  192SAPI  C21522186   0.822   1.847   3.787 -0.9493  0.7205  0.0903
  192SAPI  H15R22187   0.781   1.827   3.887  0.0419  1.3961  0.6474
  192SAPI  C21622188   0.964   1.802   3.776 -0.2893  0.0067 -0.3064
  192SAPI  H16R22189   1.036   1.862   3.836 -1.4162 -0.7737  1.8538
  192SAPI  H16S22190   0.996   1.820   3.671 -0.8855  2.1089 -0.1426
  192SAPI  C21722191   0.987   1.651   3.817  0.0570 -0.7500 -1.0200
  192SAPI  H17R22192   0.965   1.633   3.925 -0.6273  2.4790 -0.5560
  192SAPI  H17S22193   1.094   1.623   3.805  0.0566 -1.1706 -0.0932
  192SAPI  C21822194   0.888   1.556   3.745 -0.0030  0.0678  0.3638
  192SAPI  H18R22195   0.907   1.564   3.636 -1.1965 -1.5686  0.0219
  192SAPI  H18S22196   0.785   1.591   3.768  0.4242 -0.1909  2.8395
  192SAPI  C21922197   0.905   1.399   3.763 -0.2019  0.2549  0.0246
  192SAPI  H19R22198   1.012   1.388   3.738 -0.3346 -0.0593 -0.4242
  192SAPI  H19S22199   0.842   1.344   3.689 -2.5725  1.0759  1.3856
  192SAPI  C22022200   0.861   1.342   3.905  0.1132 -0.0546 -0.3944
  192SAPI  H20R22201   0.888   1.235   3.914 -0.8192 -0.3908 -1.4934
  192SAPI  H20S22202   0.753   1.362   3.922  0.2191 -2.9036  4.3895
  192SAPI  H20T22203   0.926   1.387   3.982  0.0826  0.1459 -0.4840
  192SAPI   C3322204   0.441   2.373   2.930 -0.3505  0.9617  0.7524
  192SAPI   H3X22205   0.390   2.358   3.028 -0.0945  0.7045  0.8454
  192SAPI   H3Y22206   0.471   2.479   2.922  0.7036  0.5543 -0.9621
  192SAPI   C3422207   0.560   2.287   2.954 -0.8364  0.7490  0.2777
  192SAPI   H4X22208   0.635   2.282   2.873 -1.3365 -1.5858 -0.0714
  192SAPI   H4Y22209   0.529   2.184   2.982 -2.8351  0.8108 -1.6185
  192SAPI   C3522210   0.639   2.319   3.084 -0.0936 -0.2679 -0.8924
  192SAPI   H5X22211   0.568   2.317   3.169 -1.1801  0.1048 -1.7646
  192SAPI   H5Y22212   0.683   2.420   3.079 -1.0532  0.1916 -0.2646
  192SAPI   C3622213   0.754   2.215   3.101  0.1546  1.1052  0.4354
  192SAPI   H6X22214   0.809   2.230   3.006  1.5808 -0.0679  1.0379
  192SAPI   H6Y22215   0.712   2.114   3.082  1.7477  0.6566 -0.7837
  192SAPI   C3722216   0.851   2.245   3.213 -0.7654 -0.3013 -0.0972
  192SAPI   H7X22217   0.799   2.242   3.311  2.0509 -0.7086  1.4371
  192SAPI   H7Y22218   0.888   2.349   3.198  1.5138 -0.7575  1.9851
  192SAPI   C3822219   0.960   2.138   3.211  0.1628 -0.2478  0.0125
  192SAPI   H8X22220   1.025   2.149   3.121  2.0886 -2.0050  1.1323
  192SAPI   H8Y22221   0.909   2.039   3.209  1.1686 -0.8254  1.6039
  192SAPI   C3922222   1.045   2.148   3.335  0.3486 -0.1583  0.2468
  192SAPI   H9X22223   1.118   2.065   3.345 -2.0486 -2.4684 -0.8608
  192SAPI   H9Y22224   0.973   2.148   3.420  0.9506  0.7430  0.7663
  192SAPI  C31022225   1.105   2.293   3.355 -0.0225  0.3461 -0.2397
  192SAPI  H10X22226   1.036   2.376   3.380 -1.1733  0.2629 -2.9771
  192SAPI  H10Y22227   1.172   2.308   3.267 -0.6071 -1.2702 -0.9738
  192SAPI  C31122228   1.211   2.293   3.477 -0.2478 -0.5945  0.1972
  192SAPI  H11X22229   1.297   2.364   3.477  0.6495 -1.6591  0.0547
  192SAPI  H11Y22230   1.246   2.189   3.460  0.3916 -0.3051 -0.2715
  192SAPI  C31222231   1.134   2.280   3.613 -0.5824  0.2017 -0.3131
  192SAPI  H12X22232   1.078   2.184   3.611  0.2783 -0.3097 -0.1651
  192SAPI  H12Y22233   1.067   2.369   3.619 -2.8908 -1.4525 -0.7004
  192SAPI  C31322234   1.223   2.288   3.733 -0.5039 -0.3756  0.0738
  192SAPI  H13X22235   1.307   2.215   3.724  0.2743  0.4667  0.4415
  192SAPI  H13Y22236   1.168   2.255   3.824  0.2851 -2.4255 -0.1700
  192SAPI  C31422237   1.281   2.434   3.765  0.5950 -0.4331 -0.0582
  192SAPI  H14X22238   1.193   2.503   3.768 -0.6087 -1.8508 -1.5642
  192SAPI  H14Y22239   1.347   2.470   3.683  0.3230  1.0480  0.3498
  192SAPI  C31522240   1.355   2.454   3.897  0.3519  0.3213 -0.1477
  192SAPI  H15X22241   1.400   2.555   3.893 -1.0699  0.9869  0.5248
  192SAPI  H15Y22242   1.445   2.389   3.902  0.6187  0.7493  0.7618
  192SAPI  C31622243   1.273   2.438   4.026  0.0019  0.2661 -0.1772
  192SAPI  H16X22244   1.203   2.352   4.027 -0.7395  0.8601  0.5788
  192SAPI  H16Y22245   1.216   2.528   4.056  2.1003  1.1305  1.3813
  192SAPI  C31722246   1.370   2.422   4.145 -0.2074 -0.3386 -0.5526
  192SAPI  H17X22247   1.428   2.516   4.150  0.1914 -0.6262  0.2738
  192SAPI  H17Y22248   1.437   2.339   4.113  1.6213  0.8092  0.2457
  192SAPI  C31822249   1.297   2.399   4.279  0.5969  0.0542 -0.2764
  192SAPI  H18X22250   1.377   2.393   4.356 -1.1995  0.7104  1.7116
  192SAPI  H18Y22251   1.260   2.294   4.272  2.7552 -0.5442 -3.8598
  192SAPI  H18Z22252   1.222   2.473   4.314  0.6580 -0.1424  0.2827
  193SOD    SOD22253   2.337   0.162   1.665 -0.3566  0.1985  0.0401
  194SOD    SOD22254   6.951   4.686   1.520  0.2822 -0.6746 -0.4221
  195SOD    SOD22255   1.301   4.707   8.114  0.5888  0.1289 -0.3099
  196SOD    SOD22256   0.535   0.246   6.689 -1.2304  0.4108  0.0715
  197SOD    SOD22257   1.236   6.019   6.447  0.3705  0.5564 -0.1580
  198SOD    SOD22258   4.366   0.162   6.946  0.1224 -0.2132 -0.2147
  199SOD    SOD22259   5.435   0.493   6.395 -0.1065  0.3045  0.0847
  200SOD    SOD22260   5.752   6.375   0.718  0.1098 -0.7854 -0.4519
  201SOD    SOD22261   1.930   1.506   1.198  0.0038 -0.0501  0.0450
  202SOD    SOD22262   0.285   5.979   0.582 -0.3915 -0.1953  0.1955
  203SOD    SOD22263   6.847   7.092   6.808 -0.6058 -0.0271 -0.5141
  204SOD    SOD22264   2.783   0.753   7.273 -0.3638  0.6648  0.2859
  205SOD    SOD22265   2.914   3.496   0.244  0.0072  0.2428 -0.4221
  206SOD    SOD22266   5.061   4.652   7.510 -0.0279 -0.1212 -0.6427
  207SOD    SOD22267   0.410   2.626   0.493 -0.1508  0.3621  0.2039
  208SOD    SOD22268   0.372   1.894   7.341  0.0746 -0.0004 -0.1683
  209SOD    SOD22269   0.622   2.518   1.344  0.2299  0.4580 -0.0310
  210SOD    SOD22270   5.914   7.245   7.682 -0.3115 -0.1505  0.3535
  211SOD    SOD22271   1.619   5.676   8.140 -0.3789  0.5319  0.6366
  212SOD    SOD22272   2.496   5.717   1.528  0.0744  0.3011  0.0007
  213SOD    SOD22273   4.793   0.715   8.255  0.0540  0.3575  0.2649
  214SOD    SOD22274   3.543   0.141   1.135 -0.7740  0.1194 -0.6250
  215SOD    SOD22275   2.924   5.338   8.369  0.1263 -0.1925 -0.5041
  216SOD    SOD22276   4.208   2.012   6.784 -0.4725 -0.0941  0.0813
  217SOD    SOD22277   1.242   0.185   8.483 -0.2700  0.5771 -0.2004
  218SOD    SOD22278   6.533   0.858   7.211  0.0970  0.1463  0.1237
  219SOD    SOD22279   2.841   5.871   0.113  0.2814  0.1253  0.3726
  220SOD    SOD22280   1.378   1.636   0.332 -0.2539 -0.2274 -0.1204
  221SOD    SOD22281   2.525   3.151   0.018 -0.2340 -0.6753  0.0418
  222SOD    SOD22282   2.925   6.867   6.840 -0.1083 -0.6031  0.2719
  223SOD    SOD22283   7.016   6.330   0.301  0.1876 -0.4431 -0.1013
  224SOD    SOD22284   1.942   1.993   6.876 -0.2009 -0.2165  0.3956
  225SOD    SOD22285   4.124   0.272   0.178 -0.2853  0.0509 -0.2341
  226SOD    SOD22286   6.271   2.012   1.824  0.6262 -0.1576  0.2974
  227SOD    SOD22287   1.236   0.625   6.852  0.0022  0.3417  0.3800
  228SOD    SOD22288   2.303   4.191   6.805 -0.1967 -0.0951  0.6717
  229SOD    SOD22289   5.659   6.757   2.232  0.6371 -0.0178  0.3916
  230SOD    SOD22290   2.227   1.118   0.323 -0.0008  0.4641 -0.0140
  231SOD    SOD22291   3.008   1.990   7.266 -0.0424  0.0819  0.0601
  232SOD    SOD22292   2.470   3.250   6.944 -0.3861  0.8169 -0.1688
  233SOD    SOD22293   1.146   4.254   0.373  0.1767 -0.0991 -0.1556
  234CLA    CLA22294   0.866   5.600   7.620  0.2033  0.0803 -0.0747
  235CLA    CLA22295   6.045   1.226   7.230 -0.1518  0.0043 -0.4814
  236CLA    CLA22296   7.088   6.621   0.048 -0.3838 -0.2021 -0.0870
  237CLA    CLA22297   1.731   0.296   8.166 -0.8027 -0.0543  0.5557
  238CLA    CLA22298   0.641   0.821   0.169  0.0885 -0.0418 -0.4314
  239CLA    CLA22299   1.879   5.651   0.509 -0.3148 -0.5314  0.2984
  240CLA    CLA22300   4.894   6.028   1.164 -0.3190 -0.2279 -0.3365
  241CLA    CLA22301   6.344   7.155   7.370  0.2910  0.0647  0.0065
  242CLA    CLA22302   1.657   4.305   8.174  0.2199  0.2164  0.0446
  243CLA    CLA22303   2.309   5.990   0.070  0.1477 -0.2644  0.5373
  244CLA    CLA22304   2.187   3.755   8.082 -0.0848 -0.2690 -0.4863
  245CLA    CLA22305   0.383   7.269   1.434  0.1543 -0.3396 -0.5781
  246CLA    CLA22306   5.648   5.681   8.268  0.0288 -0.0715  0.1402
  247CLA    CLA22307   1.418   0.607   8.429 -0.2641  0.2820  0.2433
  248CLA    CLA22308   3.765   1.153   7.972  0.2657  0.0637 -0.6468
  249CLA    CLA22309   1.162   1.699   0.180  0.1895 -0.5200 -0.3852
  250CLA    CLA22310   2.646   1.328   7.022  0.0351  0.0817 -0.1629
  251TIP3   OH222311   1.982   4.444   7.663 -0.1506  0.2177 -0.3608
  251TIP3    H122312   2.038   4.483   7.729  0.4835  0.6943 -1.1694
  251TIP3    H222313   1.897   4.487   7.674 -0.3919 -0.5719  0.9247
  252TIP3   OH222314   3.272   2.876   6.974 -0.0390 -0.2474  0.1498
  252TIP3    H122315   3.364   2.856   6.988 -0.6201 -2.6711  0.6943
  252TIP3    H222316   3.251   2.835   6.890 -0.4799  0.8227 -0.2717
  253TIP3   OH222317   3.427   3.063   6.373 -0.7024 -0.2550 -0.3269
  253TIP3    H122318   3.396   3.108   6.295 -3.3357 -0.2488  0.6442
  253TIP3    H222319   3.367   2.988   6.383  1.0219 -1.5764  0.3962
  254TIP3   OH222320   3.452   3.601   7.107 -0.2194  0.7958  0.0157
  254TIP3    H122321   3.417   3.594   7.018  0.5644  4.0387 -0.6062
  254TIP3    H222322   3.511   3.525   7.115  0.3109  0.8907 -2.5291
  255TIP3   OH222323   2.567   5.148   7.026  0.1987  0.2890  0.1124
  255TIP3    H122324   2.570   5.208   6.952  0.2722  1.3206  0.9484
  255TIP3    H222325   2.659   5.133   7.048  0.2005 -0.6617 -0.5178
  256TIP3   OH222326   5.294   2.074   6.910  0.2506 -0.2237 -0.5628
  256TIP3    H122327   5.227   2.034   6.855 -0.8153 -0.6155  0.9630
  256TIP3    H222328   5.271   2.167   6.913  0.7665 -0.0621 -1.3853
  257TIP3   OH222329   3.439   4.440   6.801 -0.0842 -0.0929 -0.3860
  257TIP3    H122330   3.348   4.471   6.806  1.0165  3.3489 -0.5242
  257TIP3    H222331   3.481   4.498   6.737  2.6718 -0.3311  1.1354
  258TIP3   OH222332   3.181   2.720   6.749 -0.5379  0.8099  0.0387
  258TIP3    H122333   3.207   2.692   6.661 -1.2292  2.0455 -0.5753
  258TIP3    H222334   3.091   2.690   6.758 -0.6044  1.0396  0.1549
  259TIP3   OH222335   5.091   6.203   6.445  0.2667 -0.5186  0.3175
  259TIP3    H122336   5.056   6.292   6.455 -0.2483 -0.4561 -1.8845
  259TIP3    H222337   5.114   6.176   6.534  1.0993  2.0948  0.9298
  260TIP3   OH222338   3.271   2.145   6.111  0.0206  0.5866 -0.3870
  260TIP3    H122339   3.277   2.121   6.203 -0.0803  0.0364 -0.5228
  260TIP3    H222340   3.178   2.147   6.092  0.0635 -0.1152 -0.6880
  261TIP3   OH222341   4.549   1.866   6.662  0.8415  0.2001  0.1196
  261TIP3    H122342   4.534   1.943   6.717  0.9495 -1.0220  1.9095
  261TIP3    H222343   4.470   1.859   6.609  1.1105  1.9137 -0.5277
  262TIP3   OH222344   4.921   1.560   7.043  0.2454 -0.4347  0.3482
  262TIP3    H122345   4.999   1.542   6.989  1.0117  1.2675  0.8445
  262TIP3    H222346   4.905   1.478   7.089 -1.0639 -2.2804 -3.2088
  263TIP3   OH222347   4.101   2.232   6.423  0.3973 -0.6144 -0.4925
  263TIP3    H122348   4.019   2.199   6.459  0.1100 -0.1198 -0.6880
  263TIP3    H222349   4.075   2.304   6.366  1.1426  1.1224  1.2817
  264TIP3   OH222350   2.924   4.414   6.238 -0.2676 -0.6430 -0.9643
  264TIP3    H122351   2.884   4.491   6.197 -1.0167 -1.6690 -2.1837
  264TIP3    H222352   3.018   4.430   6.231 -0.4219  0.7156 -0.1251
  265TIP3   OH222353   2.995   5.791   7.933 -0.2010  0.7090  0.0750
  265TIP3    H122354   3.004   5.750   8.019 -1.7672  2.0593  0.9018
  265TIP3    H222355   3.055   5.865   7.935  2.1445 -1.0759 -1.1875
  266TIP3   OH222356   0.471   5.456   7.292  0.5660  0.1735  0.1896
  266TIP3    H122357   0.548   5.513   7.293 -0.5074  1.6611  0.6746
  266TIP3    H222358   0.451   5.445   7.199  0.6478  0.8035  0.0922
  267TIP3   OH222359   1.110   5.080   6.474 -0.5741  0.1118 -0.4293
  267TIP3    H122360   1.163   5.155   6.501 -1.0024  0.1843  0.2443
  267TIP3    H222361   1.085   5.099   6.384  3.0078 -1.3383 -1.7956
  268TIP3   OH222362   0.879   4.868   6.113 -0.2696 -0.0362 -0.3318
  268TIP3    H122363   0.881   4.963   6.122  0.3058 -0.1142  0.4620
  268TIP3    H222364   0.854   4.836   6.200 -0.4929 -0.6102 -0.6021
  269TIP3   OH222365   4.107   2.633   5.957  0.2417  0.0613 -0.0678
  269TIP3    H122366   4.042   2.683   5.908  1.2404  0.5791 -0.8913
  269TIP3    H222367   4.081   2.643   6.049  0.1978  1.7741 -0.2509
  270TIP3   OH222368   4.306   1.508   6.055 -0.3095 -0.0842  0.0476
  270TIP3    H122369   4.265   1.505   6.141 -3.1352 -0.4864 -1.2591
  270TIP3    H222370   4.382   1.449   6.063 -1.5076 -1.4568  1.7543
  271TIP3   OH222371   4.595   0.737   6.384 -0.2277 -0.5045 -0.1582
  271TIP3    H122372   4.608   0.648   6.350  1.6862  0.6952 -2.7541
  271TIP3    H222373   4.549   0.783   6.314  0.7760  1.1301  0.2283
  272TIP3   OH222374   3.329   4.217   7.001 -0.8351  0.8276  0.4052
  272TIP3    H122375   3.275   4.223   6.922  1.5773  0.7933 -1.3046
  272TIP3    H222376   3.271   4.244   7.072 -3.2907  0.0866 -1.2611
  273TIP3   OH222377   2.499   4.776   6.346  0.6591  0.2610 -0.1105
  273TIP3    H122378   2.507   4.840   6.275 -1.1651  1.1790  0.4620
  273TIP3    H222379   2.516   4.827   6.426 -0.2744 -0.0712  0.3078
  274TIP3   OH222380   3.326   6.325   8.119  0.6673 -0.1766  0.5020
  274TIP3    H122381   3.244   6.373   8.135  1.5410  1.8001 -0.8296
  274TIP3    H222382   3.366   6.318   8.206  0.3217  1.1255  0.7809
  275TIP3   OH222383   2.535   7.201   6.756  0.0308  0.4770  0.1106
  275TIP3    H122384   2.510   7.291   6.774 -1.6002  0.8304 -3.3784
  275TIP3    H222385   2.503   7.185   6.667  0.2080 -3.5712  0.6777
  276TIP3   OH222386   2.970   5.635   6.996  0.4233  0.4194  0.3280
  276TIP3    H122387   3.061   5.642   7.024  0.5730  1.8661 -0.5075
  276TIP3    H222388   2.951   5.541   7.000  1.2106  0.3176  2.8194
  277TIP3   OH222389   0.000   5.076   7.845 -0.3212 -0.7603  0.0110
  277TIP3    H122390  -0.076   5.122   7.808  1.0512  0.8644 -0.8844
  277TIP3    H222391  -0.005   5.092   7.939 -0.5207  0.2641 -0.1613
  278TIP3   OH222392   4.103   0.556   6.013 -0.0799 -0.0784  0.1168
  278TIP3    H122393   4.088   0.620   5.944  0.5387  0.0517  0.1048
  278TIP3    H222394   4.075   0.600   6.094 -1.0189 -0.3106 -0.0651
  279TIP3   OH222395   3.402   7.288   6.440  0.1563  0.6724  0.3946
  279TIP3    H122396   3.388   7.221   6.373  0.4201  0.7271  0.2817
  279TIP3    H222397   3.472   7.343   6.404  0.8987  0.1957  1.0882
  280TIP3   OH222398   3.516   7.030   5.905  0.3189 -0.6071 -0.4464
  280TIP3    H122399   3.435   7.054   5.948  1.3242 -0.2907  1.3166
  280TIP3    H222400   3.558   7.114   5.884  1.9502 -0.7268  2.1011
  281TIP3   OH222401   2.608   6.845   6.545 -0.6504 -0.3463  0.0448
  281TIP3    H122402   2.688   6.808   6.508  0.0272  0.1398  1.0021
  281TIP3    H222403   2.545   6.841   6.473 -0.4667 -2.9126 -0.0441
  282TIP3   OH222404   2.411   0.191   7.307  0.7070  0.0444  0.1951
  282TIP3    H122405   2.316   0.188   7.320  0.8163 -0.9594  0.8352
  282TIP3    H222406   2.447   0.152   7.386  1.6656  0.4682 -0.0218
  283TIP3   OH222407   1.899   5.357   6.826 -0.2655 -0.5165  0.3400
  283TIP3    H122408   1.817   5.328   6.786  0.3222 -1.0266 -0.5228
  283TIP3    H222409   1.914   5.444   6.788  0.9754 -1.5489 -1.6281
  284TIP3   OH222410   1.801   6.271   5.920  0.4681  0.8034  0.0197
  284TIP3    H122411   1.727   6.237   5.970  0.8897 -2.3807 -1.3401
  284TIP3    H222412   1.763   6.301   5.838  0.5545  0.0071 -0.3165
  285TIP3   OH222413   2.157   0.013   6.426 -0.0358  0.1668  0.2757
  285TIP3    H122414   2.112   0.023   6.342 -1.0800  0.7488  0.8893
  285TIP3    H222415   2.250   0.013   6.403 -0.3364 -1.9690 -1.1002
  286TIP3   OH222416   1.673   5.721   5.827 -0.3975  0.7396 -0.0142
  286TIP3    H122417   1.726   5.679   5.895  2.4432  0.5193 -2.2973
  286TIP3    H222418   1.599   5.662   5.815  1.2008 -1.3548  0.0039
  287TIP3   OH222419   5.575   6.765   6.408 -0.5305  0.5426  0.1775
  287TIP3    H122420   5.541   6.824   6.340  0.8672 -0.2304 -1.2090
  287TIP3    H222421   5.629   6.822   6.463  0.2423  0.7160 -0.7430
  288TIP3   OH222422   1.606   2.529   6.855  0.0832  0.1545  0.2175
  288TIP3    H122423   1.671   2.575   6.802  0.8100  0.9930  1.7943
  288TIP3    H222424   1.609   2.572   6.940 -2.7428  0.3845  0.2580
  289TIP3   OH222425   6.969   2.198   7.529  0.0931 -0.1256 -0.1456
  289TIP3    H122426   6.890   2.248   7.508  0.2265  0.0606 -0.1965
  289TIP3    H222427   6.942   2.106   7.518  0.1384 -0.0316 -1.0421
  290TIP3   OH222428   0.632   3.262   6.053  0.0671 -0.6661 -0.0287
  290TIP3    H122429   0.541   3.231   6.047 -0.2649 -0.2273  2.1738
  290TIP3    H222430   0.684   3.182   6.058 -0.4489 -0.9343  1.4319
  291TIP3   OH222431   1.965   5.115   8.299 -0.6795  0.5356  0.3349
  291TIP3    H122432   1.955   5.035   8.351  1.9577  1.8877  3.1132
  291TIP3    H222433   1.899   5.175   8.335 -1.6173  0.1333 -0.6979
  292TIP3   OH222434   0.070   5.238   6.227  0.3842  0.0707 -0.8995
  292TIP3    H122435   0.141   5.302   6.241  1.9033 -1.4541 -1.3973
  292TIP3    H222436   0.013   5.279   6.162  0.5340  1.5337 -0.1234
  293TIP3   OH222437   7.304   5.799   6.725  0.1741 -0.2350  0.5687
  293TIP3    H122438   7.250   5.779   6.801 -0.7407  0.6206  0.1690
  293TIP3    H222439   7.352   5.878   6.749 -0.7279  0.5151 -0.0071
  294TIP3   OH222440   0.227   4.932   7.250  0.1445  0.5062 -0.3205
  294TIP3    H122441   0.133   4.942   7.236 -0.0610  1.0383  1.3016
  294TIP3    H222442   0.261   4.903   7.165 -1.6600 -1.0338 -0.5510
  295TIP3   OH222443   1.203   5.882   6.847 -0.2823 -0.0596  0.1389
  295TIP3    H122444   1.120   5.858   6.889 -1.8799  1.7924 -1.8271
  295TIP3    H222445   1.209   5.977   6.858  1.4695 -0.1339  0.0125
  296TIP3   OH222446   1.779   6.536   6.565 -0.3559 -0.2151 -0.5011
  296TIP3    H122447   1.835   6.459   6.555  0.8206  0.6440 -0.5116
  296TIP3    H222448   1.756   6.560   6.475  1.5607  1.1167 -0.6533
  297TIP3   OH222449   0.709   0.088   6.755  0.3052  0.0699 -0.2237
  297TIP3    H122450   0.713   0.001   6.715  1.6780  0.0647 -0.1003
  297TIP3    H222451   0.755   0.078   6.838  1.2719  1.1296 -0.6279
  298TIP3   OH222452   0.401   0.304   7.465 -0.4826  0.4537  0.3404
  298TIP3    H122453   0.328   0.336   7.413 -1.1387  1.3147  1.7548
  298TIP3    H222454   0.375   0.321   7.556  1.2698  0.3696  0.8803
  299TIP3   OH222455   6.699   0.179   6.191 -0.1232  0.0943 -0.0107
  299TIP3    H122456   6.735   0.268   6.198  0.4779 -0.1696  0.2362
  299TIP3    H222457   6.775   0.122   6.195 -0.4847 -0.4230 -0.5029
  300TIP3   OH222458   6.278   5.488   7.104  0.6690  0.3995  0.6539
  300TIP3    H122459   6.260   5.578   7.129  0.2910  1.2126 -2.3245
  300TIP3    H222460   6.192   5.452   7.080  1.2478  0.3925 -1.5628
  301TIP3   OH222461   3.144   3.487   2.305  0.1985 -0.1559  0.1803
  301TIP3    H122462   3.174   3.573   2.275 -2.1442  0.7294  0.2469
  301TIP3    H222463   3.136   3.436   2.225 -0.6873  0.4496 -0.1274
  302TIP3   OH222464   3.356   4.177   2.128  0.1684  0.1622 -0.3088
  302TIP3    H122465   3.332   4.086   2.111  0.1367  0.3535 -1.3065
  302TIP3    H222466   3.424   4.172   2.196  1.3930 -0.7089 -1.5869
  303TIP3   OH222467   4.855   3.693   1.695 -0.0052 -0.1275  0.4306
  303TIP3    H122468   4.845   3.787   1.678  0.3309 -0.1744 -0.0529
  303TIP3    H222469   4.774   3.668   1.739 -1.0103 -0.0267 -1.3039
  304TIP3   OH222470   3.773   4.519   1.582  0.5100 -0.4319 -0.0173
  304TIP3    H122471   3.763   4.426   1.604  1.9005 -0.1353  2.0413
  304TIP3    H222472   3.843   4.549   1.639 -0.3928  2.0625 -0.1704
  305TIP3   OH222473   3.926   5.678   2.374 -0.0962  0.0180 -0.4555
  305TIP3    H122474   3.957   5.595   2.339 -1.1326  0.1914 -1.7904
  305TIP3    H222475   3.848   5.699   2.324 -1.5330  0.3706  1.8266
  306TIP3   OH222476   4.795   5.374   2.024  0.0660 -0.0492 -0.3955
  306TIP3    H122477   4.838   5.429   2.089 -0.5304 -0.4437  0.3284
  306TIP3    H222478   4.863   5.312   1.997  0.5214  0.5601 -0.6733
  307TIP3   OH222479   4.386   5.018   2.218  0.8159  0.8724 -0.1758
  307TIP3    H122480   4.295   5.045   2.208  0.3762 -0.4557  0.0919
  307TIP3    H222481   4.386   4.925   2.194  2.1439  0.9322 -0.4223
  308TIP3   OH222482   2.868   3.912   1.053  0.0388  0.7408 -0.0907
  308TIP3    H122483   2.938   3.921   0.988 -0.6557  1.1241 -0.7985
  308TIP3    H222484   2.890   3.976   1.121  0.9054  0.1618  0.1765
  309TIP3   OH222485   3.169   6.147   1.818 -0.2904  0.3025 -0.5172
  309TIP3    H122486   3.215   6.161   1.735  2.4452 -2.8964  0.3539
  309TIP3    H222487   3.239   6.145   1.884 -2.3524  2.0289  1.7941
  310TIP3   OH222488   2.925   2.654   0.720 -0.0326 -0.9530 -0.8554
  310TIP3    H122489   2.910   2.638   0.813 -0.4651 -1.0328 -0.9338
  310TIP3    H222490   2.878   2.583   0.676 -1.6001  0.2574 -1.1964
  311TIP3   OH222491   3.727   5.921   2.625  0.5672  0.3520 -0.0784
  311TIP3    H122492   3.706   5.888   2.538 -0.6837  1.3715 -0.1761
  311TIP3    H222493   3.645   5.915   2.674  2.0056 -3.4328  2.1375
  312TIP3   OH222494   2.127   6.738   8.016 -0.1183  0.0660  0.1802
  312TIP3    H122495   2.202   6.772   7.966 -0.1067  0.3801  0.4111
  312TIP3    H222496   2.071   6.697   7.950 -0.8901  1.8947 -0.3078
  313TIP3   OH222497   2.368   5.421   2.357  0.4147  0.1625  0.8559
  313TIP3    H122498   2.331   5.349   2.408  0.4974  0.5997  1.5400
  313TIP3    H222499   2.461   5.399   2.348  0.3209 -0.1148  0.5452
  314TIP3   OH222500   5.334   7.269   1.142 -0.2692 -0.2289 -0.6735
  314TIP3    H122501   5.380   7.238   1.220  0.1951  0.9574 -0.4580
  314TIP3    H222502   5.375   7.353   1.123 -0.3755 -0.5233 -2.2146
  315TIP3   OH222503   5.206   1.204   2.243  0.0636  0.3545 -0.6612
  315TIP3    H122504   5.267   1.267   2.280  0.6619 -1.4144  1.4810
  315TIP3    H222505   5.122   1.226   2.284  0.0759  0.3686 -0.6433
  316TIP3   OH222506   4.558   0.928   1.572 -0.1113 -0.2503  0.0032
  316TIP3    H122507   4.641   0.898   1.608  1.5591 -0.1416 -3.6458
  316TIP3    H222508   4.563   1.024   1.576 -0.2065 -0.2493  0.1002
  317TIP3   OH222509   6.087   3.777   2.057  0.4908 -0.2585  0.4360
  317TIP3    H122510   6.011   3.781   2.115  0.2269 -1.7703  0.2070
  317TIP3    H222511   6.160   3.759   2.115  0.6812  1.1430  0.6500
  318TIP3   OH222512   0.003   2.467   1.962  0.4656  0.5331 -0.1144
  318TIP3    H122513  -0.075   2.454   1.909 -0.5904  2.6649  0.8579
  318TIP3    H222514  -0.024   2.446   2.051  1.5877 -0.7155 -0.0419
  319TIP3   OH222515   4.425   0.801   1.795  0.4665  0.4336 -0.2130
  319TIP3    H122516   4.358   0.836   1.737  0.5609  0.8350 -0.0754
  319TIP3    H222517   4.490   0.870   1.801  0.5121  0.3452  0.2868
  320TIP3   OH222518   4.814   2.162   2.355 -0.2211  0.2745 -0.2391
  320TIP3    H122519   4.797   2.069   2.372 -0.0006  0.5232  1.5267
  320TIP3    H222520   4.884   2.162   2.290 -1.0994 -0.7845 -1.2144
  321TIP3   OH222521   6.698   1.600   2.075  0.2202  0.0420 -0.0842
  321TIP3    H122522   6.658   1.567   2.155 -0.7857  1.6854  0.1083
  321TIP3    H222523   6.748   1.525   2.041 -0.8665 -1.2367  1.0602
  322TIP3   OH222524   6.088   2.046   1.448  0.0921  0.3547  0.7204
  322TIP3    H122525   6.162   1.987   1.460 -1.0000 -1.3732 -0.7907
  322TIP3    H222526   6.014   2.000   1.487 -0.8666  0.5406 -0.8704
  323TIP3   OH222527   4.846   0.556   1.775  0.6124 -0.0646 -0.0286
  323TIP3    H122528   4.871   0.598   1.693  3.0291 -0.3207  0.5395
  323TIP3    H222529   4.863   0.621   1.842 -1.1544  0.0666  0.3002
  324TIP3   OH222530   3.751   0.660   8.182  0.4767 -0.5596 -0.8682
  324TIP3    H122531   3.752   0.712   8.101  2.3291  0.1073 -0.4373
  324TIP3    H222532   3.734   0.724   8.251 -0.5767 -1.0551 -0.6504
  325TIP3   OH222533   4.812   1.300   0.971 -0.1681 -0.2162  0.3372
  325TIP3    H122534   4.826   1.247   1.050  1.0603 -0.4311 -0.0078
  325TIP3    H222535   4.850   1.385   0.993 -0.0567 -0.1972  0.0628
  326TIP3   OH222536   4.702   5.564   2.389  0.4327  0.7762  0.3218
  326TIP3    H122537   4.704   5.651   2.350  1.4300  1.1091  1.0981
  326TIP3    H222538   4.609   5.543   2.396  0.2074  1.4759 -0.5297
  327TIP3   OH222539   4.413   6.383   2.656 -0.8153  0.2140 -0.2750
  327TIP3    H122540   4.365   6.327   2.717 -0.0768 -0.6122 -0.4441
  327TIP3    H222541   4.503   6.383   2.688 -0.4190 -0.2232 -1.3391
  328TIP3   OH222542   6.559   3.216   1.670  0.3485 -0.8552 -0.2813
  328TIP3    H122543   6.510   3.255   1.744 -0.0729  0.3311 -1.1659
  328TIP3    H222544   6.627   3.281   1.650  0.4073 -1.1377 -1.0039
  329TIP3   OH222545   6.385   2.415   1.967 -0.2656 -0.3243 -0.2556
  329TIP3    H122546   6.354   2.423   1.877  0.4084 -1.1328 -0.5714
  329TIP3    H222547   6.477   2.388   1.958  0.3285  1.3059  0.6619
  330TIP3   OH222548   0.195   3.200   2.008  0.0658  0.1746  0.3446
  330TIP3    H122549   0.183   3.294   1.994 -1.3086 -0.1349 -0.6066
  330TIP3    H222550   0.282   3.193   2.047  0.5489  1.7644 -0.4088
  331TIP3   OH222551   2.357   1.101   1.241 -0.1512  0.3461 -0.7729
  331TIP3    H122552   2.344   1.029   1.303 -0.1317  0.8989 -0.1176
  331TIP3    H222553   2.336   1.180   1.292  1.5095  0.9308 -0.9713
  332TIP3   OH222554   6.687   4.903   2.326 -0.2374 -0.0745 -0.1904
  332TIP3    H122555   6.617   4.844   2.353 -1.4023  1.2814 -0.1761
  332TIP3    H222556   6.672   4.983   2.376 -0.3684  1.2454 -2.2617
  333TIP3   OH222557   1.384   6.059   2.311 -0.2924 -0.0436  0.5472
  333TIP3    H122558   1.371   6.131   2.249 -1.7582 -0.9775 -0.2802
  333TIP3    H222559   1.296   6.023   2.325  0.4746 -2.0676  0.4220
  334TIP3   OH222560   1.199   0.210   2.200  0.4922 -0.5180  0.3274
  334TIP3    H122561   1.245   0.265   2.264  2.0358 -1.1238 -0.2577
  334TIP3    H222562   1.142   0.154   2.254 -2.9900  3.2786  0.8246
  335TIP3   OH222563   2.268   0.641   0.363  0.4886 -0.4716 -0.2053
  335TIP3    H122564   2.336   0.627   0.298 -0.2108  1.2019 -1.3142
  335TIP3    H222565   2.198   0.581   0.338  0.4079 -0.1631 -0.7129
  336TIP3   OH222566   0.519   1.270   1.803  0.0935  0.0116 -0.6303
  336TIP3    H122567   0.587   1.337   1.802  1.0519 -0.8777  1.0530
  336TIP3    H222568   0.448   1.309   1.853 -0.0214  0.3847 -1.0838
  337TIP3   OH222569   6.163   2.285   2.190 -0.7338 -0.6855 -0.8301
  337TIP3    H122570   6.245   2.241   2.208 -0.2674  0.4120 -0.2263
  337TIP3    H222571   6.108   2.266   2.266  0.2560  1.6049  0.5258
  338TIP3   OH222572   6.864   2.916   2.231 -0.2007 -0.2519  0.0083
  338TIP3    H122573   6.806   2.942   2.303 -2.4501 -0.8460 -1.5305
  338TIP3    H222574   6.853   2.821   2.224  0.8655 -0.3567 -0.4164
  339TIP3   OH222575   6.356   2.677   2.455  0.8176  0.1944  0.7283
  339TIP3    H122576   6.386   2.765   2.434  2.1160 -0.1361  1.1430
  339TIP3    H222577   6.349   2.633   2.371 -1.1447  1.0778  0.3940
  340TIP3   OH222578   4.455   0.151   1.116 -0.1194  0.5517  0.4735
  340TIP3    H122579   4.531   0.122   1.066  0.9853  0.2277  2.2971
  340TIP3    H222580   4.413   0.216   1.060  1.5610  0.8200 -0.5092
  341TIP3   OH222581   5.055   6.910   1.733  0.2909  0.0105 -0.0572
  341TIP3    H122582   5.114   6.918   1.808  0.1368 -1.0645  0.1871
  341TIP3    H222583   5.099   6.848   1.675 -0.2393 -0.2072 -0.2252
  342TIP3   OH222584   1.734   6.742   1.961 -0.2871 -0.5464  0.0856
  342TIP3    H122585   1.678   6.665   1.957 -1.6675  0.3743  1.3009
  342TIP3    H222586   1.683   6.812   1.919  0.5001 -0.0194 -0.0119
  343TIP3   OH222587   1.781   1.350   1.892  0.1306 -0.5525  0.3746
  343TIP3    H122588   1.749   1.402   1.966  0.0425 -0.6498  0.4050
  343TIP3    H222589   1.874   1.336   1.911  0.5834  1.1584 -0.5495
  344TIP3   OH222590   5.766   6.202   2.662  0.0077 -0.0223 -0.2388
  344TIP3    H122591   5.789   6.171   2.749  2.1000  0.6512 -0.5231
  344TIP3    H222592   5.783   6.126   2.605 -3.6083 -1.2272  0.1983
  345TIP3   OH222593   4.091   6.681   0.934 -0.1200  0.4729  0.5965
  345TIP3    H122594   3.998   6.706   0.939 -0.4658 -0.8495  0.8644
  345TIP3    H222595   4.138   6.759   0.962 -1.0846  1.6780 -1.0211
  346TIP3   OH222596   3.954   6.889   8.026  0.6543 -0.6788 -0.2298
  346TIP3    H122597   3.924   6.931   8.107  1.7126 -2.9473  1.3772
  346TIP3    H222598   3.875   6.886   7.971  0.5146  3.2898 -0.4204
  347TIP3   OH222599   6.826   2.640   2.220 -0.4403  0.1400 -0.0694
  347TIP3    H122600   6.882   2.566   2.196 -1.0734 -0.1179 -0.7901
  347TIP3    H222601   6.780   2.610   2.299  1.3253  0.8228  1.2631
  348TIP3   OH222602   7.205   6.125   2.446  0.2369 -0.4708  0.1810
  348TIP3    H122603   7.265   6.121   2.372 -1.2533 -0.0114 -1.0804
  348TIP3    H222604   7.182   6.034   2.463  0.1605 -0.5417 -0.2865
  349TIP3   OH222605   6.430   1.846   1.844 -0.2737  0.2607  0.1748
  349TIP3    H122606   6.505   1.860   1.902 -0.0464  0.6880 -0.2285
  349TIP3    H222607   6.407   1.754   1.857  1.0576 -0.1842 -0.5928
  350TIP3   OH222608   7.066   0.618   2.472  0.0928  0.3914  0.2428
  350TIP3    H122609   7.020   0.615   2.389 -1.0051 -1.2117  0.8818
  350TIP3    H222610   7.031   0.695   2.517 -0.6654  0.1883 -0.0036
  351TIP3   OH222611   6.666   1.089   1.960 -0.0630 -0.4499 -0.6205
  351TIP3    H122612   6.571   1.086   1.974 -0.0743 -0.1274 -0.6310
  351TIP3    H222613   6.695   0.999   1.974 -0.0575 -0.1294  1.5608
  352TIP3   OH222614   1.767   0.296   0.660 -0.3107  0.7000  0.2939
  352TIP3    H122615   1.787   0.234   0.590 -2.6475 -0.8318  0.9263
  352TIP3    H222616   1.736   0.374   0.615 -0.2423  0.3141 -0.4215
  353TIP3   OH222617   1.426   6.704   2.743  0.4790 -0.0022  0.7929
  353TIP3    H122618   1.504   6.742   2.785  1.8612 -0.0010 -1.6677
  353TIP3    H222619   1.435   6.610   2.759  0.7172  0.0413  0.9270
  354TIP3   OH222620   0.303   6.923   2.065  0.5428 -0.1298  0.0419
  354TIP3    H122621   0.281   6.887   2.152  1.3482  0.3470  0.4443
  354TIP3    H222622   0.346   7.006   2.084  4.4458 -1.8960 -0.6617
  355TIP3   OH222623   0.329   2.341   1.621  0.1630 -0.4369 -0.5570
  355TIP3    H122624   0.400   2.296   1.667  1.1864 -0.6698 -2.3121
  355TIP3    H222625   0.263   2.273   1.605 -0.8458 -0.0603  1.7428
  356TIP3   OH222626   0.711   6.284   1.223  0.3970  0.7068 -0.4029
  356TIP3    H122627   0.772   6.321   1.159  0.8852 -0.8356 -0.8657
  356TIP3    H222628   0.759   6.283   1.305  1.1132 -0.7303 -0.8179
  357TIP3   OH222629   6.476   2.062   7.342  0.0588  0.6485  0.8528
  357TIP3    H122630   6.408   2.106   7.393  1.1353  1.8574  1.2607
  357TIP3    H222631   6.453   1.970   7.346 -1.6955  1.0612  0.7897
  358TIP3   OH222632   3.105   1.778   1.083  0.2156 -0.9214 -0.5815
  358TIP3    H122633   3.184   1.741   1.045  0.6344  0.1042 -0.7232
  358TIP3    H222634   3.136   1.838   1.151 -0.4447 -0.7833 -0.3938
  359TIP3   OH222635   2.009   1.232   6.123 -0.8861  0.3509  0.2002
  359TIP3    H122636   1.959   1.156   6.094  1.6639 -0.5350 -2.1348
  359TIP3    H222637   1.975   1.305   6.072 -0.9391  0.0784 -0.1531
  360TIP3   OH222638   0.363   0.977   7.109  0.1815 -0.0304  0.2758
  360TIP3    H122639   0.416   0.987   7.030 -0.0789  2.5845  0.4101
  360TIP3    H222640   0.287   0.925   7.081  0.0658  0.9253 -1.2140
  361TIP3   OH222641   0.570   1.917   6.681  0.4679  0.3230 -0.1381
  361TIP3    H122642   0.624   1.894   6.606  0.2445 -1.4912  0.2423
  361TIP3    H222643   0.523   1.996   6.654 -0.7205 -1.1384 -2.4473
  362TIP3   OH222644   7.039   1.745   0.026  0.6993  0.3807 -0.1059
  362TIP3    H122645   6.982   1.719   0.099  0.1469  0.8696 -0.3552
  362TIP3    H222646   6.978   1.767  -0.045  1.1978  0.9504 -0.3592
  363TIP3   OH222647   0.601   0.244   6.462  0.6659 -0.1130  0.0923
  363TIP3    H122648   0.577   0.166   6.411 -0.8725  0.8148 -0.6408
  363TIP3    H222649   0.658   0.294   6.403  1.1747 -0.3903  0.3446
  364TIP3   OH222650   0.882   2.833   6.553  0.0844  0.0018 -0.2377
  364TIP3    H122651   0.854   2.741   6.549  0.9471 -0.2697 -0.3004
  364TIP3    H222652   0.948   2.841   6.483 -1.4671  1.2070 -1.5939
  365TIP3   OH222653   0.376   2.112   6.601 -0.6814 -0.1105 -0.4262
  365TIP3    H122654   0.432   2.175   6.556  0.1054 -0.7654 -0.3767
  365TIP3    H222655   0.288   2.132   6.570 -0.2377 -0.0668 -1.7003
  366TIP3   OH222656   3.084   7.227   7.446 -0.5788 -0.5554  0.6109
  366TIP3    H122657   3.011   7.275   7.408 -0.7274 -0.9931  0.3403
  366TIP3    H222658   3.091   7.260   7.535 -0.3324  0.3566  0.2580
  367TIP3   OH222659   0.996   4.270   0.198 -0.0255 -0.2090  0.5574
  367TIP3    H122660   0.973   4.178   0.212 -2.1907  0.3648  0.9353
  367TIP3    H222661   0.984   4.283   0.104 -1.1489  0.0722  0.7436
  368TIP3   OH222662   7.230   1.513   7.423  0.4019  0.3831 -0.2426
  368TIP3    H122663   7.182   1.592   7.398 -1.7178 -0.8045 -0.0634
  368TIP3    H222664   7.227   1.458   7.344 -1.1891 -0.9256  0.6803
  369TIP3   OH222665   2.711   5.977   6.447  0.3573  0.4184  0.1011
  369TIP3    H122666   2.792   5.992   6.398  0.4405  0.4832  0.2595
  369TIP3    H222667   2.739   5.936   6.528  0.2457  0.5826  0.2245
  370TIP3   OH222668   6.736   7.276   6.438 -0.2806  0.2332 -0.2978
  370TIP3    H122669   6.829   7.262   6.419 -0.6902 -2.1337 -0.6571
  370TIP3    H222670   6.696   7.290   6.352 -0.3180  0.9497 -0.1684
  371TIP3   OH222671   2.511   1.214   7.964 -0.3739 -0.0890  0.0950
  371TIP3    H122672   2.550   1.301   7.967  1.0618 -0.6623 -1.1188
  371TIP3    H222673   2.506   1.187   8.056  0.1270  0.8514  0.4086
  372TIP3   OH222674   2.117   0.557   8.452 -0.0611 -0.5232 -0.7970
  372TIP3    H122675   2.032   0.577   8.492 -0.5319 -0.8029 -1.6583
  372TIP3    H222676   2.106   0.577   8.360  1.0903  0.2868 -0.7667
  373TIP3   OH222677   5.976   1.251   6.939 -0.0595 -0.3164 -0.2726
  373TIP3    H122678   5.927   1.169   6.950 -0.2641 -0.0628  0.8845
  373TIP3    H222679   6.012   1.268   7.026  0.2449  0.6531 -0.5841
  374TIP3   OH222680   0.606   1.230   6.088  0.2386  0.0550  0.6169
  374TIP3    H122681   0.635   1.175   6.016  0.7944 -0.6095  1.3353
  374TIP3    H222682   0.650   1.193   6.165 -0.4667  0.6587  1.3130
  375TIP3   OH222683   5.716   2.670   7.092 -0.7828  0.0582  0.4930
  375TIP3    H122684   5.627   2.695   7.072 -0.8159  0.0056  0.5697
  375TIP3    H222685   5.713   2.574   7.098 -0.9633  0.1257  1.6316
  376TIP3   OH222686   2.906   6.232   6.661 -0.3302  0.2693  0.3357
  376TIP3    H122687   2.934   6.283   6.585 -1.4627  3.7508  2.1673
  376TIP3    H222688   2.988   6.195   6.695  0.5055  0.7014 -1.1332
  377TIP3   OH222689   1.905   6.659   7.496  0.9892  0.0065 -0.1198
  377TIP3    H122690   1.944   6.581   7.457 -1.5228 -0.4248 -1.9094
  377TIP3    H222691   1.831   6.625   7.548 -0.5759  1.2179 -1.5046
  378TIP3   OH222692   0.864   2.000   7.953  0.3150  0.5829 -0.2818
  378TIP3    H122693   0.839   2.087   7.984  0.2886  0.3256  0.4097
  378TIP3    H222694   0.949   1.984   7.992  0.3082  0.2818 -0.3897
  379TIP3   OH222695   7.033   0.837   6.604 -0.3214 -0.4324 -0.1736
  379TIP3    H122696   6.966   0.802   6.545 -1.2593  0.6646  0.2112
  379TIP3    H222697   7.067   0.914   6.559  2.0381 -2.0549 -1.2135
  380TIP3   OH222698   1.640   1.270   8.262  0.0391  0.2325  0.2075
  380TIP3    H122699   1.574   1.316   8.212  0.8014 -0.3838 -1.3895
  380TIP3    H222700   1.622   1.177   8.247  1.5829  0.0603 -0.6932
  381TIP3   OH222701   7.266   0.038   7.980 -0.1418 -0.5218 -0.3433
  381TIP3    H122702   7.319  -0.037   8.008  1.5130  0.2696 -1.2644
  381TIP3    H222703   7.295   0.110   8.036 -0.1858 -0.0702 -0.8941
  382TIP3   OH222704   6.914   6.566   8.062  0.0664  0.6311  0.1352
  382TIP3    H122705   6.918   6.555   8.157  0.2693  1.9080  0.2818
  382TIP3    H222706   6.826   6.598   8.044  0.4730  1.7318  0.0473
  383TIP3   OH222707   0.126   2.006   8.273 -0.1992 -0.1631  0.2441
  383TIP3    H122708   0.067   2.040   8.206  1.6242  1.3320 -0.6436
  383TIP3    H222709   0.183   2.080   8.295  0.5702 -1.2331  1.9470
  384TIP3   OH222710   1.029   1.806   7.154  0.5231 -0.2428 -0.3744
  384TIP3    H122711   0.999   1.874   7.214  0.1585 -0.9392  0.2418
  384TIP3    H222712   1.087   1.851   7.093  0.9391  0.4659  0.5399
  385TIP3   OH222713   2.752   7.162   0.031  0.6631 -0.4281  0.3483
  385TIP3    H122714   2.709   7.136   0.112  1.4080 -0.7912  0.6350
  385TIP3    H222715   2.685   7.208  -0.019 -0.0977 -1.1638  0.7016
  386TIP3   OH222716   1.203   0.766   8.096 -0.1230 -0.1513 -0.3337
  386TIP3    H122717   1.127   0.788   8.043 -2.0344  0.1598  2.4448
  386TIP3    H222718   1.186   0.807   8.181  0.9631 -3.9331  1.7960
  387TIP3   OH222719   0.898   1.084   6.566 -0.2725  0.9536 -0.1638
  387TIP3    H122720   0.824   1.123   6.611 -0.3677  1.5340 -0.8156
  387TIP3    H222721   0.869   0.996   6.542 -0.1479  0.5652  1.0765
  388TIP3   OH222722   0.121   7.299   7.314 -0.4887 -0.1262 -0.3393
  388TIP3    H122723   0.201   7.297   7.366 -0.0071 -0.8744 -1.0797
  388TIP3    H222724   0.075   7.378   7.342 -0.4344 -0.7161  1.4808
  389TIP3   OH222725   1.333   1.810   8.125  0.3125  0.1668  0.0935
  389TIP3    H122726   1.330   1.837   8.217  3.0620 -0.1263  0.3261
  389TIP3    H222727   1.303   1.886   8.076 -1.9717  0.0472  1.2544
  390TIP3   OH222728   1.201   2.412   6.856  0.8409  0.0191 -0.5300
  390TIP3    H122729   1.264   2.470   6.813  1.0768  0.6093  0.5909
  390TIP3    H222730   1.146   2.470   6.909  0.5417 -0.6870 -0.0519
  391TIP3   OH222731   5.805   0.803   7.584 -0.0440 -0.2039 -0.6119
  391TIP3    H122732   5.849   0.877   7.541  2.0496 -1.0697  0.0086
  391TIP3    H222733   5.811   0.823   7.678 -0.7212 -0.4763 -0.5093
  392TIP3   OH222734   1.434   1.754   7.253  0.1236  0.2870  0.1317
  392TIP3    H122735   1.371   1.720   7.189  2.8194 -2.3076 -1.2389
  392TIP3    H222736   1.403   1.721   7.337 -1.5765  0.9367 -0.2063
  393TIP3   OH222737   1.238   1.888   6.997  0.0819 -0.1895 -0.1051
  393TIP3    H122738   1.304   1.848   6.940  0.1415 -1.0443  0.5586
  393TIP3    H222739   1.270   1.977   7.013 -0.9971  0.8175 -3.1593
  394TIP3   OH222740   2.715   0.212   7.894 -0.0969  0.0835  0.1919
  394TIP3    H122741   2.656   0.259   7.954 -1.7351 -0.1679 -1.1962
  394TIP3    H222742   2.705   0.257   7.810 -0.7001 -1.9123 -0.8352
  395TIP3   OH222743   5.498   7.042   6.856 -0.0529 -0.3937  0.3986
  395TIP3    H122744   5.480   7.136   6.867  1.3075  0.2462 -2.4575
  395TIP3    H222745   5.414   7.004   6.833 -0.0307  0.6835 -1.5980
  396TIP3   OH222746   0.068   0.285   6.692 -0.0672  0.7495  0.3749
  396TIP3    H122747   0.045   0.199   6.727 -1.0548  0.0956 -1.7857
  396TIP3    H222748  -0.016   0.331   6.684  0.2050  1.1355 -0.4029
  397TIP3   OH222749   6.445   2.619   7.052  0.4354 -0.2575 -0.4988
  397TIP3    H122750   6.418   2.664   6.972 -2.4257  1.7189  1.4667
  397TIP3    H222751   6.493   2.686   7.102  0.1347 -0.7487  0.4556
  398TIP3   OH222752   0.970   2.029   7.324 -0.0359  0.4375  0.1580
  398TIP3    H122753   1.043   2.091   7.329  0.1820  0.1983 -0.0006
  398TIP3    H222754   0.904   2.075   7.271  0.1937  0.4649 -0.1051
  399TIP3   OH222755   3.391   3.774   0.216 -0.2270  0.2920 -0.2293
  399TIP3    H122756   3.388   3.864   0.250 -0.8165  1.2829 -2.7898
  399TIP3    H222757   3.440   3.726   0.282 -1.9834  1.9537  2.3828
  400TIP3   OH222758   0.849   3.133   7.154 -0.0056  0.1466 -0.5324
  400TIP3    H122759   0.841   3.038   7.170  0.5474  0.0625 -0.7639
  400TIP3    H222760   0.779   3.171   7.207 -0.9032 -0.4725 -1.2384
  401TIP3   OH222761   0.441   2.766   6.413 -0.2139  0.0806  0.4891
  401TIP3    H122762   0.505   2.819   6.365 -0.3847 -0.1471 -0.0016
  401TIP3    H222763   0.356   2.795   6.380 -0.3379  0.0045  0.7427
  402TIP3   OH222764   1.070   2.177   6.383  0.4653  0.1407  0.2544
  402TIP3    H122765   1.134   2.158   6.313  1.1675 -0.5460  1.0769
  402TIP3    H222766   1.099   2.124   6.457 -1.3355 -0.5108  0.5016
  403TIP3   OH222767   1.669   1.821   6.203 -0.0521 -0.3613 -0.1889
  403TIP3    H122768   1.713   1.905   6.219 -0.2084  0.1468 -2.2799
  403TIP3    H222769   1.740   1.763   6.175 -0.2761 -0.2871 -0.9300
  404TIP3   OH222770   0.454   0.963   8.447 -0.2371  0.8287 -0.0979
  404TIP3    H122771   0.488   1.048   8.422 -0.3017  0.8930  0.0335
  404TIP3    H222772   0.507   0.938   8.523  0.0727  0.5588 -0.3974
  405TIP3   OH222773   6.263   1.195   6.943  0.1711 -0.7369  0.1643
  405TIP3    H122774   6.169   1.180   6.934 -0.1623  2.2350 -1.6510
  405TIP3    H222775   6.273   1.232   7.031 -0.1892 -2.0307  0.7687
  406TIP3   OH222776   0.638   1.908   8.214 -0.3808 -0.1074 -0.3691
  406TIP3    H122777   0.706   1.973   8.224 -0.0709 -0.3700 -0.7582
  406TIP3    H222778   0.671   1.848   8.147 -0.0794 -1.4139  0.8970
  407TIP3   OH222779   1.833   7.251   7.964  0.8475 -0.5552 -0.6606
  407TIP3    H122780   1.789   7.229   8.046 -0.2054  0.2673 -0.9970
  407TIP3    H222781   1.916   7.292   7.991 -0.4756  1.7224  0.0394
  408TIP3   OH222782   0.297   0.658   7.442  0.3331  0.1551 -0.0439
  408TIP3    H122783   0.376   0.638   7.491 -0.8725  0.4143  2.0945
  408TIP3    H222784   0.257   0.731   7.490 -0.5908  0.8047 -1.7604
  409TIP3   OH222785   0.721   0.685   8.391 -0.5292 -0.3724  0.0459
  409TIP3    H122786   0.710   0.730   8.475 -1.9242  0.5191 -0.5915
  409TIP3    H222787   0.638   0.700   8.346  0.4169 -0.4024 -1.7109
  410TIP3   OH222788   0.255   1.242   6.844 -0.3251  1.0358  0.1266
  410TIP3    H122789   0.168   1.267   6.875 -1.0147  1.4263 -2.0810
  410TIP3    H222790   0.259   1.147   6.858 -1.8879  0.6882 -1.6192
  411TIP3   OH222791   2.496   0.129   8.202 -0.1394 -0.1176 -0.1888
  411TIP3    H122792   2.440   0.205   8.218 -0.9870 -0.7237 -0.2542
  411TIP3    H222793   2.478   0.069   8.275  0.8014 -0.1065  0.0639
  412TIP3   OH222794   0.489   2.503   6.463 -0.1847  0.0715  0.3376
  412TIP3    H122795   0.475   2.595   6.443 -1.4640 -0.2138 -0.1726
  412TIP3    H222796   0.455   2.457   6.387  1.9840 -0.7756 -0.1487
  413TIP3   OH222797   3.091   1.898   7.746 -0.5515  0.2442  0.3349
  413TIP3    H122798   3.036   1.955   7.799 -0.6478 -0.5779  1.1292
  413TIP3    H222799   3.160   1.955   7.712 -2.7501  1.6445 -1.9857
  414TIP3   OH222800   0.494   0.157   7.844  0.3313 -0.2131 -0.6046
  414TIP3    H122801   0.467   0.068   7.865  1.1552 -0.9230 -2.4505
  414TIP3    H222802   0.449   0.212   7.908  0.2302 -1.9903  0.8905
  415TIP3   OH222803   6.435   1.123   6.588 -0.1501  0.2360 -0.0833
  415TIP3    H122804   6.494   1.063   6.634  0.4795  0.7608 -0.2055
  415TIP3    H222805   6.454   1.209   6.625 -0.4879  0.4827 -0.4766
  416TIP3   OH222806   1.189   1.367   7.378 -0.1008 -0.4406 -0.5070
  416TIP3    H122807   1.281   1.341   7.388  0.1959  0.5740 -0.5212
  416TIP3    H222808   1.149   1.345   7.462  0.9563  2.2539  0.7672
  417TIP3   OH222809   7.165   0.950   6.844 -0.9557 -0.6598  0.0606
  417TIP3    H122810   7.216   0.999   6.780 -3.1779  1.9054  0.2077
  417TIP3    H222811   7.102   0.900   6.792 -1.6097  0.0824  0.1291
  418TIP3   OH222812   1.861   5.575   7.246 -0.4474  0.2132  0.2472
  418TIP3    H122813   1.877   5.662   7.283  0.8501 -0.6397  1.7640
  418TIP3    H222814   1.770   5.579   7.214 -0.4375  2.0746  0.3746
  419TIP3   OH222815   0.374   7.271   0.493  0.3474 -0.2392  0.0381
  419TIP3    H122816   0.391   7.178   0.480 -1.4057 -0.5791 -0.0073
  419TIP3    H222817   0.446   7.302   0.548  1.5482 -1.3610 -0.8861
  420TIP3   OH222818   1.015   1.030   6.282 -0.2486  0.3935  0.2956
  420TIP3    H122819   0.920   1.032   6.293 -0.3842 -0.4225 -0.6457
  420TIP3    H222820   1.046   0.971   6.351 -0.5771 -0.5448 -0.3562
  421TIP3   OH222821   1.253   2.195   6.162  1.2299 -0.1101  0.0638
  421TIP3    H122822   1.219   2.111   6.132  2.1564  0.1608 -1.8427
  421TIP3    H222823   1.202   2.260   6.114  0.7705  0.4174  1.2554
  422TIP3   OH222824   0.788   1.305   7.443  0.3386 -0.1058  0.0317
  422TIP3    H122825   0.843   1.366   7.493  0.2184  0.2479 -0.2635
  422TIP3    H222826   0.732   1.362   7.391 -0.0520 -0.4728  0.0552
  423TIP3   OH222827   6.686   1.351   6.968 -0.3881  0.6283 -0.2413
  423TIP3    H122828   6.777   1.362   6.994 -0.0622  1.9533 -1.7836
  423TIP3    H222829   6.636   1.395   7.036  0.1837  0.4902  0.2681
  424TIP3   OH222830   0.764   0.571   6.878  0.5244 -0.2017  0.4629
  424TIP3    H122831   0.685   0.530   6.841  1.0498 -0.4064 -0.4393
  424TIP3    H222832   0.741   0.588   6.969 -0.4521 -0.5706  0.2950
  425TIP3   OH222833   1.298   7.160   7.344 -0.2633 -0.4579  0.6535
  425TIP3    H122834   1.295   7.241   7.393  2.1260 -0.8057  1.4137
  425TIP3    H222835   1.380   7.164   7.294 -1.1241 -1.4864 -0.9012
  426TIP3   OH222836   6.509   6.605   6.441  0.1626  0.2143  0.0208
  426TIP3    H122837   6.495   6.623   6.348 -2.3841 -1.0904  0.1055
  426TIP3    H222838   6.425   6.572   6.472  1.4604 -0.9930  2.4042
  427TIP3   OH222839   0.731   0.992   5.985  0.1742 -0.1958  0.0061
  427TIP3    H122840   0.723   0.923   6.051  0.7700  0.0921  0.3842
  427TIP3    H222841   0.823   1.017   5.987 -0.1079  0.8597  0.1148
  428TIP3   OH222842   0.975   1.505   7.524 -0.3609  0.0803 -0.5276
  428TIP3    H122843   1.024   1.510   7.442  2.7090 -0.2247  1.2219
  428TIP3    H222844   1.030   1.549   7.588 -2.3564 -0.3567  1.5653
  429TIP3   OH222845   1.038   2.539   7.309  0.0636 -0.1809  0.7236
  429TIP3    H122846   0.947   2.515   7.328 -0.4795  0.2687 -1.2402
  429TIP3    H222847   1.088   2.460   7.332 -1.0982 -1.2850 -0.4268
  430TIP3   OH222848   1.466   1.366   7.519 -0.6161  0.2751  0.5778
  430TIP3    H122849   1.533   1.414   7.470 -1.8508  0.9568 -0.4973
  430TIP3    H222850   1.462   1.409   7.604 -0.3289  0.8096  0.3220
  431TIP3   OH222851   0.971   0.250   6.644  0.6671  0.1312 -0.5352
  431TIP3    H122852   1.017   0.214   6.721  0.8967  1.4480 -0.0498
  431TIP3    H222853   0.995   0.190   6.573  0.3912 -1.1512  0.4209
  432TIP3   OH222854   7.188   0.650   7.325  0.2448 -0.2716 -0.2320
  432TIP3    H122855   7.158   0.569   7.284  0.5482 -0.4477 -0.1075
  432TIP3    H222856   7.193   0.630   7.418  0.7818 -0.2539 -0.2546
  433TIP3   OH222857   2.125   2.114   7.883  0.0028 -0.3127  0.3177
  433TIP3    H122858   2.095   2.193   7.838  0.3858  0.3316  1.1802
  433TIP3    H222859   2.219   2.109   7.863 -0.0974 -0.7662 -0.0509
  434TIP3   OH222860   0.694   3.048   6.837 -0.3072  0.2282 -0.6373
  434TIP3    H122861   0.785   3.044   6.866 -0.6712  0.8588  0.6521
  434TIP3    H222862   0.692   2.999   6.755  1.1349 -0.0201 -0.5319
  435TIP3   OH222863   1.422   0.982   6.294 -0.1821  0.6726 -0.2849
  435TIP3    H122864   1.493   0.926   6.264 -0.3016  0.3752 -0.0268
  435TIP3    H222865   1.425   1.059   6.237 -1.3244 -0.5288 -2.0271
  436TIP3   OH222866   2.538   1.045   6.967 -0.0379 -0.1468  0.5812
  436TIP3    H122867   2.445   1.026   6.972 -0.3173  0.6992 -1.0783
  436TIP3    H222868   2.544   1.140   6.973  0.6528 -0.1401 -0.0469
  437TIP3   OH222869   0.279   0.467   6.619 -0.3653 -0.1284 -0.2511
  437TIP3    H122870   0.291   0.520   6.698  1.2405 -1.3577  0.3534
  437TIP3    H222871   0.218   0.398   6.645 -2.7252  1.5296 -1.1315
  438TIP3   OH222872   0.636   0.475   6.634 -0.3457  0.1898 -0.2828
  438TIP3    H122873   0.729   0.463   6.615 -0.4090 -0.8478  0.0017
  438TIP3    H222874   0.611   0.554   6.587  0.3157 -0.3921 -1.6224
  439TIP3   OH222875   6.609   1.091   0.718 -0.2556  0.6391 -0.4438
  439TIP3    H122876   6.612   1.011   0.771 -2.2044 -0.6424 -2.2134
  439TIP3    H222877   6.524   1.129   0.737 -0.4313  0.8571 -1.6500
  440TIP3   OH222878   0.319   2.583   7.963 -0.2275  0.3645  0.6805
  440TIP3    H122879   0.366   2.620   7.888  0.5166 -0.5269  0.7018
  440TIP3    H222880   0.384   2.529   8.008 -1.8203 -2.5993 -0.5016
  441TIP3   OH222881   0.022   1.908   7.708 -0.7870  0.0308 -0.1976
  441TIP3    H122882  -0.046   1.975   7.718 -1.3752 -0.2404 -2.2112
  441TIP3    H222883   0.070   1.934   7.629  0.7558 -0.3971  0.5721
  442TIP3   OH222884   1.383   2.659   0.237  0.5932 -0.2384 -0.2458
  442TIP3    H122885   1.455   2.614   0.281  1.5422  1.3710 -0.1337
  442TIP3    H222886   1.390   2.750   0.266  0.6267  0.6543 -2.9921
  443TIP3   OH222887   6.894   7.285   7.621 -0.1553  0.5139 -0.3276
  443TIP3    H122888   6.838   7.221   7.576 -0.3858 -0.1816  0.9456
  443TIP3    H222889   6.975   7.238   7.640 -0.3369  0.5911  0.6388
  444TIP3   OH222890   1.390   1.831   6.295  0.1806 -0.1778 -0.9234
  444TIP3    H122891   1.459   1.876   6.247 -0.1552 -0.1063 -1.3378
  444TIP3    H222892   1.407   1.738   6.281 -0.1051 -0.1521 -1.4461
  445TIP3   OH222893   0.477   2.889   1.257 -0.1818 -0.0186  0.4462
  445TIP3    H122894   0.512   2.978   1.260  2.3286 -0.7813 -2.7308
  445TIP3    H222895   0.552   2.832   1.275 -1.0749 -1.5314 -0.4307
  446TIP3   OH222896   2.147   0.232   7.344 -0.2683  0.2266  0.9482
  446TIP3    H122897   2.155   0.172   7.417 -0.3565 -0.3213  0.5108
  446TIP3    H222898   2.104   0.310   7.381 -0.3271 -0.0522  1.4672
  447TIP3   OH222899   2.356   0.111   7.906 -0.3845  0.2754 -0.0673
  447TIP3    H122900   2.414   0.051   7.952 -0.7643  0.7181  1.0046
  447TIP3    H222901   2.299   0.055   7.854 -1.4984 -0.3610  1.8138
  448TIP3   OH222902   0.511   1.265   8.321 -0.1329 -0.1450  0.3880
  448TIP3    H122903   0.586   1.208   8.308 -2.1248 -2.9773  0.7313
  448TIP3    H222904   0.500   1.268   8.417 -0.1736  0.6353  0.3602
  449TIP3   OH222905   2.394   2.583   8.438  0.2084 -0.0930  0.4120
  449TIP3    H122906   2.394   2.653   8.373 -0.3491 -0.6564 -0.1994
  449TIP3    H222907   2.347   2.511   8.396  1.9387 -1.3216  0.4997
  450TIP3   OH222908   2.934   0.583   7.356 -0.8318 -0.1230 -0.6751
  450TIP3    H122909   2.910   0.556   7.444 -1.0744  0.0566 -0.6861
  450TIP3    H222910   2.930   0.502   7.304 -0.4663 -0.2694 -0.4751
  451TIP3   OH222911   2.936   6.160   6.312  0.0832 -0.4774 -0.0705
  451TIP3    H122912   2.981   6.238   6.346 -0.4311  1.1492 -2.9857
  451TIP3    H222913   3.005   6.095   6.302  0.7919  0.1065  0.8881
  452TIP3   OH222914   4.060   4.154   0.194 -0.1889  0.1602  0.1573
  452TIP3    H122915   4.150   4.141   0.163 -0.1992  0.0941  0.1561
  452TIP3    H222916   4.025   4.066   0.206 -0.5512  0.1815 -0.7030
  453TIP3   OH222917   0.115   0.494   8.403  0.6208 -0.3262 -0.7958
  453TIP3    H122918   0.210   0.499   8.413  0.5375 -0.0892 -0.0935
  453TIP3    H222919   0.080   0.545   8.476 -0.0627 -1.3563 -0.3816
  454TIP3   OH222920   5.607   7.260   8.337  0.6671  0.0381 -0.9452
  454TIP3    H122921   5.667   7.198   8.378  0.6735  0.5716 -0.1346
  454TIP3    H222922   5.645   7.276   8.251 -0.7738 -3.1715 -2.2722
  455TIP3   OH222923   1.217   0.843   6.416 -0.5235  0.0223 -0.1370
  455TIP3    H122924   1.180   0.771   6.365 -0.4114  1.1090 -1.8150
  455TIP3    H222925   1.288   0.877   6.361 -0.9167  1.7370  0.3805
  456TIP3   OH222926   0.622   2.318   0.254  0.0002 -0.4330  0.0475
  456TIP3    H122927   0.590   2.407   0.237 -0.6843 -0.8129 -0.7016
  456TIP3    H222928   0.713   2.330   0.279  0.1764  0.4116 -0.9618
  457TIP3   OH222929   1.592   1.625   8.079 -1.0037  0.2117 -0.1797
  457TIP3    H122930   1.503   1.616   8.045 -1.4295 -0.6039  1.1133
  457TIP3    H222931   1.581   1.629   8.174  0.4128 -0.8368  0.0458
  458TIP3   OH222932   0.950   2.926   7.361  0.3092 -1.2122 -0.1611
  458TIP3    H122933   0.949   2.877   7.279 -0.9467  0.7081 -1.3453
  458TIP3    H222934   1.019   2.991   7.349  0.1816 -0.9850  0.3273
  459TIP3   OH222935   1.912   0.452   7.481  0.0696  0.2395 -0.5733
  459TIP3    H122936   1.928   0.441   7.575  0.1961 -0.9797 -0.7259
  459TIP3    H222937   1.830   0.406   7.466  0.2133  0.1648 -1.1202
  460TIP3   OH222938   4.157   2.636   7.140  0.2432  0.0659 -0.6201
  460TIP3    H122939   4.176   2.662   7.230 -1.4609 -0.8616  0.0437
  460TIP3    H222940   4.065   2.608   7.143 -0.7339  2.7509 -3.2467
  461TIP3   OH222941   0.362   1.357   6.188 -0.0584  0.5978 -0.3546
  461TIP3    H122942   0.360   1.452   6.203 -1.8679  0.8791 -2.1068
  461TIP3    H222943   0.444   1.342   6.141 -1.4736  1.8798 -3.3641
  462TIP3   OH222944   1.104   2.012   0.142  0.0636 -0.6306  0.3937
  462TIP3    H122945   1.115   1.917   0.144  0.6953 -0.5565  0.3148
  462TIP3    H222946   1.039   2.030   0.211  2.1175 -0.8313  2.4422
  463TIP3   OH222947   2.819   7.043   8.225  0.4596  0.2545 -0.3951
  463TIP3    H122948   2.855   7.011   8.308 -0.4133  0.2079 -0.0364
  463TIP3    H222949   2.843   7.136   8.224  0.9468  0.1331 -0.3475
  464TIP3   OH222950   0.988   0.510   7.398  1.2201  0.5740 -0.3579
  464TIP3    H122951   0.903   0.474   7.421  2.0463 -0.9242  0.4181
  464TIP3    H222952   0.993   0.500   7.303  0.9720 -0.3415 -0.2845
  465TIP3   OH222953   2.115   0.278   7.077  0.0808  0.5777  0.8140
  465TIP3    H122954   2.131   0.256   7.169 -0.0962 -0.6989  0.5388
  465TIP3    H222955   2.202   0.301   7.043  0.0616  1.6460  1.4407
  466TIP3   OH222956   0.042   1.317   7.002  0.1755  0.1799  0.3022
  466TIP3    H122957   0.032   1.400   6.956 -1.4553 -0.1621 -0.0066
  466TIP3    H222958  -0.047   1.282   7.007  0.8714 -1.6631  0.1874
  467TIP3   OH222959   1.354   1.609   6.570 -0.2861 -0.2953  0.2455
  467TIP3    H122960   1.403   1.632   6.491 -0.8469  0.8930  0.2284
  467TIP3    H222961   1.309   1.528   6.548  0.7303 -0.7521 -0.1468
  468TIP3   OH222962   0.912   1.548   7.196  0.6066 -0.2763  0.2566
  468TIP3    H122963   0.845   1.564   7.128 -0.5312  0.2334  1.4715
  468TIP3    H222964   0.985   1.604   7.170 -0.1303  0.5344 -0.1193
  469TIP3   OH222965   0.927   0.521   7.861 -0.4066  0.0047  0.1592
  469TIP3    H122966   0.851   0.473   7.827  0.3176  0.1145 -1.7070
  469TIP3    H222967   0.988   0.524   7.787  1.2162  0.3490  1.4876
  470TIP3   OH222968   2.250   3.009   1.286  0.0426 -0.0198 -0.1862
  470TIP3    H122969   2.242   2.913   1.284 -0.0723 -0.0000 -0.7398
  470TIP3    H222970   2.202   3.035   1.365 -0.2845 -0.3894 -0.2581
  471TIP3   OH222971   0.693   0.286   0.525 -0.3538 -0.0802 -0.2206
  471TIP3    H122972   0.778   0.288   0.481 -1.1741 -0.9898 -1.9086
  471TIP3    H222973   0.705   0.340   0.603  1.3203  1.0976 -1.2604
  472TIP3   OH222974   0.970   0.177   8.173 -0.0863  0.5617  0.0257
  472TIP3    H122975   0.886   0.219   8.191 -0.1540  0.6498 -0.4877
  472TIP3    H222976   1.022   0.192   8.252 -0.9164 -0.4217  0.7664
  473TIP3   OH222977   0.022   1.005   8.244  0.3011 -0.5698 -0.2174
  473TIP3    H122978  -0.028   1.081   8.212 -0.0206 -0.2364  1.0445
  473TIP3    H222979   0.093   1.043   8.295  1.5471 -1.0646 -1.5737
  474TIP3   OH222980   0.617   6.185   7.722 -0.0129 -0.1043 -0.2377
  474TIP3    H122981   0.580   6.234   7.649  0.0884  2.6339  1.4834
  474TIP3    H222982   0.699   6.230   7.742  0.0518 -0.9331  1.4321
  475TIP3   OH222983   7.118   0.536   7.004 -0.3351 -0.3075 -0.3645
  475TIP3    H122984   7.065   0.571   6.932  1.7491  1.6472 -0.9985
  475TIP3    H222985   7.204   0.576   6.992  0.8135 -2.0831  1.6519
  476TIP3   OH222986   4.400   7.082   0.148  0.4717  0.0227 -0.3210
  476TIP3    H122987   4.418   7.004   0.096 -0.0455  0.4821 -1.1908
  476TIP3    H222988   4.306   7.097   0.139  0.7416  1.3361 -0.9923
  477TIP3   OH222989   1.149   3.812   6.750 -0.2379  0.1222  0.4545
  477TIP3    H122990   1.076   3.856   6.706 -0.4727 -0.6289  0.0855
  477TIP3    H222991   1.112   3.776   6.830 -0.5003 -1.0440 -0.1704
  478TIP3   OH222992   0.090   1.458   6.308 -0.0725 -0.0379 -0.7515
  478TIP3    H122993   0.178   1.491   6.289  0.2806 -2.1020 -2.9174
  478TIP3    H222994   0.103   1.368   6.337 -1.3569  0.1822  0.5606
  479TIP3   OH222995   6.605   0.156   7.626 -0.2636  0.7115  0.4156
  479TIP3    H122996   6.578   0.228   7.570  1.0600 -1.0534 -2.5947
  479TIP3    H222997   6.524   0.111   7.648 -0.9443  2.2758  1.1948
  480TIP3   OH222998   6.714   2.089   7.206  0.0295  0.2408 -0.2806
  480TIP3    H122999   6.686   2.178   7.186  0.5383  1.0635  2.4873
  480TIP3    H223000   6.639   2.049   7.249  1.3186  0.8125  2.5666
  481TIP3   OH223001   0.754   2.524   7.859  0.3392 -0.1580  0.0634
  481TIP3    H123002   0.793   2.448   7.816 -1.1676  0.2362 -2.0690
  481TIP3    H223003   0.828   2.579   7.885  1.3574 -1.5860  0.1947
  482TIP3   OH223004   1.603   0.140   7.753  0.0045 -0.2704  0.3927
  482TIP3    H123005   1.686   0.150   7.800 -0.3007  0.3454  0.7982
  482TIP3    H223006   1.544   0.202   7.794 -0.0706  0.7971 -1.2657
  483TIP3   OH223007   0.589   2.495   8.072  0.3695  0.0879  0.4430
  483TIP3    H123008   0.590   2.591   8.072  0.4549  0.0950 -0.5162
  483TIP3    H223009   0.628   2.471   7.988  0.7958 -0.7956  0.8957
  484TIP3   OH223010   1.838   0.970   6.726  0.6086 -0.1633  0.7325
  484TIP3    H123011   1.806   1.040   6.669  1.7502  0.4784  0.8754
  484TIP3    H223012   1.932   0.965   6.709  0.9343 -0.0997  2.4173
  485TIP3   OH223013   1.115   0.540   8.481 -0.3043 -0.3961 -0.4004
  485TIP3    H123014   1.206   0.565   8.466 -0.7617  2.3038  1.0083
  485TIP3    H223015   1.070   0.565   8.400 -0.8805  4.4081  1.2052
  486TIP3   OH223016   2.264   1.037   8.078  0.2416  0.3249  0.3749
  486TIP3    H123017   2.277   1.070   7.989 -1.9587  0.9624  0.2791
  486TIP3    H223018   2.342   0.983   8.095  0.5577 -0.0037 -2.0204
  487TIP3   OH223019   2.510   1.813   0.830 -0.0958 -0.4894  0.3205
  487TIP3    H123020   2.471   1.877   0.888 -0.9725 -0.7039 -0.0266
  487TIP3    H223021   2.557   1.753   0.888  1.2876  0.8368  0.6002
  488TIP3   OH223022   1.047   1.204   7.193 -0.3544 -0.1991  0.2347
  488TIP3    H123023   1.125   1.258   7.208 -0.4931  0.2319 -0.5716
  488TIP3    H223024   0.975   1.267   7.189 -0.3280 -0.2888 -2.2339
  489TIP3   OH223025   1.606   0.846   7.110  0.5979  0.0552  0.1688
  489TIP3    H123026   1.614   0.874   7.019 -0.1032 -0.2645  0.0055
  489TIP3    H223027   1.526   0.889   7.141  0.5169 -0.3005  0.4582
  490TIP3   OH223028   6.924   1.971   7.392  0.7739  0.2104  0.7200
  490TIP3    H123029   6.843   1.995   7.347  0.6984  0.9999  1.2527
  490TIP3    H223030   6.952   1.890   7.350 -0.3512 -0.1295  0.5962
  491TIP3   OH223031   0.942   0.212   7.170 -0.0053  0.1262  0.2006
  491TIP3    H123032   0.932   0.163   7.089 -0.9514  1.4725 -0.5225
  491TIP3    H223033   0.950   0.304   7.142  0.4192  0.5212  1.5812
  492TIP3   OH223034   3.259   0.932   6.516 -0.0435 -0.0088 -0.3926
  492TIP3    H123035   3.176   0.972   6.491 -0.0081 -0.0791 -0.6178
  492TIP3    H223036   3.234   0.848   6.555  0.0466 -0.8746 -2.1915
  493TIP3   OH223037   1.263   1.360   6.479  0.1539 -0.2228 -0.2659
  493TIP3    H123038   1.250   1.322   6.393  1.9433 -0.9299 -0.2483
  493TIP3    H223039   1.327   1.302   6.522  0.0129  0.6510  1.1718
  494TIP3   OH223040   1.066   6.559   7.315  0.2940 -0.0308 -0.2010
  494TIP3    H123041   1.161   6.565   7.304  0.2356  1.6451  0.0610
  494TIP3    H223042   1.049   6.465   7.322  2.0146 -0.3224  0.4432
  495TIP3   OH223043   0.465   0.614   6.466 -0.4970 -0.1108  0.3931
  495TIP3    H123044   0.401   0.568   6.520 -0.1923 -0.2090  0.6781
  495TIP3    H223045   0.483   0.553   6.395 -1.4597  0.3315 -0.2343
  496TIP3   OH223046   2.069   0.100   0.845  0.0286 -0.5666 -0.0232
  496TIP3    H123047   1.975   0.088   0.862  0.2523 -1.6860  0.4432
  496TIP3    H223048   2.079   0.195   0.831 -1.5276 -0.6885 -2.2933
  497TIP3   OH223049   1.258   0.369   0.152  0.6190 -0.2970 -0.4684
  497TIP3    H123050   1.326   0.406   0.208 -2.0686  0.9667  2.1070
  497TIP3    H223051   1.226   0.443   0.101 -0.0674 -0.4606 -0.2901
  498TIP3   OH223052   1.970   0.777   6.548 -0.3772 -0.2311 -0.0557
  498TIP3    H123053   1.884   0.761   6.585 -0.4027  0.4455  0.1914
  498TIP3    H223054   1.953   0.823   6.466 -0.2221  0.9195  0.5428
  499TIP3   OH223055   6.281   1.347   6.721  0.0785 -0.2115  0.2270
  499TIP3    H123056   6.345   1.412   6.751 -1.1413  1.3757 -0.4789
  499TIP3    H223057   6.267   1.290   6.796  1.6434 -0.0340  0.6735
  500TIP3   OH223058   6.830   6.957   6.389 -0.2887  0.0199 -0.6340
  500TIP3    H123059   6.890   6.895   6.348 -0.8744 -1.0974  0.1840
  500TIP3    H223060   6.872   7.042   6.375  1.6896 -0.7659  0.2166
  501TIP3   OH223061   1.464   6.867   7.402 -0.0389 -0.8949  0.1938
  501TIP3    H123062   1.473   6.944   7.346 -0.0761 -1.5402 -0.7111
  501TIP3    H223063   1.386   6.884   7.454  0.9195  0.4438  1.2294
  502TIP3   OH223064   2.390   0.527   7.211  0.4535  0.0432 -0.0391
  502TIP3    H123065   2.305   0.495   7.242 -0.1276  0.9301 -0.6858
  502TIP3    H223066   2.371   0.613   7.174  1.6435  0.2575 -0.1754
  503TIP3   OH223067   5.690   6.951   6.572  0.7537 -0.3382 -0.1456
  503TIP3    H123068   5.773   6.964   6.619  0.0109 -0.4367  1.2442
  503TIP3    H223069   5.645   7.035   6.579 -0.4013 -1.0531  1.4703
  504TIP3   OH223070   0.150   1.827   7.345 -0.4162 -0.0711 -0.1206
  504TIP3    H123071   0.063   1.860   7.365 -0.0496  0.8252  0.0381
  504TIP3    H223072   0.159   1.748   7.398 -1.6347 -0.9291 -1.1692
  505TIP3   OH223073   0.717   0.248   8.170  0.0171  0.5455  0.3616
  505TIP3    H123074   0.663   0.169   8.177 -0.2457  0.4779 -1.8959
  505TIP3    H223075   0.700   0.296   8.250 -0.2863 -1.4118  1.5096
  506TIP3   OH223076   6.884   2.264   6.627  0.4219  0.3321 -0.1130
  506TIP3    H123077   6.926   2.249   6.712 -1.2938 -0.4701  0.6216
  506TIP3    H223078   6.952   2.305   6.574  1.7981  0.0386  1.3677
  507TIP3   OH223079   2.603   2.657   6.587 -0.1230  0.1474  0.2110
  507TIP3    H123080   2.673   2.669   6.523 -0.6432  0.0660 -0.3709
  507TIP3    H223081   2.631   2.581   6.638  0.0592 -0.0792 -0.2236
  508TIP3   OH223082   1.735   1.043   0.247  0.5562 -0.1426  0.1933
  508TIP3    H123083   1.685   1.079   0.173  0.4436  0.0427  0.3559
  508TIP3    H223084   1.668   1.014   0.309  0.6244  2.0098  1.3272
  509TIP3   OH223085   1.364   2.355   6.507  0.6719  0.1147 -0.2070
  509TIP3    H123086   1.370   2.390   6.419  0.8427 -1.9692 -1.0571
  509TIP3    H223087   1.415   2.416   6.561  1.6445  0.6857 -1.7568
  510TIP3   OH223088   2.981   1.689   8.107 -0.0376  0.0456  0.4634
  510TIP3    H123089   3.043   1.752   8.143 -0.3028 -0.1194  1.2081
  510TIP3    H223090   2.895   1.726   8.126 -0.1736  0.2402 -0.5062
  511TIP3   OH223091   1.025   2.901   8.316 -0.0932  0.0515  0.1627
  511TIP3    H123092   1.116   2.925   8.302 -0.0023 -0.8962 -0.8677
  511TIP3    H223093   0.982   2.916   8.232 -0.5874 -0.9011  0.2380
  512TIP3   OH223094   1.389   1.350   0.727  0.5408 -0.5258  0.0845
  512TIP3    H123095   1.469   1.302   0.703 -0.5250 -1.6600 -1.3391
  512TIP3    H223096   1.347   1.295   0.793  0.4678 -0.4160  0.1285
  513TIP3   OH223097   1.364   2.130   0.131  0.4569 -0.6148  0.4613
  513TIP3    H123098   1.339   2.158   0.043  1.6480 -1.1122 -0.0262
  513TIP3    H223099   1.280   2.108   0.173 -0.0712 -0.8407 -0.6892
  514TIP3   OH223100   6.942   1.459   6.776 -0.1590  0.1332 -0.3332
  514TIP3    H123101   6.874   1.525   6.761 -0.4483  0.1110  0.8191
  514TIP3    H223102   6.959   1.422   6.690  0.4081  2.0958 -1.0938
  515TIP3   OH223103   0.629   2.257   6.470  0.3415 -0.3933 -0.5561
  515TIP3    H123104   0.617   2.346   6.437  0.7916 -0.3883 -0.7124
  515TIP3    H223105   0.682   2.268   6.549 -0.9392 -0.3841  0.3054
  516TIP3   OH223106   0.067   2.200   7.088 -0.4124  0.3809  0.0156
  516TIP3    H123107   0.076   2.107   7.067  2.0326  0.5728  0.1292
  516TIP3    H223108  -0.020   2.207   7.128 -0.7889 -1.7776 -0.3782
  517TIP3   OH223109   6.955   4.510   6.952  0.2392  0.0691 -0.4707
  517TIP3    H123110   7.027   4.455   6.983  1.0537  1.7186  0.6447
  517TIP3    H223111   6.997   4.582   6.905 -0.7879 -0.0461 -1.5923
  518TIP3   OH223112   6.035   2.152   6.415  0.6924 -0.4038  0.1986
  518TIP3    H123113   6.090   2.198   6.478 -0.8590 -0.6567  1.7901
  518TIP3    H223114   6.037   2.206   6.337  0.7960  1.1303  1.2456
  519TIP3   OH223115   0.234   1.187   7.210  0.6236  0.7606 -0.3273
  519TIP3    H123116   0.179   1.219   7.138  0.2109  0.7545 -0.0161
  519TIP3    H223117   0.281   1.112   7.173 -0.1175  0.3204 -0.3809
  520TIP3   OH223118   1.024   0.473   7.128  0.3577  0.0474  0.1359
  520TIP3    H123119   0.963   0.545   7.111  0.6383  0.3633  0.4599
  520TIP3    H223120   1.092   0.482   7.061  1.0386  0.8160  0.9086
  521TIP3   OH223121   2.962   0.028   8.233 -0.0345  0.0963 -0.3657
  521TIP3    H123122   2.895   0.083   8.271 -0.3621 -0.1668 -0.5556
  521TIP3    H223123   3.024   0.013   8.304 -1.5496 -1.8588  0.6023
  522TIP3   OH223124   3.209   0.639   7.209 -0.4567 -0.1626  0.3900
  522TIP3    H123125   3.183   0.550   7.186 -0.8316  0.2888 -0.9807
  522TIP3    H223126   3.288   0.654   7.156 -0.7353  0.5332  0.1792
  523TIP3   OH223127   7.294   0.821   7.122  0.4869  0.2351  0.4071
  523TIP3    H123128   7.258   0.775   7.199 -1.3304 -1.0585 -1.1678
  523TIP3    H223129   7.355   0.759   7.083  0.3086  0.3200 -0.0116
  524TIP3   OH223130   1.685   0.218   6.039  0.2000 -0.0147 -0.1775
  524TIP3    H123131   1.682   0.308   6.007 -0.7297  0.0741  0.1632
  524TIP3    H223132   1.723   0.168   5.967 -0.3116  0.4641 -0.7764
  525TIP3   OH223133   1.018   0.511   6.821  0.0567 -0.3561  0.0769
  525TIP3    H123134   1.008   0.418   6.840  0.7326 -0.8834 -1.9484
  525TIP3    H223135   0.929   0.546   6.822 -0.1844 -0.9778  1.0097
  526TIP3   OH223136   1.897   5.323   7.266  0.0195 -0.4068  0.2190
  526TIP3    H123137   1.894   5.419   7.262 -1.1391 -0.2504  3.5290
  526TIP3    H223138   1.975   5.304   7.318 -2.1414 -1.0274  3.3851
  527TIP3   OH223139   6.291   3.558   6.345  0.0065 -0.5505  0.1880
  527TIP3    H123140   6.247   3.496   6.286  0.1806  0.2136 -0.7650
  527TIP3    H223141   6.366   3.510   6.379  0.6286 -0.5969 -1.2123
  528TIP3   OH223142   2.066   0.025   6.947  0.6293 -0.2536 -0.1588
  528TIP3    H123143   2.062   0.030   6.851  0.9342 -0.6524 -0.1966
  528TIP3    H223144   2.086   0.114   6.974 -0.0419 -0.0158 -0.4307
  529TIP3   OH223145   3.173   2.831   7.802  0.7745  0.4068 -0.4062
  529TIP3    H123146   3.202   2.922   7.802 -1.9126  1.3445  3.3309
  529TIP3    H223147   3.249   2.782   7.833  1.4253  1.6917  0.0622
  530TIP3   OH223148   0.061   2.444   6.982 -0.5603 -0.4479 -0.5004
  530TIP3    H123149   0.139   2.454   6.927  1.0668  0.4592  1.9020
  530TIP3    H223150   0.069   2.356   7.018 -0.3010 -0.1139  0.2614
  531TIP3   OH223151   0.157   0.168   7.009 -0.4920  0.2003  0.3052
  531TIP3    H123152   0.112   0.096   6.965  0.7166 -0.7687  0.6246
  531TIP3    H223153   0.155   0.144   7.102  0.0926  0.4803  0.3923
  532TIP3   OH223154   0.902   0.479   2.041 -0.2721 -0.1903 -0.2118
  532TIP3    H123155   0.883   0.478   1.947 -0.8346  0.9680 -0.1226
  532TIP3    H223156   0.835   0.424   2.080 -1.5297  1.2677 -0.2527
  533TIP3   OH223157   0.348   3.186   6.316 -0.8170  0.2379 -0.2618
  533TIP3    H123158   0.277   3.167   6.254 -1.2103  1.4970 -0.2164
  533TIP3    H223159   0.341   3.280   6.332  0.3184  0.2127  0.4312
  534TIP3   OH223160   1.959   7.149   1.707 -0.2721 -0.3363  0.3948
  534TIP3    H123161   1.979   7.206   1.781  0.7840  0.2421 -0.3273
  534TIP3    H223162   2.034   7.090   1.701  0.6408  0.9283 -1.4428
  535TIP3   OH223163   2.145   4.535   7.183 -0.1009 -0.2128 -0.4609
  535TIP3    H123164   2.228   4.582   7.176 -0.0275 -0.4184 -0.9872
  535TIP3    H223165   2.104   4.571   7.261  0.8075 -0.6238  0.2174
  536TIP3   OH223166   3.826   0.637   6.113  0.1040  0.5542  0.1845
  536TIP3    H123167   3.894   0.665   6.174  1.6869 -1.2576 -0.6948
  536TIP3    H223168   3.839   0.542   6.105 -2.3954  0.2113 -0.1684
  537TIP3   OH223169   3.457   1.216   6.740 -0.1625 -0.0405  0.2393
  537TIP3    H123170   3.502   1.140   6.777 -1.7865 -0.8419  0.6040
  537TIP3    H223171   3.372   1.183   6.712 -0.3563  1.3480 -0.8842
  538TIP3   OH223172   0.944   0.803   7.951  0.4094 -0.2379  0.1427
  538TIP3    H123173   0.944   0.720   7.902 -0.6892 -0.3737  0.3509
  538TIP3    H223174   0.863   0.801   8.002 -0.5934  1.7962 -1.2825
  539TIP3   OH223175   4.178   7.254   7.783 -0.0465 -0.4113 -0.2328
  539TIP3    H123176   4.263   7.282   7.751  0.0670 -2.1172 -1.5065
  539TIP3    H223177   4.115   7.302   7.729  0.1145 -0.1831 -0.2188
  540TIP3   OH223178   1.151   1.893   6.132 -0.4935  0.8845 -0.1912
  540TIP3    H123179   1.160   1.810   6.085 -0.3289  0.8304 -0.0649
  540TIP3    H223180   1.205   1.882   6.211 -0.5838  1.0593 -0.1049
  541TIP3   OH223181   1.254   1.248   6.240  0.2676  0.1614  0.1943
  541TIP3    H123182   1.285   1.265   6.151 -0.6403 -0.4982 -0.2675
  541TIP3    H223183   1.198   1.171   6.231 -2.4655  1.9969  0.7782
  542TIP3   OH223184   1.718   2.403   6.544  0.4425 -0.2664 -0.3502
  542TIP3    H123185   1.793   2.404   6.484  0.4944  1.5562 -0.2665
  542TIP3    H223186   1.688   2.312   6.542  2.9560 -1.1541 -0.0043
  543TIP3   OH223187   1.586   0.939   6.838  0.3969 -0.2217 -0.6224
  543TIP3    H123188   1.557   1.023   6.801  1.2809  0.6350  0.5930
  543TIP3    H223189   1.677   0.931   6.810  0.6809 -0.1829  0.2792
  544TIP3   OH223190   4.629   2.503   6.587  0.2621 -0.2668  0.2073
  544TIP3    H123191   4.678   2.426   6.614 -0.0811 -0.5251  0.1047
  544TIP3    H223192   4.677   2.537   6.512 -0.8460 -1.7253 -1.2149
  545TIP3   OH223193   5.326   6.262   8.361  0.7269 -0.3716  0.2582
  545TIP3    H123194   5.416   6.232   8.378  0.3275 -1.3043  0.7461
  545TIP3    H223195   5.292   6.200   8.297 -0.4432 -1.5874  2.0096
  546TIP3   OH223196   3.747   1.427   0.577 -0.2325  0.3462  0.3272
  546TIP3    H123197   3.757   1.407   0.484 -1.1243 -0.2619  0.3597
  546TIP3    H223198   3.769   1.521   0.583 -1.1476  0.6338 -0.6529
  547TIP3   OH223199   1.134   1.194   7.938  0.3257 -0.5817 -0.3776
  547TIP3    H123200   1.112   1.114   7.987  1.0426 -0.6043 -0.0862
  547TIP3    H223201   1.050   1.224   7.903 -0.3903  0.0287  1.7379
  548TIP3   OH223202   4.249   6.768   6.600 -0.0899 -1.1532  0.4941
  548TIP3    H123203   4.171   6.754   6.546  0.4130 -1.9953 -0.0208
  548TIP3    H223204   4.250   6.693   6.660  0.3076 -1.1243  0.5223
  549TIP3   OH223205   1.994   4.826   6.874  0.7003  0.3530 -0.2365
  549TIP3    H123206   2.047   4.755   6.837 -0.9744 -0.4660 -1.1521
  549TIP3    H223207   2.057   4.882   6.920  2.3539 -0.5041 -1.4037
  550TIP3   OH223208   2.947   1.307   6.385 -0.2328  0.1158 -0.2178
  550TIP3    H123209   2.927   1.287   6.294  0.4585  0.0227 -0.3527
  550TIP3    H223210   2.862   1.324   6.425 -0.4684  0.9474 -1.0612
  551TIP3   OH223211   4.301   0.834   0.756 -0.1833 -0.0215  0.0789
  551TIP3    H123212   4.394   0.811   0.756 -0.4713 -1.2889 -0.7854
  551TIP3    H223213   4.296   0.917   0.803  1.4909  0.4955 -0.6226
  552TIP3   OH223214   0.968   7.266   7.409 -0.0703 -0.1931 -0.5743
  552TIP3    H123215   1.033   7.278   7.340  1.3560 -0.0122  0.7647
  552TIP3    H223216   0.889   7.308   7.375  0.5149 -0.3836 -2.2162
  553TIP3   OH223217   3.993   1.784   7.201  0.4626 -0.3386  0.5894
  553TIP3    H123218   4.065   1.800   7.263 -0.1856  1.0348  0.9960
  553TIP3    H223219   3.918   1.829   7.239 -0.3727 -0.9136 -0.3540
  554TIP3   OH223220   2.652   1.084   6.275  0.1456  0.2921  0.4009
  554TIP3    H123221   2.625   1.174   6.256 -0.0319  0.0102 -0.7376
  554TIP3    H223222   2.635   1.073   6.368  0.0641  1.4045  0.5231
  555TIP3   OH223223   1.613   1.250   6.809 -0.3427  0.0130 -0.3753
  555TIP3    H123224   1.533   1.298   6.786 -0.9939 -1.0489 -0.3664
  555TIP3    H223225   1.663   1.246   6.727 -1.1342 -0.8898 -0.8198
  556TIP3   OH223226   0.043   1.626   7.682  0.9913  0.0233  0.0364
  556TIP3    H123227  -0.013   1.587   7.615  0.6343  0.9727 -0.2241
  556TIP3    H223228   0.022   1.720   7.680  1.2844  0.1279  1.1746
  557TIP3   OH223229   3.360   0.112   6.986  0.4586 -0.1167 -0.5306
  557TIP3    H123230   3.352   0.081   6.896  0.2354 -1.5005 -0.0445
  557TIP3    H223231   3.274   0.094   7.025 -0.1135  2.3065 -0.5963
  558TIP3   OH223232   1.668   1.240   6.022 -0.1781 -0.6407  0.0536
  558TIP3    H123233   1.716   1.164   6.056  0.6100 -0.5236 -0.7480
  558TIP3    H223234   1.730   1.280   5.960 -0.0422  1.4788  1.5287
  559TIP3   OH223235   4.075   2.666   8.289 -0.3402 -0.2623  0.5720
  559TIP3    H123236   4.090   2.581   8.331  0.3381 -0.6821 -0.5088
  559TIP3    H223237   4.078   2.729   8.361  1.5755 -0.8914  1.0584
  560TIP3   OH223238   2.612   0.859   7.158 -0.4469  0.6712  0.0747
  560TIP3    H123239   2.601   0.926   7.090  0.6749  1.4343  0.6285
  560TIP3    H223240   2.551   0.886   7.228 -1.2982  0.1134 -0.4365
  561TIP3   OH223241   4.132   6.761   6.931  0.1116 -0.5040 -0.4677
  561TIP3    H123242   4.153   6.697   6.863  0.0267 -0.3969 -0.5937
  561TIP3    H223243   4.057   6.723   6.977 -0.8934  0.2096 -1.4940
  562TIP3   OH223244   3.791   0.882   6.428 -0.2917  0.2394 -0.1854
  562TIP3    H123245   3.830   0.930   6.355  0.0217 -1.0161 -0.8637
  562TIP3    H223246   3.699   0.909   6.429 -0.6669 -0.9189 -2.0487
  563TIP3   OH223247   3.385   1.711   6.467  0.2665 -0.0141  0.1169
  563TIP3    H123248   3.326   1.675   6.533  0.4224  1.9896  1.3920
  563TIP3    H223249   3.392   1.642   6.401 -1.7532 -1.1352  1.0212
  564TIP3   OH223250   5.704   0.970   7.200  0.1812  0.0847 -0.1297
  564TIP3    H123251   5.774   0.983   7.263 -0.1810 -0.0325  0.2981
  564TIP3    H223252   5.623   0.982   7.250 -0.1771 -2.8945  0.1126
  565TIP3   OH223253   3.625   0.688   0.082  0.3325  0.5058  0.1262
  565TIP3    H123254   3.632   0.700   0.177  0.3341  0.5287  0.1231
  565TIP3    H223255   3.660   0.600   0.066  0.7960  0.6977  0.0837
  566TIP3   OH223256   2.780   0.359   5.779  0.1980 -0.1617 -0.4058
  566TIP3    H123257   2.817   0.377   5.866 -1.8457  2.7414 -0.0562
  566TIP3    H223258   2.710   0.296   5.796 -1.3450  1.7075  0.3633
  567TIP3   OH223259   2.496   5.874   6.938 -0.1475  0.1172 -0.4958
  567TIP3    H123260   2.560   5.941   6.916  1.2274 -1.1523 -0.4156
  567TIP3    H223261   2.492   5.818   6.861 -0.6002 -0.2586 -0.2050
  568TIP3   OH223262   1.673   0.664   6.643 -0.4390  0.3053  0.0708
  568TIP3    H123263   1.633   0.578   6.650  0.2127  0.1850  2.8579
  568TIP3    H223264   1.607   0.717   6.598 -1.2356 -1.3800 -0.7990
  569TIP3   OH223265   2.919   1.455   6.924 -0.7340 -0.2675  0.1353
  569TIP3    H123266   2.867   1.410   6.990 -0.3077  1.5709  1.7805
  569TIP3    H223267   2.962   1.526   6.972 -0.4468  1.1321 -2.1201
  570TIP3   OH223268   2.175   6.891   7.129 -0.3793 -0.4674  0.7550
  570TIP3    H123269   2.128   6.898   7.046 -0.9308  0.3206  1.1204
  570TIP3    H223270   2.236   6.819   7.117 -0.0457  0.0254 -0.5330
  571TIP3   OH223271   1.480   1.579   6.310 -0.0903  0.2827  0.0951
  571TIP3    H123272   1.571   1.578   6.338 -0.4683 -0.6268  1.3527
  571TIP3    H223273   1.462   1.489   6.284 -0.3498  0.6757 -1.0906
  572TIP3   OH223274   2.034   2.456   6.812 -0.1678  0.1769 -0.1857
  572TIP3    H123275   2.016   2.484   6.722 -1.6720  1.9080  0.6112
  572TIP3    H223276   2.091   2.523   6.848 -0.2723 -0.0484  0.4175
  573TIP3   OH223277   3.854   3.576   0.121  0.2447 -0.0789 -0.2473
  573TIP3    H123278   3.800   3.578   0.200  0.0109 -0.0487 -0.4072
  573TIP3    H223279   3.883   3.485   0.114  0.3359 -0.0628 -0.0787
  574TIP3   OH223280   1.290   3.897   7.184  0.0902 -0.0506  0.1450
  574TIP3    H123281   1.218   3.859   7.134  1.2683 -0.1739 -1.4749
  574TIP3    H223282   1.298   3.839   7.260 -0.1740 -1.2472 -0.7171
  575TIP3   OH223283   3.572   1.890   7.852 -0.0902 -0.3554  0.1223
  575TIP3    H123284   3.531   1.940   7.923  0.6438  0.3545  0.0481
  575TIP3    H223285   3.501   1.837   7.816 -0.7410  0.1996  0.5852
  576TIP3   OH223286   1.310   0.275   7.748 -0.0266  0.2771  0.1777
  576TIP3    H123287   1.319   0.328   7.827  0.1096 -1.0852  1.0770
  576TIP3    H223288   1.344   0.331   7.678  0.7475  1.1216  1.2205
  577TIP3   OH223289   1.764   1.509   6.691 -0.1048  0.2255 -0.7513
  577TIP3    H123290   1.710   1.431   6.708 -0.1613  0.5285  0.4570
  577TIP3    H223291   1.759   1.520   6.596  1.8479 -2.6603 -1.2641
  578TIP3   OH223292   3.988   0.934   8.321  0.2078 -0.0640  0.4164
  578TIP3    H123293   3.892   0.930   8.322  0.2167 -1.5413 -1.8018
  578TIP3    H223294   4.008   0.999   8.254  0.7726 -0.0555  0.5945
  579TIP3   OH223295   5.933   1.883   6.814 -0.5489 -0.1062 -0.4280
  579TIP3    H123296   6.016   1.926   6.792 -1.1843  1.4965  0.2351
  579TIP3    H223297   5.924   1.895   6.908 -1.8380  0.2790 -0.5904
  580TIP3   OH223298   2.698   6.381   1.694 -0.2274 -0.3173  0.2159
  580TIP3    H123299   2.729   6.462   1.733  1.9021 -0.7862 -0.4098
  580TIP3    H223300   2.712   6.393   1.600  2.1103 -2.1804  0.2791
  581TIP3   OH223301   0.860   0.875   6.995  0.0133 -0.2208  0.3017
  581TIP3    H123302   0.810   0.799   7.024 -1.2725  0.0311 -1.1934
  581TIP3    H223303   0.860   0.869   6.900  1.5839  0.5975  0.2332
  582TIP3   OH223304   2.058   0.867   6.886 -0.6058  0.1857 -0.1026
  582TIP3    H123305   2.094   0.779   6.876  0.5484  0.8303 -2.1226
  582TIP3    H223306   1.967   0.854   6.909  0.2313 -1.5155  2.3445
  583TIP3   OH223307   4.317   2.983   6.817 -0.0329  0.3180 -0.4031
  583TIP3    H123308   4.225   3.007   6.828  0.3468  1.1017  1.1975
  583TIP3    H223309   4.319   2.929   6.738 -2.7257 -4.3437  2.5347
  584TIP3   OH223310   0.973   2.442   6.369 -0.3719 -0.4386  0.2923
  584TIP3    H123311   1.022   2.360   6.379 -2.4540 -1.9591 -1.4206
  584TIP3    H223312   0.939   2.439   6.280  0.5159  2.9090 -0.2383
  585TIP3   OH223313   2.857   3.047   6.208  0.3265 -0.0540 -0.2459
  585TIP3    H123314   2.843   3.059   6.302 -1.4681 -1.2114 -0.3525
  585TIP3    H223315   2.952   3.059   6.197  0.7718 -1.2768  1.9231
  586TIP3   OH223316   2.884   0.943   7.350 -0.3631  0.0511 -0.2533
  586TIP3    H123317   2.841   1.023   7.319 -1.2008 -0.2496  0.1120
  586TIP3    H223318   2.943   0.973   7.419 -1.0925  0.2928  0.2764
  587TIP3   OH223319   3.073   1.345   7.329 -0.4708 -1.4892  0.0342
  587TIP3    H123320   3.073   1.401   7.251  1.1082  0.6226  1.4896
  587TIP3    H223321   3.148   1.287   7.317  0.4930 -0.3530  0.5341
  588TIP3   OH223322   3.801   6.926   0.199 -0.6793 -0.2067  0.7875
  588TIP3    H123323   3.865   6.983   0.241  1.3718 -1.0651 -1.0241
  588TIP3    H223324   3.790   6.853   0.260  0.5624 -0.3419  0.8767
  589TIP3   OH223325   2.636   0.468   6.402  0.1224  0.0885 -0.1446
  589TIP3    H123326   2.714   0.441   6.353  0.2200 -0.3075  0.2254
  589TIP3    H223327   2.571   0.401   6.381  0.1241 -0.0086  0.1628
  590TIP3   OH223328   3.613   1.129   7.262  0.3720  0.5147  0.9310
  590TIP3    H123329   3.628   1.169   7.347  0.9744 -0.5018  1.3005
  590TIP3    H223330   3.613   1.203   7.200 -2.0388  1.5046  2.0244
  591TIP3   OH223331   2.177   0.127   7.585  0.2288  0.1550 -0.1266
  591TIP3    H123332   2.206   0.045   7.625  0.0433  0.5828  0.9184
  591TIP3    H223333   2.191   0.193   7.654  0.8134  1.0814 -1.1049
  592TIP3   OH223334   3.870   3.071   8.109  0.0257 -0.4341  0.1442
  592TIP3    H123335   3.806   3.100   8.174  0.7164  1.1576  0.1433
  592TIP3    H223336   3.954   3.072   8.156  0.4789  0.3892 -0.6586
  593TIP3   OH223337   3.057   1.763   6.556 -0.7130  0.0131  0.4221
  593TIP3    H123338   2.992   1.697   6.580 -0.0921 -0.3546  1.1311
  593TIP3    H223339   3.140   1.725   6.585 -0.3491  1.1141  0.8217
  594TIP3   OH223340   2.592   1.035   6.529 -0.1296  0.1928  0.0215
  594TIP3    H123341   2.518   1.021   6.588 -0.1308 -1.5121 -0.3613
  594TIP3    H223342   2.665   1.054   6.587 -0.3996 -0.2518  0.5125
  595TIP3   OH223343   2.982   1.798   6.841  0.3787 -0.3445 -0.2425
  595TIP3    H123344   2.975   1.745   6.920  2.1493  1.7080  1.3324
  595TIP3    H223345   2.907   1.771   6.788 -3.2911  1.1132  3.8751
  596TIP3   OH223346   2.367   0.716   7.019  0.0468 -0.0329 -0.4245
  596TIP3    H123347   2.450   0.728   6.974  0.4159 -0.3392  0.1689
  596TIP3    H223348   2.304   0.696   6.950  0.4628  0.2174 -0.8746
  597TIP3   OH223349   4.261   0.332   6.535 -0.5936 -0.0337 -0.2466
  597TIP3    H123350   4.254   0.421   6.569  2.2809  0.3834 -0.6122
  597TIP3    H223351   4.274   0.278   6.613  0.0858  0.2007 -0.1863
  598TIP3   OH223352   2.851   0.017   7.347 -0.0387 -0.3842 -0.4024
  598TIP3    H123353   2.829  -0.058   7.402  0.3262 -0.2209 -0.0265
  598TIP3    H223354   2.819   0.093   7.396  2.8583  0.0041  0.9870
  599TIP3   OH223355   2.293   0.422   6.269 -0.1347 -0.2779  0.4674
  599TIP3    H123356   2.362   0.377   6.319  0.0996 -0.9024 -0.3910
  599TIP3    H223357   2.338   0.494   6.225 -0.4899  0.7465  1.7539
  600TIP3   OH223358   2.999   1.040   6.514 -0.2457 -0.7658  0.0970
  600TIP3    H123359   2.988   1.110   6.449 -0.9808 -0.9613  0.0076
  600TIP3    H223360   3.001   1.085   6.598  2.0087 -0.3842 -0.1274
  601TIP3   OH223361   4.501   5.169   8.190  0.1276 -0.2444 -0.1095
  601TIP3    H123362   4.460   5.091   8.227 -0.0156  0.4816  1.3071
  601TIP3    H223363   4.429   5.217   8.149  0.5391 -1.8391 -2.8195
  602TIP3   OH223364   2.078   1.204   6.643 -0.2531 -0.1381 -0.1898
  602TIP3    H123365   2.172   1.225   6.635 -0.5960  0.9556 -1.5184
  602TIP3    H223366   2.040   1.232   6.560 -1.7284 -0.8245  0.2365
  603TIP3   OH223367   4.077   6.668   8.187  0.1170  0.2590  0.0793
  603TIP3    H123368   4.021   6.706   8.119  2.2329  3.1078 -0.1633
  603TIP3    H223369   4.145   6.621   8.139  0.3090  0.3550  0.2546
  604TIP3   OH223370   2.211   1.171   5.763 -0.2508 -0.2181  0.2995
  604TIP3    H123371   2.260   1.237   5.813 -0.1833  0.1640 -0.2712
  604TIP3    H223372   2.238   1.087   5.802  0.2592  0.0392  0.5086
  605TIP3   OH223373   3.944   0.303   0.022 -0.6064  0.5624  0.4657
  605TIP3    H123374   3.938   0.362  -0.053  0.9287  1.6103  1.1375
  605TIP3    H223375   3.860   0.257   0.023 -0.2060 -0.2853 -2.5315
  606TIP3   OH223376   7.045   1.679   0.975 -0.4013 -0.8163  0.5127
  606TIP3    H123377   6.990   1.623   0.920  0.7316 -1.7024  0.2576
  606TIP3    H223378   7.132   1.671   0.937  0.0108  0.1419  1.2450
  607TIP3   OH223379   0.476   2.399   7.603  0.2631 -0.2084 -0.2595
  607TIP3    H123380   0.453   2.461   7.672  0.4119  2.2610 -2.3447
  607TIP3    H223381   0.402   2.339   7.599 -1.0792  1.3659  0.1533
  608TIP3   OH223382   2.516   1.442   6.725  0.5194  0.3110  0.1366
  608TIP3    H123383   2.530   1.396   6.808 -2.3423 -1.4451 -0.2865
  608TIP3    H223384   2.453   1.511   6.747  0.5458  0.4943 -0.3726
  609TIP3   OH223385   2.397   0.305   7.037 -0.8328 -0.2058 -0.3857
  609TIP3    H123386   2.410   0.260   7.121 -2.0167  1.3250  0.6344
  609TIP3    H223387   2.388   0.397   7.060  0.9109  0.4973 -2.4048
  610TIP3   OH223388   4.242   0.643   7.034 -0.1471  0.0559  0.2978
  610TIP3    H123389   4.157   0.612   7.003  0.4978 -1.5098  0.0664
  610TIP3    H223390   4.245   0.616   7.125  1.3409 -2.6368 -0.4914
  611TIP3   OH223391   2.408   0.845   8.477  0.3456  0.5171  0.3986
  611TIP3    H123392   2.383   0.840   8.385  2.0067 -0.3516 -0.0107
  611TIP3    H223393   2.493   0.888   8.477  1.0726 -0.8826  1.3897
  612TIP3   OH223394   4.611   0.232   7.484 -0.0583  0.2032  0.2965
  612TIP3    H123395   4.553   0.276   7.421 -0.0741 -0.2373  0.0010
  612TIP3    H223396   4.554   0.173   7.533  0.0876 -0.0044  0.2167
  613TIP3   OH223397   3.213   0.899   0.843  0.5052 -0.0669  0.8306
  613TIP3    H123398   3.263   0.979   0.860  0.0824  0.9213 -2.1657
  613TIP3    H223399   3.123   0.929   0.833 -0.0126 -1.2439  1.9380
  614TIP3   OH223400   4.198   1.384   7.848  0.6305  0.2721  0.2800
  614TIP3    H123401   4.199   1.413   7.939  0.6314  1.9184 -0.2290
  614TIP3    H223402   4.139   1.309   7.847  2.6526 -1.4038  2.1234
  615TIP3   OH223403   1.999   1.569   6.879  0.5917  1.0358 -0.1796
  615TIP3    H123404   1.905   1.557   6.862  0.7425 -0.8747  0.2127
  615TIP3    H223405   2.003   1.608   6.966  0.2159 -1.6473  1.0900
  616TIP3   OH223406   2.661   1.649   6.919 -0.2247 -0.3431  0.1560
  616TIP3    H123407   2.667   1.554   6.908  0.7776 -0.0737 -1.8595
  616TIP3    H223408   2.606   1.661   6.997  0.5239 -2.5754  1.0664
  617TIP3   OH223409   1.205   1.938   7.687  0.4717  0.1403 -0.3415
  617TIP3    H123410   1.194   2.032   7.700 -0.0165 -0.0367  0.5537
  617TIP3    H223411   1.118   1.906   7.665  0.8340  0.0534 -1.6672
  618TIP3   OH223412   2.660   7.293   1.236 -0.3842  0.7337 -1.1496
  618TIP3    H123413   2.581   7.336   1.203 -0.7905  0.8844  0.0139
  618TIP3    H223414   2.730   7.357   1.222 -0.7459  1.2279 -0.7274
  619TIP3   OH223415   5.142   1.138   1.662  0.8944 -0.2028  0.6433
  619TIP3    H123416   5.112   1.099   1.744 -1.1293  0.6110  0.3080
  619TIP3    H223417   5.153   1.231   1.682  0.3846 -0.0011 -0.0201
  620TIP3   OH223418   3.663   0.476   6.457  0.6157  0.2598 -0.1446
  620TIP3    H123419   3.740   0.440   6.413  0.8742  0.7134 -0.0680
  620TIP3    H223420   3.614   0.520   6.387  1.0965  1.0992  0.0342
  621TIP3   OH223421   1.683   6.388   7.046 -0.3555 -0.2469  0.0553
  621TIP3    H123422   1.700   6.448   7.118 -0.4058  0.0869 -0.2111
  621TIP3    H223423   1.730   6.308   7.069 -0.2084 -0.0701  0.3610
  622TIP3   OH223424   4.197   2.249   6.767  0.3754 -0.1736 -0.0821
  622TIP3    H123425   4.182   2.282   6.856 -0.1038  0.4577 -0.3939
  622TIP3    H223426   4.195   2.327   6.712  1.2539 -0.5011 -0.5813
  623TIP3   OH223427   1.979   1.202   7.325 -0.0209  0.4521  0.2014
  623TIP3    H123428   1.945   1.276   7.275 -0.1566  1.3884  1.6612
  623TIP3    H223429   1.915   1.132   7.310  0.3664  0.4490 -1.5793
  624TIP3   OH223430   2.199   2.653   6.905  0.0869  0.1192 -0.0245
  624TIP3    H123431   2.199   2.744   6.875 -0.2658 -0.3600 -1.5186
  624TIP3    H223432   2.275   2.647   6.963  1.0441  0.9701 -1.1604
  625TIP3   OH223433   0.510   1.858   7.801  0.2471 -0.0674 -0.1754
  625TIP3    H123434   0.546   1.783   7.753 -0.6765  0.7177 -2.1365
  625TIP3    H223435   0.487   1.822   7.887  1.5080 -1.6046 -0.4633
  626TIP3   OH223436   3.553   0.191   8.236 -0.0934  0.3826 -0.2384
  626TIP3    H123437   3.549   0.280   8.200 -1.1322 -0.2905 -1.8742
  626TIP3    H223438   3.623   0.149   8.186  1.3973  0.6789  1.5349
  627TIP3   OH223439   5.512   3.167   6.767  0.4140  0.2317  0.2899
  627TIP3    H123440   5.602   3.142   6.747 -0.3600 -1.2030 -1.6115
  627TIP3    H223441   5.477   3.094   6.818  0.0077  0.2704  0.0717
  628TIP3   OH223442   1.516   2.102   6.271  0.1438  0.3736 -0.4383
  628TIP3    H123443   1.423   2.113   6.249 -0.0272 -2.8506 -1.5293
  628TIP3    H223444   1.561   2.104   6.187  0.4959 -2.7973 -0.3851
  629TIP3   OH223445   4.660   1.627   6.661  0.3156  0.1543 -0.2865
  629TIP3    H123446   4.613   1.710   6.657  0.6025  0.2993 -0.6647
  629TIP3    H223447   4.713   1.625   6.582 -1.4454 -1.4443 -1.4693
  630TIP3   OH223448   0.712   1.054   8.270  0.5086  0.5786 -0.2033
  630TIP3    H123449   0.699   0.968   8.230  0.4548  0.8396 -0.7593
  630TIP3    H223450   0.802   1.077   8.249  0.8885  0.1376  0.9704
  631TIP3   OH223451   2.224   6.274   7.361 -0.0243 -0.3557  0.1473
  631TIP3    H123452   2.271   6.257   7.279  0.7880  1.3241  0.2528
  631TIP3    H223453   2.224   6.190   7.406  1.1996 -0.8474 -0.7311
  632TIP3   OH223454   2.216   0.639   6.802  0.3073  0.1917  0.2552
  632TIP3    H123455   2.221   0.700   6.728  2.8364  0.2304  0.4102
  632TIP3    H223456   2.184   0.557   6.764 -1.5330  1.1120 -0.2503
  633TIP3   OH223457   2.918   1.095   6.200 -0.2223  0.0909 -0.5699
  633TIP3    H123458   2.904   1.156   6.127  1.0796 -0.0771 -0.9830
  633TIP3    H223459   2.833   1.054   6.214 -0.2065 -0.8573 -2.9153
  634TIP3   OH223460   1.295   6.766   6.684  0.5829  0.3639  0.0754
  634TIP3    H123461   1.296   6.796   6.775  1.4799  0.6315 -0.0199
  634TIP3    H223462   1.352   6.827   6.638  1.9111 -1.0931 -0.2410
  635TIP3   OH223463   3.695   7.136   0.525 -0.1744  0.6932 -0.3271
  635TIP3    H123464   3.652   7.064   0.571  0.0771  1.0008  0.4086
  635TIP3    H223465   3.785   7.106   0.513 -0.1903  0.6904 -0.4366
  636TIP3   OH223466   1.812   1.024   7.573 -0.0434 -0.0582  0.1621
  636TIP3    H123467   1.818   0.930   7.586 -1.3993 -0.2544 -0.5317
  636TIP3    H223468   1.718   1.042   7.571  0.1776  1.0198 -1.8089
  637TIP3   OH223469   1.138   1.163   6.893  0.2270  0.1567 -0.1028
  637TIP3    H123470   1.097   1.124   6.970 -0.6006 -0.5727 -0.8957
  637TIP3    H223471   1.168   1.249   6.922  1.4008 -0.7725  1.4803
  638TIP3   OH223472   5.141   0.666   6.679  0.7902  0.1405 -0.3755
  638TIP3    H123473   5.101   0.728   6.617  2.4328  1.5747 -0.0522
  638TIP3    H223474   5.226   0.646   6.641  1.1923 -0.1607  0.6721
  639TIP3   OH223475   1.964   7.059   7.001 -0.5012  0.0234 -0.6577
  639TIP3    H123476   1.918   7.143   6.992 -0.2361  0.6085  2.9659
  639TIP3    H223477   2.049   7.075   6.961 -1.6837  0.3531 -3.1775
  640TIP3   OH223478   1.535   1.996   7.232 -0.5472  0.5746 -0.1179
  640TIP3    H123479   1.607   1.979   7.292  0.5618  2.3316 -0.9035
  640TIP3    H223480   1.491   1.911   7.221  0.4186 -0.1563  1.6202
  641TIP3   OH223481   1.338   0.631   7.208 -0.0284 -0.0584 -0.4125
  641TIP3    H123482   1.382   0.560   7.255 -0.2928 -0.1917 -0.3691
  641TIP3    H223483   1.379   0.711   7.242 -0.9898 -0.0910  0.8532
  642TIP3   OH223484   7.008   1.393   7.035 -0.0572  0.1844  0.2970
  642TIP3    H123485   6.990   1.413   6.943 -0.3597  0.1301  0.3451
  642TIP3    H223486   7.064   1.465   7.065  1.7602 -0.8510 -0.5066
  643TIP3   OH223487   2.561   1.958   6.556 -0.6180 -0.2148 -0.1496
  643TIP3    H123488   2.475   1.994   6.578 -0.8713 -0.3613 -0.9051
  643TIP3    H223489   2.599   1.935   6.641  0.0894  3.0092  0.4673
  644TIP3   OH223490   3.915   0.958   1.741  0.1434  0.1435 -0.5654
  644TIP3    H123491   3.941   0.896   1.809  0.3831  0.1382 -0.6621
  644TIP3    H223492   3.965   1.038   1.760  3.7288 -1.2789 -3.3722
  645TIP3   OH223493   0.580   4.030   7.869 -0.0832  0.5290 -0.3195
  645TIP3    H123494   0.671   4.060   7.875 -0.2568  0.9601  0.2217
  645TIP3    H223495   0.537   4.096   7.814  0.1215 -0.1385 -1.2938
  646TIP3   OH223496   1.861   1.699   7.105  0.2346 -0.4419 -0.6614
  646TIP3    H123497   1.774   1.686   7.067 -0.1107  0.0623 -0.0435
  646TIP3    H223498   1.868   1.794   7.118  0.9871 -0.4466 -0.9686
  647TIP3   OH223499   2.380   7.128   1.340 -0.1933 -0.1035  0.4141
  647TIP3    H123500   2.433   7.051   1.360 -1.3524 -1.0402 -0.0928
  647TIP3    H223501   2.315   7.097   1.278 -0.4710  1.3660 -0.0496
  648TIP3   OH223502   3.697   2.029   6.823  0.2293 -0.0733 -0.6282
  648TIP3    H123503   3.673   2.014   6.731 -2.5103  0.6010 -0.0795
  648TIP3    H223504   3.641   2.102   6.850  1.4155  0.0965  1.4272
  649TIP3   OH223505   2.198   1.288   7.164  0.8799 -0.1483 -0.1798
  649TIP3    H123506   2.206   1.225   7.093  0.4714 -0.3002 -0.0926
  649TIP3    H223507   2.121   1.259   7.213  0.4619  0.6310 -0.3634
  650TIP3   OH223508   2.910   0.563   7.873  0.4718 -0.8251  0.6105
  650TIP3    H123509   2.888   0.635   7.814 -1.6494 -0.4740  1.7702
  650TIP3    H223510   2.948   0.606   7.950 -1.8009 -0.8214  1.7631
  651TIP3   OH223511   4.812   6.882   8.352  0.6691  0.4247  0.5169
  651TIP3    H123512   4.876   6.903   8.284  0.1280  2.4812  0.5973
  651TIP3    H223513   4.743   6.947   8.340  0.2634  0.4132  2.6338
  652TIP3   OH223514   1.313   6.493   0.820 -0.1013  0.0307  0.1693
  652TIP3    H123515   1.253   6.426   0.789  0.6263  0.0058 -1.2484
  652TIP3    H223516   1.379   6.500   0.750  0.3021  1.6102  0.6838
  653TIP3   OH223517   4.587   6.405   6.722  0.0248  0.0485  0.0259
  653TIP3    H123518   4.638   6.326   6.741  0.5873  0.6342  0.9997
  653TIP3    H223519   4.500   6.386   6.759  0.3871  0.1964  0.9548
  654TIP3   OH223520   2.674   1.396   0.776  0.4152  0.0796 -0.1622
  654TIP3    H123521   2.709   1.464   0.718  0.1765  0.6367  0.3413
  654TIP3    H223522   2.749   1.369   0.828  0.5492 -0.1698 -0.4784
  655TIP3   OH223523   3.709   0.877   8.407 -0.0444  0.1755  0.3196
  655TIP3    H123524   3.673   0.808   8.463  0.5031  0.6803  1.3038
  655TIP3    H223525   3.684   0.959   8.449 -2.0211  0.6484 -1.6616
  656TIP3   OH223526   2.599   0.732   7.415 -0.2923 -0.1723 -0.2562
  656TIP3    H123527   2.574   0.644   7.443  1.7389 -0.2557  1.4641
  656TIP3    H223528   2.555   0.790   7.476 -1.4309  0.0021 -1.2353
  657TIP3   OH223529   2.557   3.161   6.331 -1.1135  0.1937  0.2083
  657TIP3    H123530   2.639   3.152   6.379 -2.8448 -0.4274  3.1532
  657TIP3    H223531   2.554   3.253   6.306  0.5643  0.1811 -0.1368
  658TIP3   OH223532   1.736   5.979   7.441  0.5988  0.5545 -0.0486
  658TIP3    H123533   1.663   5.935   7.483  1.5138  0.3971  1.3966
  658TIP3    H223534   1.814   5.939   7.478  1.4556 -0.5307 -2.8954
  659TIP3   OH223535   4.096   0.070   1.456  0.1217 -0.1017  0.2890
  659TIP3    H123536   4.178   0.108   1.488  0.9840 -1.5794 -0.0744
  659TIP3    H223537   4.124  -0.004   1.402 -1.4826 -2.2214  2.2107
  660TIP3   OH223538   2.957   7.006   7.626  0.0166  0.0993 -0.2114
  660TIP3    H123539   3.000   7.052   7.698 -1.1374  1.3554 -0.2989
  660TIP3    H223540   2.888   6.955   7.667 -0.1570  0.2252 -0.3441
  661TIP3   OH223541   4.446   6.926   7.382  0.6724 -0.0606 -0.5275
  661TIP3    H123542   4.472   6.835   7.391  0.0457 -0.3502 -1.5627
  661TIP3    H223543   4.438   6.958   7.472 -0.1872 -1.3233 -0.1453
  662TIP3   OH223544   3.221   1.454   7.132 -0.3329 -0.5702  0.8490
  662TIP3    H123545   3.300   1.430   7.180 -0.7978  0.2476  2.0478
  662TIP3    H223546   3.246   1.448   7.040  2.0627  2.7477  1.2032
  663TIP3   OH223547   4.029   6.393   0.990  0.0611  0.2029 -0.0301
  663TIP3    H123548   4.095   6.324   0.996 -0.0452  0.0573 -0.4604
  663TIP3    H223549   4.074   6.465   0.946 -0.0356  0.1344 -0.2468
  664TIP3   OH223550   1.916   1.351   5.770  0.4828 -0.2734 -0.6379
  664TIP3    H123551   1.994   1.326   5.722  1.5749 -1.3239  1.5889
  664TIP3    H223552   1.949   1.400   5.846 -0.6769 -3.6412  2.2091
  665TIP3   OH223553   1.999   1.999   6.065 -0.1096 -0.0771  0.3928
  665TIP3    H123554   2.093   1.983   6.077  0.0000  1.0108  1.1052
  665TIP3    H223555   1.966   1.918   6.026  0.8580 -1.0578  1.5142
  666TIP3   OH223556   0.490   0.960   7.549  0.1362 -0.2555  0.3832
  666TIP3    H123557   0.578   0.950   7.513  0.0048  0.7549 -0.2312
  666TIP3    H223558   0.494   0.916   7.634  0.6461 -1.9926 -0.5279
  667TIP3   OH223559   2.741   3.094   0.061  0.2890 -0.2157 -0.2055
  667TIP3    H123560   2.800   3.157   0.102 -0.4510 -0.7512  1.7501
  667TIP3    H223561   2.798   3.029   0.021  1.0215  0.0885  0.3389
  668TIP3   OH223562   2.325   0.896   7.227  0.1242  0.0711 -0.1491
  668TIP3    H123563   2.348   0.819   7.175  1.8051  1.6551 -1.8215
  668TIP3    H223564   2.253   0.937   7.178 -0.8233 -0.4451  0.7834
  669TIP3   OH223565   5.044   5.283   0.071  0.8133 -0.0726  0.1396
  669TIP3    H123566   5.106   5.223   0.029  1.0837 -0.6592  1.3524
  669TIP3    H223567   5.051   5.263   0.164 -0.2493  0.7673  0.4072
  670TIP3   OH223568   3.356   1.465   6.373  0.1688  0.1238 -0.2778
  670TIP3    H123569   3.307   1.458   6.455  2.3162  1.8608  1.1967
  670TIP3    H223570   3.394   1.378   6.360 -1.2695 -0.5424 -0.1841
  671TIP3   OH223571   3.582   2.834   7.430 -0.2661 -0.2561 -0.2520
  671TIP3    H123572   3.624   2.860   7.348  0.8364 -1.8691 -0.2200
  671TIP3    H223573   3.494   2.806   7.403  0.2645 -1.2774 -0.9710
  672TIP3   OH223574   2.330   2.956   7.223 -0.1516 -0.2162 -0.3656
  672TIP3    H123575   2.408   2.994   7.181  0.0838 -0.9362 -0.5913
  672TIP3    H223576   2.263   2.958   7.154 -0.2073  0.0001 -0.3065
  673TIP3   OH223577   2.969   0.603   6.428 -0.1935 -0.0584 -0.0318
  673TIP3    H123578   2.909   0.532   6.406 -1.0050  0.4912  0.3848
  673TIP3    H223579   2.914   0.681   6.431  0.5267  0.4374  0.4509
  674TIP3   OH223580   1.993   1.246   6.401 -0.6280 -0.2262  0.1584
  674TIP3    H123581   2.018   1.262   6.310 -2.2260  0.8490 -0.1190
  674TIP3    H223582   1.920   1.184   6.396  0.6186 -1.7692  0.8298
  675TIP3   OH223583   3.858   5.503   1.786  0.0832  0.2578  0.1651
  675TIP3    H123584   3.931   5.566   1.786  1.0638 -0.8647 -0.6438
  675TIP3    H223585   3.891   5.428   1.835 -1.3776  0.6796  1.8452
  676TIP3   OH223586   4.341   5.872   8.031 -0.0424  0.5125 -0.1593
  676TIP3    H123587   4.367   5.826   7.951 -0.7434 -1.0740  0.4981
  676TIP3    H223588   4.266   5.925   8.005 -2.1372 -2.2345  0.0371
  677TIP3   OH223589   3.517   0.212   6.319 -0.3666 -0.2726  0.1133
  677TIP3    H123590   3.590   0.151   6.324  0.1431  0.4357  1.6020
  677TIP3    H223591   3.542   0.274   6.251 -0.6535 -1.4012 -1.0349
  678TIP3   OH223592   3.399   4.730   0.633  0.5813 -0.4552  0.7209
  678TIP3    H123593   3.449   4.786   0.574  0.0747 -1.1655 -0.3831
  678TIP3    H223594   3.401   4.776   0.717  0.9675  0.7472  0.0567
  679TIP3   OH223595   3.148   2.690   7.153 -0.3247 -0.4525  0.5835
  679TIP3    H123596   3.172   2.744   7.078 -0.6040 -1.4098 -0.2066
  679TIP3    H223597   3.139   2.601   7.117 -1.2033 -0.7896  1.6035
  680TIP3   OH223598   0.665   0.709   7.841  0.0878 -0.2603 -1.0470
  680TIP3    H123599   0.612   0.789   7.850  1.0205  0.1028  1.5931
  680TIP3    H223600   0.738   0.735   7.784  1.0925  1.1895  0.8371
  681TIP3   OH223601   3.442   0.093   0.703 -0.0518 -0.1394  0.1237
  681TIP3    H123602   3.453   0.187   0.718  0.3030 -0.1189 -0.2823
  681TIP3    H223603   3.364   0.071   0.754 -0.1099  0.3647  0.2624
  682TIP3   OH223604   3.940   7.254   6.847  0.1602  0.2249  0.3309
  682TIP3    H123605   3.872   7.290   6.903  0.3160  1.3006 -0.1558
  682TIP3    H223606   3.956   7.166   6.881  0.9626  1.2132  2.5978
  683TIP3   OH223607   3.114   1.472   7.570 -0.1824 -1.1956  0.2354
  683TIP3    H123608   3.061   1.418   7.629 -0.0980 -1.1639  0.3413
  683TIP3    H223609   3.117   1.423   7.488 -0.8671 -0.9189  0.0427
  684TIP3   OH223610   1.528   0.346   7.002  0.3550  0.0838  0.0663
  684TIP3    H123611   1.538   0.275   7.066 -0.9292 -0.2458 -0.0789
  684TIP3    H223612   1.576   0.419   7.040 -0.0600 -0.2304  1.2338
  685TIP3   OH223613   5.280   0.339   6.746  0.6454 -0.0788  0.3088
  685TIP3    H123614   5.190   0.362   6.725  1.1035  1.1058 -0.4307
  685TIP3    H223615   5.273   0.268   6.809 -0.8205  0.4705  0.7834
  686TIP3   OH223616   0.588   5.924   7.626 -0.1611  0.7260  0.1787
  686TIP3    H123617   0.639   5.927   7.545 -0.6073  0.9835 -0.0945
  686TIP3    H223618   0.593   6.013   7.661 -2.9504  1.5774 -1.4278
  687TIP3   OH223619   3.162   0.186   6.416  0.1339  0.6915  0.3788
  687TIP3    H123620   3.240   0.131   6.430  1.3747  2.5195  0.8378
  687TIP3    H223621   3.197   0.268   6.381 -1.3919  2.2157  2.3369
  688TIP3   OH223622   2.625   0.358   7.663  0.0383  0.3043  0.3418
  688TIP3    H123623   2.575   0.390   7.738 -0.0893  0.4074  0.2121
  688TIP3    H223624   2.565   0.367   7.589  0.2991  0.5662  0.1629
  689TIP3   OH223625   6.963   2.709   8.068 -0.0357  0.1600  0.1783
  689TIP3    H123626   7.039   2.658   8.039  1.0618  0.0906  3.0075
  689TIP3    H223627   6.943   2.673   8.155 -2.2283  1.3578  0.1811
  690TIP3   OH223628   2.373   2.787   6.488  1.1307  0.3428 -0.1606
  690TIP3    H123629   2.367   2.786   6.393 -1.1859 -0.5412 -0.0241
  690TIP3    H223630   2.442   2.724   6.508 -0.7100 -2.0232 -1.1215
  691TIP3   OH223631   2.040   0.033   8.127  0.5260 -0.2297  0.2204
  691TIP3    H123632   2.086   0.110   8.094 -1.5959  1.4499  1.1263
  691TIP3    H223633   2.104  -0.038   8.118  2.2359  1.4551 -1.3565
  692TIP3   OH223634   3.277   0.992   7.034 -0.2275  0.0559 -0.7717
  692TIP3    H123635   3.316   1.044   6.964 -1.1037  0.0154 -1.2892
  692TIP3    H223636   3.185   1.016   7.034  0.2826  2.3388  2.3676
  693TIP3   OH223637   4.499   6.772   6.483  0.5319  0.2500 -0.1696
  693TIP3    H123638   4.408   6.791   6.506  0.2084 -1.2715 -0.1747
  693TIP3    H223639   4.538   6.743   6.566  1.0307  0.9481 -0.1578
  694TIP3   OH223640   0.991   2.974   0.573  0.9193 -0.7382 -0.0270
  694TIP3    H123641   0.948   3.053   0.606  0.5113 -0.9104 -0.1473
  694TIP3    H223642   1.064   3.006   0.521 -0.5262 -0.3825 -1.8852
  695TIP3   OH223643   3.596   1.695   6.739 -0.2268  0.0462  0.1800
  695TIP3    H123644   3.502   1.713   6.744 -0.3657 -1.0137  1.8825
  695TIP3    H223645   3.628   1.754   6.670 -2.2088  0.0723 -0.7699
  696TIP3   OH223646   3.426   1.207   0.609 -0.0057  0.0381 -0.0990
  696TIP3    H123647   3.346   1.247   0.575  0.0076  0.8170  0.7608
  696TIP3    H223648   3.495   1.236   0.549 -0.0991  0.7952  0.1486
  697TIP3   OH223649   1.546   2.257   6.901  0.6878 -0.4004 -0.3558
  697TIP3    H123650   1.563   2.351   6.891 -0.2929 -0.0481  1.1263
  697TIP3    H223651   1.631   2.216   6.887  1.4852  0.8550  0.6647
  698TIP3   OH223652   2.894   2.307   1.210  0.1062 -0.0118  0.0150
  698TIP3    H123653   2.855   2.313   1.297  0.2695  0.3171  0.0632
  698TIP3    H223654   2.939   2.222   1.210  0.9747  0.4523  0.6060
  699TIP3   OH223655   1.884   4.280   7.951  0.1380 -0.5078  0.5174
  699TIP3    H123656   1.804   4.279   8.005  0.4035 -1.6193  0.8984
  699TIP3    H223657   1.852   4.284   7.861 -0.3534 -0.7348  0.6779
  700TIP3   OH223658   3.628   0.664   7.670  0.1965  0.4008 -0.3340
  700TIP3    H123659   3.592   0.611   7.599  1.1288 -1.0750  0.2837
  700TIP3    H223660   3.720   0.676   7.647 -0.0152  1.8097 -0.4965
  701TIP3   OH223661   0.567   0.912   6.916 -0.2099 -0.5902 -0.2345
  701TIP3    H123662   0.564   0.909   6.820 -0.9907  2.9804 -0.3674
  701TIP3    H223663   0.660   0.913   6.937 -0.0371 -0.2369 -1.0012
  702TIP3   OH223664   3.202   0.392   6.741 -0.2523  0.0293 -0.5259
  702TIP3    H123665   3.161   0.307   6.759  2.9814 -1.7028 -1.0109
  702TIP3    H223666   3.264   0.374   6.670  1.4128  2.5198  0.2338
  703TIP3   OH223667   2.349   6.313   6.208 -0.2881 -0.0244  0.0795
  703TIP3    H123668   2.405   6.386   6.233  0.6474  0.1253 -2.3840
  703TIP3    H223669   2.371   6.244   6.271  0.6214  0.9770  0.8724
  704TIP3   OH223670   4.710   6.367   7.000 -0.2357  1.1475 -0.1861
  704TIP3    H123671   4.621   6.369   7.035  0.3479  1.7026  1.2745
  704TIP3    H223672   4.718   6.281   6.959 -1.0712  0.6600  0.6693
  705TIP3   OH223673   3.867   5.557   7.777 -0.6874  0.3071 -0.2908
  705TIP3    H123674   3.831   5.630   7.728 -0.3946 -0.7108 -2.0484
  705TIP3    H223675   3.871   5.485   7.714 -0.3227 -1.0261  1.2248
  706TIP3   OH223676   2.137   5.773   6.865 -0.5453 -0.0594 -0.4359
  706TIP3    H123677   2.178   5.819   6.791  1.8780  0.1600  0.9911
  706TIP3    H223678   2.181   5.688   6.867  1.7261  1.0871  2.6312
  707TIP3   OH223679   1.462   0.760   7.874 -0.3556 -0.1771  0.3101
  707TIP3    H123680   1.475   0.848   7.841 -1.4732  0.1809  0.7699
  707TIP3    H223681   1.393   0.770   7.940  1.3977 -0.9561  2.2993
  708TIP3   OH223682   3.225   7.066   6.002  0.6281  0.6460  0.0617
  708TIP3    H123683   3.182   7.048   5.918  0.6490  1.6453 -0.1748
  708TIP3    H223684   3.217   7.161   6.012 -1.1616  0.2890  2.1912
  709TIP3   OH223685   3.330   6.962   6.244 -0.2703 -0.4866 -0.2672
  709TIP3    H123686   3.280   6.979   6.324 -0.2794  0.7064 -0.5123
  709TIP3    H223687   3.291   7.020   6.178  1.3849  0.4308 -0.4774
  710TIP3   OH223688   1.180   1.426   6.926 -0.1621 -0.0752 -0.3670
  710TIP3    H123689   1.150   1.500   6.872  0.1278  0.3046 -0.0142
  710TIP3    H223690   1.178   1.460   7.015 -2.1580 -1.2053  0.0278
  711TIP3   OH223691   1.453   0.822   6.620 -0.0512  0.0228 -0.5702
  711TIP3    H123692   1.413   0.908   6.602 -1.3683 -0.4702 -0.0672
  711TIP3    H223693   1.510   0.838   6.695 -1.0408  0.2566  0.1390
  712TIP3   OH223694   3.507   7.182   7.290  0.0411  0.2748  0.0345
  712TIP3    H123695   3.510   7.277   7.288  1.1293  0.2598  0.4607
  712TIP3    H223696   3.417   7.160   7.312  0.4560  1.2512  2.7915
  713TIP3   OH223697   4.249   6.735   0.034 -0.5964 -0.0386  0.0772
  713TIP3    H123698   4.333   6.776   0.015 -1.7619  1.7583 -1.3164
  713TIP3    H223699   4.189   6.769  -0.032 -1.7469 -3.6182 -0.8713
  714TIP3   OH223700   2.960   6.377   7.348 -0.4159  0.2189 -0.6662
  714TIP3    H123701   2.903   6.381   7.424  1.2908 -2.0515  0.8058
  714TIP3    H223702   2.909   6.330   7.281 -0.4462 -1.4979  0.5242
  715TIP3   OH223703   2.280   7.013   7.562  0.1161 -0.0639  0.3715
  715TIP3    H123704   2.339   6.938   7.562  0.8253  0.4871  1.1803
  715TIP3    H223705   2.193   6.974   7.576  0.3276 -0.8381 -0.4173
  716TIP3   OH223706   1.433   0.932   8.367 -0.0484 -0.1505 -0.0381
  716TIP3    H123707   1.526   0.943   8.346  0.0420 -0.2594  0.3036
  716TIP3    H223708   1.424   0.838   8.384  0.0030  0.0229  1.0002
  717TIP3   OH223709   4.826   1.152   6.828 -0.5533  0.2208  0.2147
  717TIP3    H123710   4.885   1.086   6.864 -0.6333 -0.5456 -1.0318
  717TIP3    H223711   4.867   1.235   6.851  0.6479 -0.2909 -0.0204
  718TIP3   OH223712   5.089   2.425   6.655  0.1387  0.0275 -0.0609
  718TIP3    H123713   5.101   2.330   6.657 -0.0030  0.0258  1.6183
  718TIP3    H223714   5.077   2.450   6.747 -2.5887  1.2990 -0.6894
  719TIP3   OH223715   3.542   0.309   7.059  0.6044  0.1832 -0.5202
  719TIP3    H123716   3.525   0.378   6.995  1.0991 -0.3200 -1.1945
  719TIP3    H223717   3.488   0.235   7.031  0.7073  0.0098 -0.2713
  720TIP3   OH223718   5.381   1.385   6.619  0.4037 -0.2142  0.2988
  720TIP3    H123719   5.341   1.324   6.557 -0.9327  0.6480  0.2884
  720TIP3    H223720   5.380   1.469   6.573  0.7884  0.1238  0.9104
  721TIP3   OH223721   3.663   3.765   7.050  0.1343 -0.2158 -0.1007
  721TIP3    H123722   3.642   3.842   6.996 -0.1037 -0.4261 -0.3089
  721TIP3    H223723   3.579   3.721   7.063  0.0097  0.4352  1.3779
  722TIP3   OH223724   3.747   6.209   6.742  0.4220 -0.4052 -0.1960
  722TIP3    H123725   3.800   6.179   6.668  1.0131  1.0198 -0.3654
  722TIP3    H223726   3.676   6.259   6.702  0.0833 -0.6265  0.1338
  723TIP3   OH223727   4.759   7.198   7.164  0.2284 -0.1764  0.1723
  723TIP3    H123728   4.779   7.139   7.237  0.9875  0.2572  0.3192
  723TIP3    H223729   4.792   7.152   7.087  0.5185 -0.0962  0.2477
  724TIP3   OH223730   2.627   0.701   6.898  0.2803  0.1561  0.2204
  724TIP3    H123731   2.610   0.646   6.974  0.9710  2.4584  2.0925
  724TIP3    H223732   2.721   0.692   6.883  0.2011 -0.0387 -0.1637
  725TIP3   OH223733   4.021   0.520   6.943 -0.3282 -0.0279  0.3693
  725TIP3    H123734   3.926   0.519   6.943 -0.3581  1.0676 -0.9779
  725TIP3    H223735   4.046   0.429   6.963 -1.6291 -0.0838  1.8177
  726TIP3   OH223736   6.114   6.786   6.093 -1.2263  0.3245  0.6637
  726TIP3    H123737   6.138   6.694   6.078 -0.4932  0.7153 -0.5911
  726TIP3    H223738   6.142   6.803   6.184  1.8227  0.2863 -0.2058
  727TIP3   OH223739   2.663   0.557   7.157  0.1923  0.2665 -0.1976
  727TIP3    H123740   2.717   0.480   7.171  0.0597  0.1949 -0.0731
  727TIP3    H223741   2.576   0.531   7.187  0.1797  0.5095 -0.0228
  728TIP3   OH223742   5.586   0.320   7.391  0.1601 -0.3197 -0.1669
  728TIP3    H123743   5.674   0.309   7.426  0.5400 -1.2146 -1.3861
  728TIP3    H223744   5.558   0.231   7.369 -1.1296 -0.0665  0.4114
  729TIP3   OH223745   5.606   0.865   6.572  0.1738 -0.0316  0.0002
  729TIP3    H123746   5.676   0.849   6.509 -0.7056  0.1195 -1.0181
  729TIP3    H223747   5.607   0.960   6.585 -1.6967  0.3419 -2.2119
  730TIP3   OH223748   4.815   7.067   6.907 -0.2032  0.2249  0.2647
  730TIP3    H123749   4.726   7.043   6.883 -0.1651  1.3355 -1.0044
  730TIP3    H223750   4.866   6.988   6.893 -0.9952 -0.4471  1.0999
  731TIP3   OH223751   4.300   7.246   6.917 -0.2757 -0.3756  0.3160
  731TIP3    H123752   4.309   7.191   6.994 -1.5591  0.5589  1.1576
  731TIP3    H223753   4.289   7.185   6.845  1.5916 -1.2781  0.7606
  732TIP3   OH223754   6.449   0.574   6.210  0.4862  0.0160  0.1270
  732TIP3    H123755   6.521   0.554   6.270  2.2056 -0.1312 -1.9315
  732TIP3    H223756   6.453   0.669   6.200 -0.3921  0.1521  0.9176
  733TIP3   OH223757   3.540   1.981   7.554  0.7454  0.0760 -0.0660
  733TIP3    H123758   3.623   1.979   7.601  0.1658  0.3820  0.9838
  733TIP3    H223759   3.538   1.898   7.506  0.6753 -0.9467  1.6443
  734TIP3   OH223760   4.584   0.778   7.822  0.3138 -0.1911 -0.3617
  734TIP3    H123761   4.525   0.712   7.785  0.9953  0.7624 -3.2055
  734TIP3    H223762   4.632   0.812   7.747  4.0830 -0.4998  1.8128
  735TIP3   OH223763   1.575   1.867   0.097 -0.1663 -0.0875  0.0638
  735TIP3    H123764   1.635   1.875   0.170 -1.2980  2.2388  0.7775
  735TIP3    H223765   1.512   1.938   0.109 -0.5997  0.1145 -2.9564
  736TIP3   OH223766   5.534   0.428   6.181 -0.1234  0.2332 -0.6073
  736TIP3    H123767   5.479   0.450   6.106 -0.1928 -2.4830 -1.3923
  736TIP3    H223768   5.609   0.383   6.143  0.3711 -0.2040  0.8680
  737TIP3   OH223769   4.802   1.212   7.103 -0.4066  0.0746 -0.4012
  737TIP3    H123770   4.720   1.184   7.143  1.0528 -0.6287  2.1605
  737TIP3    H223771   4.866   1.147   7.130  1.1084  0.8295 -2.0638
  738TIP3   OH223772   3.512   2.235   6.818  0.1876  0.2204 -0.1211
  738TIP3    H123773   3.475   2.296   6.882 -1.2944 -0.2123 -0.5426
  738TIP3    H223774   3.468   2.257   6.736  1.9721  0.6808 -0.9828
  739TIP3   OH223775   4.548   1.179   6.843 -0.0130  0.4319 -0.2145
  739TIP3    H123776   4.641   1.162   6.854 -0.4554 -1.8497  0.1820
  739TIP3    H223777   4.533   1.259   6.893  1.6597  0.6293  0.0143
  740TIP3   OH223778   2.796   0.448   6.671 -0.5101 -0.7066  0.1586
  740TIP3    H123779   2.763   0.509   6.605  0.2160  0.0704  0.5156
  740TIP3    H223780   2.717   0.404   6.704 -1.0931  0.4697  0.3439
  741TIP3   OH223781   3.809   6.935   6.723  0.0706 -0.3966 -0.1687
  741TIP3    H123782   3.791   6.842   6.731 -1.5412 -0.2017 -1.1690
  741TIP3    H223783   3.890   6.949   6.771 -0.1812 -2.1412  0.7791
  742TIP3   OH223784   6.034   2.365   6.808  0.2128 -0.1212 -1.0655
  742TIP3    H123785   6.070   2.292   6.758  0.9530 -2.1199  2.2451
  742TIP3    H223786   6.103   2.388   6.870 -1.5164  0.7467  0.5914
  743TIP3   OH223787   5.052   0.900   6.535 -0.0537 -0.1859  0.4702
  743TIP3    H123788   5.137   0.938   6.557 -0.5136  1.0234  0.1801
  743TIP3    H223789   5.064   0.864   6.447 -0.2712  1.3371 -0.1938
  744TIP3   OH223790   6.155   6.273   7.009  0.3163 -0.2286  0.4187
  744TIP3    H123791   6.121   6.258   6.921 -0.4041  0.5058  0.5646
  744TIP3    H223792   6.180   6.186   7.040 -0.1838 -0.6036 -0.2122
  745TIP3   OH223793   4.667   6.596   7.821 -0.0892 -0.1098 -0.2592
  745TIP3    H123794   4.714   6.670   7.859 -1.0746  1.2188 -1.5936
  745TIP3    H223795   4.646   6.540   7.896  1.1704  0.6645  0.6889
  746TIP3   OH223796   4.967   3.211   7.136  0.1576 -0.0188 -0.1825
  746TIP3    H123797   5.033   3.274   7.162 -0.2406  0.6556 -0.7895
  746TIP3    H223798   4.884   3.258   7.142 -0.2582 -0.8209  0.4668
  747TIP3   OH223799   5.270   6.164   7.111 -0.5444  0.0455 -0.5030
  747TIP3    H123800   5.285   6.254   7.082 -0.8672 -0.1324 -1.2203
  747TIP3    H223801   5.195   6.134   7.059 -1.7836  0.0733  1.2383
  748TIP3   OH223802   3.389   1.397   8.395 -0.0514 -0.5374  0.1541
  748TIP3    H123803   3.295   1.392   8.378 -0.4542  1.0122  1.7989
  748TIP3    H223804   3.425   1.318   8.356 -2.0857 -1.2968 -0.2082
  749TIP3   OH223805   1.853   1.377   7.154  0.4988 -0.1729  0.0450
  749TIP3    H123806   1.912   1.362   7.080  0.3346 -0.7146  0.0205
  749TIP3    H223807   1.779   1.424   7.117  1.5052  1.6555  0.3195
  750TIP3   OH223808   4.418   0.411   6.980  0.6422 -0.1584 -0.0142
  750TIP3    H123809   4.356   0.480   7.001 -1.9229 -2.0545 -1.1318
  750TIP3    H223810   4.503   0.455   6.974 -0.9175  2.8421 -0.5709
  751TIP3   OH223811   4.305   0.110   8.068  0.1761  0.0281 -0.0785
  751TIP3    H123812   4.236   0.076   8.011  1.8435 -2.4015 -0.7100
  751TIP3    H223813   4.296   0.205   8.061 -2.6120 -0.2360 -0.7230
  752TIP3   OH223814   4.183   2.027   7.007  0.0274 -0.7528 -0.2400
  752TIP3    H123815   4.239   2.069   7.073  1.6666 -2.5158 -0.4789
  752TIP3    H223816   4.099   2.072   7.016  1.7248  2.6659 -0.5799
  753TIP3   OH223817   3.667   0.008   6.973 -0.3090 -0.4976  0.1123
  753TIP3    H123818   3.584   0.024   7.018 -0.2564  0.0268  0.0257
  753TIP3    H223819   3.715  -0.051   7.031 -0.9979 -1.3106 -0.1303
  754TIP3   OH223820   5.838   1.170   1.438  0.0530 -0.4678  0.5348
  754TIP3    H123821   5.815   1.219   1.360  1.2358 -1.0038 -0.1586
  754TIP3    H223822   5.770   1.193   1.502  0.1098  1.4013 -0.0431
  755TIP3   OH223823   4.655   0.233   6.423 -0.0202 -0.1762 -0.4091
  755TIP3    H123824   4.720   0.272   6.482  0.7558  1.2010 -2.1402
  755TIP3    H223825   4.666   0.139   6.435  0.6532  0.0699  1.0642
  756TIP3   OH223826   5.764   5.894   7.040  0.5895  0.2128  0.3022
  756TIP3    H123827   5.724   5.812   7.068  1.5145  0.2776  1.8805
  756TIP3    H223828   5.708   5.962   7.076  1.0047  0.2833  0.8235
  757TIP3   OH223829   4.347   1.096   1.403 -0.3344 -0.0569  0.1053
  757TIP3    H123830   4.386   1.038   1.338 -2.0988 -0.6387 -0.4590
  757TIP3    H223831   4.397   1.079   1.483  2.3302  1.1959 -1.2331
  758TIP3   OH223832   3.480   0.263   7.516 -0.1845  0.1223  0.0690
  758TIP3    H123833   3.424   0.256   7.593  0.0367  1.9512  0.4146
  758TIP3    H223834   3.420   0.254   7.442 -0.5842 -0.3672  0.4539
  759TIP3   OH223835   2.987   2.007   7.489 -0.2661 -0.7488 -0.0955
  759TIP3    H123836   3.051   2.009   7.561  2.1024  1.3245 -2.1638
  759TIP3    H223837   2.915   2.063   7.520  1.3937  1.3384  0.1555
  760TIP3   OH223838   4.957   0.658   7.170  0.0361  0.0664 -0.3271
  760TIP3    H123839   5.025   0.651   7.237  0.2151 -0.2664 -0.5379
  760TIP3    H223840   4.925   0.568   7.159 -0.2472  0.1770 -0.4255
  761TIP3   OH223841   2.446   2.119   6.882 -0.5724  0.5287 -0.6301
  761TIP3    H123842   2.432   2.212   6.863  0.2120  0.9662  0.8381
  761TIP3    H223843   2.415   2.109   6.972  1.2252 -0.1877 -0.0699
  762TIP3   OH223844   5.311   1.207   6.452 -0.4979  0.0917  0.1323
  762TIP3    H123845   5.320   1.116   6.479  0.7272 -0.1510 -1.0440
  762TIP3    H223846   5.257   1.203   6.373 -0.6534  0.4048  0.2227
  763TIP3   OH223847   0.208   0.120   7.721  0.2313 -0.1124 -0.6116
  763TIP3    H123848   0.281   0.060   7.737  0.4657  0.5121  0.6786
  763TIP3    H223849   0.248   0.207   7.723 -0.6126  0.2466  0.4280
  764TIP3   OH223850   3.187   1.140   6.720  0.0972  0.1660 -0.3693
  764TIP3    H123851   3.172   1.048   6.743 -1.0484  0.9417  2.2480
  764TIP3    H223852   3.106   1.184   6.747  1.0128  2.0871 -0.7015
  765TIP3   OH223853   5.047   5.305   7.838  0.4902 -0.2244  0.2740
  765TIP3    H123854   5.056   5.330   7.930 -0.4901 -1.0112  0.5888
  765TIP3    H223855   5.137   5.287   7.809  0.6334 -1.4906  1.4966
  766TIP3   OH223856   5.373   6.409   6.963  0.0132 -0.8479  0.3735
  766TIP3    H123857   5.370   6.441   6.873  1.7879  0.3287  0.7019
  766TIP3    H223858   5.458   6.439   6.996 -0.6488 -1.2076  2.4605
  767TIP3   OH223859   3.331   0.940   7.493 -0.5175 -0.6657 -0.0827
  767TIP3    H123860   3.300   0.850   7.480 -0.5539 -0.6828  0.1195
  767TIP3    H223861   3.372   0.964   7.410 -1.4148 -0.5066 -0.4816
  768TIP3   OH223862   4.090   0.278   5.957 -0.1794  0.5071 -0.2215
  768TIP3    H123863   4.106   0.372   5.957 -0.7128  0.5984 -0.3393
  768TIP3    H223864   4.047   0.262   6.041 -0.3654  0.4142 -0.3357
  769TIP3   OH223865   5.346   0.182   7.127  0.2893 -0.0240 -0.4164
  769TIP3    H123866   5.418   0.226   7.082  0.2546  0.3528 -0.1100
  769TIP3    H223867   5.306   0.126   7.061  1.3342 -0.8158 -0.4117
  770TIP3   OH223868   3.730   0.511   6.984  0.9348 -0.0501 -0.1051
  770TIP3    H123869   3.638   0.510   7.007  0.8538  1.2543 -0.3564
  770TIP3    H223870   3.739   0.441   6.919  0.0596  0.0430 -0.3316
  771TIP3   OH223871   3.556   0.596   6.241  0.2137 -0.3232 -0.9075
  771TIP3    H123872   3.490   0.661   6.220  1.2631  1.8242  2.1443
  771TIP3    H223873   3.636   0.629   6.200  0.2852 -0.7960 -1.1498
  772TIP3   OH223874   5.906   0.554   0.135  0.6076  0.1910 -0.0981
  772TIP3    H123875   5.827   0.504   0.114 -0.2074  0.8068  1.4136
  772TIP3    H223876   5.977   0.490   0.129 -0.2273 -0.7906  0.2935
  773TIP3   OH223877   5.979   1.170   6.257 -0.3277  0.3134  0.0138
  773TIP3    H123878   6.053   1.109   6.258  0.0831  0.8095  0.3246
  773TIP3    H223879   5.911   1.124   6.209 -0.7709 -1.2806  2.0718
  774TIP3   OH223880   4.038   2.181   7.723 -0.9210  0.3504  0.1468
  774TIP3    H123881   4.026   2.248   7.790 -0.7231  0.7620 -0.2253
  774TIP3    H223882   4.110   2.213   7.670  0.6118 -1.2020  1.2500
  775TIP3   OH223883   3.660   0.197   7.738  0.2618 -0.0733  0.0147
  775TIP3    H123884   3.691   0.107   7.748  0.6036  0.1971  1.6400
  775TIP3    H223885   3.603   0.194   7.662  1.5608 -1.3158 -0.9453
  776TIP3   OH223886   2.343   3.214   7.552  0.1547  0.4073  0.1737
  776TIP3    H123887   2.263   3.250   7.590  0.8790  2.6224 -0.3517
  776TIP3    H223888   2.335   3.231   7.459 -0.5177 -2.8974 -0.4552
  777TIP3   OH223889   5.761   2.007   1.490 -0.0383 -0.1637  0.0742
  777TIP3    H123890   5.804   2.001   1.575  1.4958  2.1897 -0.5010
  777TIP3    H223891   5.721   1.921   1.477  3.6472 -2.0922  1.0603
  778TIP3   OH223892   4.049   0.621   6.290 -0.0197 -0.2208 -0.1051
  778TIP3    H123893   4.014   0.533   6.299 -0.2230 -0.4427 -2.8295
  778TIP3    H223894   4.063   0.651   6.380 -0.2127 -2.9080  0.8383
  779TIP3   OH223895   3.720   5.769   7.653 -0.2981 -0.1065 -0.4791
  779TIP3    H123896   3.721   5.833   7.582 -1.5741 -0.6938 -1.0374
  779TIP3    H223897   3.655   5.704   7.626  1.6370 -2.1520 -0.3650
  780TIP3   OH223898   6.314   6.327   6.686 -0.4356 -0.0991  0.3838
  780TIP3    H123899   6.272   6.384   6.622  1.1126  0.4065 -0.1936
  780TIP3    H223900   6.264   6.245   6.682 -0.9615  0.2719 -0.7428
  781TIP3   OH223901   5.789   6.701   7.324 -0.8967  0.4270  0.5923
  781TIP3    H123902   5.839   6.635   7.372  0.1785  1.5643  1.0443
  781TIP3    H223903   5.817   6.785   7.360 -1.7243  1.1835 -0.4749
  782TIP3   OH223904   4.070   1.325   6.894  0.6234 -0.0891  0.4050
  782TIP3    H123905   4.028   1.379   6.827  0.5923 -0.1097  0.4082
  782TIP3    H223906   4.035   1.359   6.977 -0.8045 -1.3173  0.3278
  783TIP3   OH223907   5.002   0.392   7.025 -0.3327 -0.1633  0.2085
  783TIP3    H123908   4.971   0.414   6.937 -0.8152 -1.3622  0.0766
  783TIP3    H223909   5.092   0.425   7.028 -0.2353 -0.3430 -0.8162
  784TIP3   OH223910   6.087   7.279   6.844  0.9496 -0.3866 -0.1509
  784TIP3    H123911   6.013   7.235   6.803  0.4320 -1.2819  1.7052
  784TIP3    H223912   6.055   7.367   6.863  0.7038 -0.4424 -0.3096
  785TIP3   OH223913   3.650   7.010   7.024 -0.2485 -0.2618 -0.2682
  785TIP3    H123914   3.645   7.044   6.935 -0.5923  2.0222  0.5679
  785TIP3    H223915   3.733   7.044   7.058 -0.1483 -1.0614  0.2858
  786TIP3   OH223916   4.570   6.550   6.272 -0.1636  0.1518  0.1175
  786TIP3    H123917   4.586   6.627   6.218 -2.6070 -0.9828 -2.3327
  786TIP3    H223918   4.658   6.517   6.294  0.8703  2.0847 -1.0185
  787TIP3   OH223919   3.933   1.031   7.499  0.5328 -0.0874 -0.0456
  787TIP3    H123920   3.916   0.937   7.501  0.1214 -0.0340 -0.8331
  787TIP3    H223921   3.862   1.069   7.550 -0.2608 -0.0775 -1.1317
  788TIP3   OH223922   5.791   6.746   7.860  0.4059  0.2024 -0.3652
  788TIP3    H123923   5.825   6.750   7.770  1.5828  1.3608  0.1121
  788TIP3    H223924   5.704   6.786   7.854  0.7535  0.8976 -0.8589
  789TIP3   OH223925   3.883   6.240   6.986  0.3166 -0.0965  0.1935
  789TIP3    H123926   3.836   6.225   6.904 -0.0721  0.4463  0.3190
  789TIP3    H223927   3.941   6.164   6.995  1.3528  0.4965 -1.2617
  790TIP3   OH223928   4.683   0.457   7.641  0.2740  0.4149 -0.2676
  790TIP3    H123929   4.689   0.385   7.578  0.8505  1.1324 -1.0398
  790TIP3    H223930   4.596   0.494   7.626 -0.0695 -0.1839  0.2086
  791TIP3   OH223931   5.363   6.957   7.350 -0.1304 -1.3728  0.2798
  791TIP3    H123932   5.327   6.982   7.265 -2.1807  1.3445  1.8625
  791TIP3    H223933   5.457   6.975   7.343 -0.7557  1.9607 -0.4034
  792TIP3   OH223934   5.522   5.410   8.189 -0.7681  0.5847  0.0543
  792TIP3    H123935   5.586   5.383   8.123  2.2769 -0.2745  3.2235
  792TIP3    H223936   5.542   5.502   8.207 -1.4986  0.7799 -0.1146
  793TIP3   OH223937   3.352   2.130   7.088  0.4872  0.3379 -0.4341
  793TIP3    H123938   3.322   2.160   7.173  0.2551  1.0510 -0.7656
  793TIP3    H223939   3.439   2.094   7.104  0.8534  1.3837 -0.0743
  794TIP3   OH223940   5.621   7.157   0.596 -0.8969  0.1785  0.1164
  794TIP3    H123941   5.574   7.092   0.649  1.8133 -1.2672  0.8498
  794TIP3    H223942   5.642   7.227   0.657 -0.6549  0.0603  0.1670
  795TIP3   OH223943   1.360   1.812   0.987 -0.8640  0.0792 -0.3283
  795TIP3    H123944   1.410   1.776   1.060 -2.1799  0.5981  0.8627
  795TIP3    H223945   1.362   1.744   0.920 -0.0237 -0.5891  0.3640
  796TIP3   OH223946   5.761   1.360   7.147 -0.2144  0.1950 -0.7502
  796TIP3    H123947   5.846   1.336   7.183 -0.5684  0.1561  0.0830
  796TIP3    H223948   5.761   1.456   7.148  0.0271  0.1969 -1.2374
  797TIP3   OH223949   5.158   1.175   6.239 -0.2697 -0.1079  0.4652
  797TIP3    H123950   5.230   1.149   6.181 -0.6476 -0.6952  0.2625
  797TIP3    H223951   5.115   1.246   6.192  1.7696  2.0732  1.7595
  798TIP3   OH223952   4.051   0.878   7.100 -0.2797  0.0688  0.2828
  798TIP3    H123953   4.096   0.922   7.028  2.9182  0.8094  2.6269
  798TIP3    H223954   3.991   0.943   7.134 -1.5073 -0.1488 -1.4247
  799TIP3   OH223955   3.616   2.699   7.665 -0.1949 -0.5628 -0.1884
  799TIP3    H123956   3.709   2.688   7.684 -0.1232 -0.6054 -0.5622
  799TIP3    H223957   3.614   2.757   7.589 -0.4305 -1.6318 -1.0105
  800TIP3   OH223958   3.592   0.776   6.668 -0.1704 -0.8487  0.1192
  800TIP3    H123959   3.569   0.812   6.583 -1.8187 -1.4357  0.3042
  800TIP3    H223960   3.623   0.687   6.649 -0.3019 -0.8913  0.1026
  801TIP3   OH223961   5.902   0.704   6.868 -0.2948 -0.4376 -0.0998
  801TIP3    H123962   5.814   0.740   6.868 -0.5264 -0.9955 -0.4228
  801TIP3    H223963   5.944   0.744   6.791 -1.0920 -2.1452 -1.4432
  802TIP3   OH223964   4.587   1.534   7.335 -0.0122 -0.2603  0.2260
  802TIP3    H123965   4.571   1.526   7.429 -0.7343  0.5745  0.1840
  802TIP3    H223966   4.521   1.478   7.295 -0.1971 -0.0302  0.2014
  803TIP3   OH223967   4.807   7.124   6.577  0.2276  0.4415 -0.1225
  803TIP3    H123968   4.726   7.154   6.618  0.1283  0.3960 -0.2899
  803TIP3    H223969   4.781   7.055   6.517  0.5823 -0.7224  1.0346
  804TIP3   OH223970   5.558   1.003   6.211  0.1502  0.4370  0.2545
  804TIP3    H123971   5.500   1.055   6.155  1.2392  1.7215  0.2938
  804TIP3    H223972   5.541   0.912   6.186 -3.0780  0.6432  1.4194
  805TIP3   OH223973   2.991   1.305   7.735 -0.6437 -0.1262 -0.3044
  805TIP3    H123974   3.028   1.223   7.767  1.7025  0.6663 -0.9237
  805TIP3    H223975   2.962   1.351   7.814  1.5071  0.0897  0.3910
  806TIP3   OH223976   5.974   6.717   0.785 -0.2784 -0.3524  0.0361
  806TIP3    H123977   6.030   6.794   0.774 -0.3686 -0.5115 -1.5359
  806TIP3    H223978   5.900   6.749   0.838 -0.7941  0.8788 -1.4114
  807TIP3   OH223979   4.586   0.466   6.287 -0.1981 -0.3850 -0.1493
  807TIP3    H123980   4.606   0.402   6.354 -1.3949 -0.9136 -0.2779
  807TIP3    H223981   4.660   0.462   6.226  0.4230 -0.5972  0.6153
  808TIP3   OH223982   6.360   1.039   7.988 -0.7373  0.1232  0.0690
  808TIP3    H123983   6.443   0.997   7.966  0.1808  1.4305  0.9334
  808TIP3    H223984   6.374   1.132   7.970 -0.7751  0.8773  3.5704
  809TIP3   OH223985   5.221   0.741   6.937  0.2773  0.1569 -0.2563
  809TIP3    H123986   5.137   0.747   6.983  0.2188  0.5165 -0.4085
  809TIP3    H223987   5.199   0.706   6.851 -0.1708  3.3189 -1.5031
  810TIP3   OH223988   5.263   1.357   7.061 -0.7066  0.1439 -0.3557
  810TIP3    H123989   5.270   1.448   7.031 -1.6083  0.6221  0.8044
  810TIP3    H223990   5.345   1.316   7.036 -0.6503  1.0573 -1.6674
  811TIP3   OH223991   0.344   2.547   6.697  0.6761  0.5715  0.4032
  811TIP3    H123992   0.387   2.626   6.730 -0.8444  1.5240  0.1498
  811TIP3    H223993   0.403   2.515   6.629  2.5736  0.0190  2.2345
  812TIP3   OH223994   2.751   1.041   6.809 -0.3255 -0.0622 -0.0485
  812TIP3    H123995   2.677   1.027   6.868  2.1774 -0.5534  3.1433
  812TIP3    H223996   2.781   1.130   6.829  0.3671 -0.1239 -0.7801
  813TIP3   OH223997   5.050   0.521   5.944  1.1917  0.0162 -0.4426
  813TIP3    H123998   5.094   0.576   6.008  0.2791  0.6907 -0.3752
  813TIP3    H223999   5.111   0.515   5.871  1.2975  1.1671 -0.4670
  814TIP3   OH224000   5.285   0.992   6.640 -0.1991  0.1966  0.4680
  814TIP3    H124001   5.359   0.934   6.620 -1.1525 -0.9523  0.1540
  814TIP3    H224002   5.304   1.026   6.728 -0.0607 -1.3465  1.0601
  815TIP3   OH224003   5.406   0.567   7.466 -0.2264 -0.8417 -0.9211
  815TIP3    H124004   5.478   0.521   7.423  0.4066  0.7316 -1.5886
  815TIP3    H224005   5.440   0.656   7.480 -1.7533 -0.3164 -0.4990
  816TIP3   OH224006   4.140   0.146   6.810  0.0304  0.5343  0.2133
  816TIP3    H124007   4.046   0.164   6.811  0.0430  0.7076 -1.0630
  816TIP3    H224008   4.147   0.051   6.818 -0.2836  0.4570 -0.4020
  817TIP3   OH224009   4.057   0.476   7.478 -0.2412 -0.3665  0.0380
  817TIP3    H124010   4.003   0.434   7.545  0.6380 -0.0538  0.9513
  817TIP3    H224011   4.086   0.558   7.519 -1.4916  0.8813 -1.5146
  818TIP3   OH224012   2.870   2.105   7.913  0.1443 -0.4260 -0.2077
  818TIP3    H124013   2.800   2.084   7.852 -2.2120  0.8703  1.9576
  818TIP3    H224014   2.904   2.189   7.883  1.7690 -1.7254 -2.0908
  819TIP3   OH224015   4.402   6.378   7.732 -0.2416  0.4824 -0.0016
  819TIP3    H124016   4.359   6.306   7.686  2.2749 -1.2108  0.1868
  819TIP3    H224017   4.492   6.376   7.700  0.0484  3.1233  0.5543
  820TIP3   OH224018   4.386   0.013   0.498  0.3215 -0.2408  0.3242
  820TIP3    H124019   4.411   0.021   0.590  0.3393 -0.0142  0.3008
  820TIP3    H224020   4.468  -0.007   0.453  1.0866  3.4786 -0.1562
  821TIP3   OH224021   3.908   2.119   7.024  0.4006 -0.3594  0.2161
  821TIP3    H124022   3.857   2.097   6.947  0.8915  2.7534 -1.0905
  821TIP3    H224023   3.854   2.183   7.071  0.6128 -1.3505  1.8729
  822TIP3   OH224024   4.548   0.135   6.783 -0.0750  0.2912 -0.1858
  822TIP3    H124025   4.642   0.153   6.782  0.2220 -1.1658 -0.3431
  822TIP3    H224026   4.540   0.046   6.748 -1.4488  0.0984  0.5660
  823TIP3   OH224027   4.426   1.952   6.132  0.0750 -0.0944  0.1023
  823TIP3    H124028   4.394   1.895   6.062  1.0683 -0.7135  0.1319
  823TIP3    H224029   4.458   1.891   6.199  0.1017  0.4962  0.6247
  824TIP3   OH224030   5.658   0.461   6.480  0.1430 -0.2648  0.1364
  824TIP3    H124031   5.708   0.471   6.561 -0.3367 -0.8243  0.5100
  824TIP3    H224032   5.713   0.406   6.425  0.3067 -0.1875  0.2213
  825TIP3   OH224033   4.051   1.157   7.787 -0.3685 -0.1649 -0.0921
  825TIP3    H124034   3.967   1.202   7.798 -0.8844 -1.0433 -0.3169
  825TIP3    H224035   4.030   1.064   7.800  0.6696 -0.3438  0.3453
  826TIP3   OH224036   4.223   0.223   7.144 -0.1164 -0.2339  0.1825
  826TIP3    H124037   4.152   0.288   7.137  0.5536  0.5887  0.9581
  826TIP3    H224038   4.191   0.159   7.208 -1.1114 -1.1214 -1.1683
  827TIP3   OH224039   6.217   0.522   7.112  0.4575 -0.2976 -0.3139
  827TIP3    H124040   6.135   0.549   7.154 -0.1762  0.1193 -1.8196
  827TIP3    H224041   6.197   0.518   7.019  2.3924  0.6869 -0.8077
  828TIP3   OH224042   3.073   2.005   7.047  0.4667 -0.2500 -0.2240
  828TIP3    H124043   3.070   1.937   6.980  0.3395  0.1360 -0.6109
  828TIP3    H224044   3.166   2.027   7.055  0.3900  0.3331 -0.9111
  829TIP3   OH224045   3.881   1.028   7.218  0.3962  0.4571  0.3270
  829TIP3    H124046   3.918   1.045   7.304  2.1978  0.0810 -0.3613
  829TIP3    H224047   3.789   1.054   7.226  0.1203 -1.1506  2.8527
  830TIP3   OH224048   4.192   6.394   6.564  0.6088  0.3616  0.5904
  830TIP3    H124049   4.275   6.406   6.517  0.1892  0.6885 -0.0744
  830TIP3    H224050   4.157   6.311   6.532 -0.4472  1.3487 -0.8640
  831TIP3   OH224051   5.214   0.170   7.791  0.7437  0.1592 -0.3041
  831TIP3    H124052   5.119   0.175   7.777  0.6543 -2.0575 -0.7327
  831TIP3    H224053   5.252   0.212   7.714  0.1152 -0.2150 -0.8262
  832TIP3   OH224054   4.356   0.831   0.416 -0.2177 -0.0283 -0.3176
  832TIP3    H124055   4.331   0.921   0.391 -3.9645 -0.9176 -0.1107
  832TIP3    H224056   4.373   0.837   0.510 -2.0844  0.1816  0.0290
  833TIP3   OH224057   4.275   0.437   8.267  0.7722 -0.2582  0.2744
  833TIP3    H124058   4.330   0.389   8.329  0.5925  0.2631  0.8463
  833TIP3    H224059   4.321   0.519   8.251  1.0739 -0.6089 -0.6935
  834TIP3   OH224060   4.144   1.929   7.799  0.4721  0.6073 -0.1797
  834TIP3    H124061   4.204   1.971   7.739 -0.8718  1.6978 -0.7809
  834TIP3    H224062   4.072   1.991   7.809 -1.3125 -1.3214 -0.7096
  835TIP3   OH224063   4.439   0.809   7.460 -0.7775 -0.7365  0.0476
  835TIP3    H124064   4.454   0.894   7.500  0.4566 -0.3990 -1.0667
  835TIP3    H224065   4.374   0.825   7.391  0.4689 -0.3973 -1.0765
  836TIP3   OH224066   4.448   6.227   0.059  1.0192  0.6548 -0.4461
  836TIP3    H124067   4.489   6.194  -0.021 -0.2682 -0.3320 -0.7146
  836TIP3    H224068   4.391   6.156   0.088 -1.7818  2.5919 -1.0030
  837TIP3   OH224069   5.276   0.425   7.007 -0.1038  0.4024  0.2425
  837TIP3    H124070   5.317   0.446   6.922 -0.6343 -1.1419 -0.4065
  837TIP3    H224071   5.339   0.457   7.072 -0.1150  2.4636 -0.7006
  838TIP3   OH224072   5.599   6.244   1.145  0.0111  0.0475  0.2032
  838TIP3    H124073   5.691   6.237   1.121  0.3955  0.6939  1.4533
  838TIP3    H224074   5.587   6.177   1.212 -0.0715  0.9117  1.0643
  839TIP3   OH224075   3.855   7.165   1.255 -0.3744  0.4043  0.0652
  839TIP3    H124076   3.927   7.179   1.317 -0.9919  0.5342  0.7498
  839TIP3    H224077   3.814   7.083   1.284 -1.0416  0.7820  0.1996
  840TIP3   OH224078   5.066   0.358   0.404  0.3793 -0.1645 -0.0121
  840TIP3    H124079   5.019   0.299   0.463  0.5733  0.5322  0.8562
  840TIP3    H224080   5.080   0.307   0.325 -0.1190 -1.0304  0.4492
  841TIP3   OH224081   4.255   1.170   6.540  0.2889 -0.2404  0.5875
  841TIP3    H124082   4.181   1.213   6.497  0.7314  1.6487  1.6519
  841TIP3    H224083   4.282   1.102   6.479 -2.1995 -0.8521  0.0935
  842TIP3   OH224084   3.945   1.502   7.117  0.3605 -0.2726 -0.0461
  842TIP3    H124085   3.851   1.496   7.098  0.5965 -2.2750 -0.7987
  842TIP3    H224086   3.962   1.595   7.128 -1.3552  0.2833 -1.8365
  843TIP3   OH224087   3.271   1.597   6.692  0.1996  0.1950  0.2647
  843TIP3    H124088   3.276   1.598   6.788  1.9310  1.1060  0.1839
  843TIP3    H224089   3.244   1.507   6.671 -3.0062  0.7659  1.6852
  844TIP3   OH224090   4.978   1.537   6.378  0.3258 -0.2706 -0.0158
  844TIP3    H124091   4.923   1.543   6.300  1.1868  0.1461 -0.5866
  844TIP3    H224092   5.011   1.626   6.391 -1.3791  0.1157  1.9596
  845TIP3   OH224093   2.893   0.849   7.902  0.1291 -0.7072  0.3034
  845TIP3    H124094   2.830   0.863   7.973  0.7829 -0.6517  0.8815
  845TIP3    H224095   2.840   0.843   7.823 -0.7165 -2.1501  0.9682
  846TIP3   OH224096   0.224   6.967   7.776 -0.0464  0.3318  0.1121
  846TIP3    H124097   0.169   6.942   7.703 -0.7022  0.2702  0.6244
  846TIP3    H224098   0.270   6.887   7.801  1.1455  0.6372 -1.0451
  847TIP3   OH224099   5.119   7.174   0.589  0.1530  0.1136 -0.0012
  847TIP3    H124100   5.045   7.225   0.621 -0.5426 -0.9247  0.0683
  847TIP3    H224101   5.147   7.219   0.509 -1.2383 -0.0897 -0.6217
  848TIP3   OH224102   5.363   0.521   6.007 -0.2852  0.5939  0.5268
  848TIP3    H124103   5.322   0.536   5.921 -0.4005 -0.8500  0.3169
  848TIP3    H224104   5.302   0.561   6.069 -0.4535  1.2055 -0.0184
  849TIP3   OH224105   5.678   0.673   6.173  0.2957  0.2717 -0.2506
  849TIP3    H124106   5.683   0.742   6.240  1.4721 -1.4824  1.5200
  849TIP3    H224107   5.643   0.597   6.220  0.4766 -0.7829 -1.8192
  850TIP3   OH224108   4.608   0.168   7.961 -0.2000 -0.4158  0.9593
  850TIP3    H124109   4.528   0.162   8.014  0.1999  1.1084  1.7610
  850TIP3    H224110   4.626   0.262   7.956  0.8613 -0.6758 -0.2520
  851TIP3   OH224111   3.731   2.215   7.259  0.3421 -0.0311  0.1445
  851TIP3    H124112   3.677   2.293   7.250  0.8961  0.1527 -1.7816
  851TIP3    H224113   3.675   2.143   7.228  0.8552  0.0303 -0.9505
  852TIP3   OH224114   5.399   0.565   6.619 -0.1253  0.3629  0.2830
  852TIP3    H124115   5.376   0.481   6.659  0.4064  0.3143  0.4883
  852TIP3    H224116   5.494   0.571   6.630  0.3834 -0.6706 -2.8877
  853TIP3   OH224117   3.970   1.719   6.878 -0.2599  0.4693 -0.8087
  853TIP3    H124118   3.986   1.783   6.808  1.4128 -0.0932 -0.9481
  853TIP3    H224119   4.039   1.734   6.942  0.0224 -1.0485 -0.7369
  854TIP3   OH224120   3.283   0.201   7.327  0.7097  0.4185 -0.0459
  854TIP3    H124121   3.280   0.274   7.265 -1.9101  1.8973  1.7188
  854TIP3    H224122   3.249   0.126   7.278  0.3453  1.1555 -0.9256
  855TIP3   OH224123   4.750   5.417   1.015 -0.0597 -0.3380 -0.4261
  855TIP3    H124124   4.757   5.463   0.932  0.0829  0.6853  0.1412
  855TIP3    H224125   4.680   5.462   1.062  0.4730 -0.3201  0.3690
  856TIP3   OH224126   3.534   0.982   6.841 -0.4669 -0.3899  0.2176
  856TIP3    H124127   3.613   0.981   6.895  0.3628 -0.7066 -0.9863
  856TIP3    H224128   3.545   0.908   6.781 -2.0949 -0.9864  0.6258
  857TIP3   OH224129   5.883   0.927   7.820 -0.6722  0.0118  0.3444
  857TIP3    H124130   5.973   0.913   7.849 -0.0715  3.2681  0.2562
  857TIP3    H224131   5.867   1.020   7.837 -3.9625 -0.4623  0.1669
  858TIP3   OH224132   5.453   0.731   6.365 -0.0264  1.5858  0.4519
  858TIP3    H124133   5.395   0.780   6.306  0.5369  0.7426 -0.8373
  858TIP3    H224134   5.513   0.797   6.400  0.4222  1.9105 -0.9002
  859TIP3   OH224135   5.459   0.494   7.195 -0.0087  0.5690 -0.2937
  859TIP3    H124136   5.529   0.556   7.174  1.9826 -1.8010 -0.9304
  859TIP3    H224137   5.499   0.433   7.258 -0.9022 -1.8602 -1.9857
  860TIP3   OH224138   6.350   7.194   6.819 -0.4546 -0.3849  0.4841
  860TIP3    H124139   6.383   7.142   6.891  0.0738 -1.2433 -0.3655
  860TIP3    H224140   6.256   7.206   6.838 -0.4840 -1.2779  0.8893
  861TIP3   OH224141   1.364   6.091   0.289  0.1825  0.4388  0.1421
  861TIP3    H124142   1.371   6.187   0.293  1.4203  0.4240 -1.2642
  861TIP3    H224143   1.451   6.060   0.311 -0.1059 -0.3734  0.1397
  862TIP3   OH224144   4.671   0.543   0.333  0.1042  0.3496 -0.2494
  862TIP3    H124145   4.580   0.512   0.328 -0.0969  1.0083 -0.7267
  862TIP3    H224146   4.670   0.626   0.285  0.9993  0.2655 -0.4120
  863TIP3   OH224147   3.650   6.953   7.345  0.3475  0.5414 -0.2359
  863TIP3    H124148   3.680   6.906   7.267 -0.7154  0.5393 -0.6556
  863TIP3    H224149   3.601   7.028   7.310  0.0643  0.6678  0.4274
  864TIP3   OH224150   4.476   1.272   6.370 -0.5487  0.1892 -0.1446
  864TIP3    H124151   4.431   1.232   6.295  0.9726 -1.0973 -0.4019
  864TIP3    H224152   4.480   1.365   6.349 -2.1800  0.1861 -0.5777
  865TIP3   OH224153   4.514   5.842   6.788  0.0785 -0.4774 -0.0027
  865TIP3    H124154   4.494   5.749   6.789 -0.2332 -0.4085  0.2995
  865TIP3    H224155   4.607   5.848   6.811 -0.1117 -0.6581  0.8123
  866TIP3   OH224156   3.742   6.677   6.802 -0.8391 -0.6456 -0.3601
  866TIP3    H124157   3.727   6.678   6.897 -0.2278 -1.4770 -0.2450
  866TIP3    H224158   3.794   6.597   6.788 -1.3334 -0.7727 -1.4506
  867TIP3   OH224159   4.205   0.384   8.004 -0.6489 -0.0677  0.3342
  867TIP3    H124160   4.220   0.410   8.095 -0.0901  2.1941 -0.3759
  867TIP3    H224161   4.112   0.362   8.000 -0.6715 -0.1989  1.4534
  868TIP3   OH224162   2.783   5.975   7.351  0.4133  0.0177  0.0245
  868TIP3    H124163   2.707   5.928   7.317  2.0936 -1.6979 -1.4869
  868TIP3    H224164   2.769   5.979   7.445 -1.5937 -0.1585 -0.2421
  869TIP3   OH224165   2.313   2.763   0.166 -0.2228 -0.7505 -0.1610
  869TIP3    H124166   2.318   2.716   0.249  0.2442  0.1901  0.3579
  869TIP3    H224167   2.284   2.698   0.103  1.2614 -1.9450  0.3598
  870TIP3   OH224168   4.291   0.583   7.319 -0.0236  0.3197  0.3871
  870TIP3    H124169   4.237   0.509   7.345 -3.0321  2.3592  0.1478
  870TIP3    H224170   4.303   0.635   7.399 -1.0289  1.4524 -0.1727
  871TIP3   OH224171   4.644   6.952   0.440 -0.5650  0.1383  0.2847
  871TIP3    H124172   4.666   6.983   0.527  0.9240 -2.2633  0.7958
  871TIP3    H224173   4.572   6.890   0.453  0.4652 -1.1405 -0.0458
  872TIP3   OH224174   4.773   1.978   6.587 -0.1536 -0.1036  0.1209
  872TIP3    H124175   4.701   1.920   6.611  0.4033 -0.8106  0.1039
  872TIP3    H224176   4.846   1.950   6.642  0.2686  0.2404 -0.2604
  873TIP3   OH224177   5.007   6.197   7.443  0.3748  0.0368  0.2385
  873TIP3    H124178   5.011   6.293   7.444 -1.2412  0.1098  1.3904
  873TIP3    H224179   5.098   6.169   7.432  0.8027  1.7018 -0.6679
  874TIP3   OH224180   3.132   0.048   7.096  0.4092 -0.0990 -0.3623
  874TIP3    H124181   3.131  -0.044   7.122  0.5097  0.0757  0.2688
  874TIP3    H224182   3.047   0.062   7.052  0.9703 -0.8342 -1.7032
  875TIP3   OH224183   2.843   3.009   6.719  0.2029 -0.1691  0.1682
  875TIP3    H124184   2.898   3.003   6.797  2.1484  2.4857 -0.9483
  875TIP3    H224185   2.833   2.918   6.690  2.4942 -0.8570  1.4351
  876TIP3   OH224186   3.788   1.231   6.350 -0.5781 -0.1124  0.1826
  876TIP3    H124187   3.842   1.160   6.314  1.7358  1.2599  0.8377
  876TIP3    H224188   3.779   1.294   6.279  1.4597  1.1829  1.0327
  877TIP3   OH224189   6.191   2.000   6.804 -0.4573  0.2749  0.2051
  877TIP3    H124190   6.214   2.071   6.745 -0.4759 -0.9541 -1.3236
  877TIP3    H224191   6.267   1.990   6.861 -0.5124  1.5898  0.5258
  878TIP3   OH224192   4.836   0.316   0.049  0.0006 -0.5957  0.1384
  878TIP3    H124193   4.752   0.271   0.048 -1.0028  1.1949  1.6175
  878TIP3    H224194   4.890   0.265   0.109 -1.6128  0.9548  2.9991
  879TIP3   OH224195   3.156   2.700   6.461 -0.0518 -0.2188 -0.2798
  879TIP3    H124196   3.243   2.700   6.422 -0.2032 -2.0902 -0.6706
  879TIP3    H224197   3.118   2.616   6.435 -1.4855  0.0199  0.9642
  880TIP3   OH224198   4.737   1.744   6.408 -0.1035 -0.0451 -0.0086
  880TIP3    H124199   4.652   1.778   6.381  0.3929  0.7561 -0.5882
  880TIP3    H224200   4.794   1.821   6.408  0.4519 -0.4473  1.0764
  881TIP3   OH224201   3.471   0.906   7.252  0.3834 -0.2942  0.1226
  881TIP3    H124202   3.424   0.890   7.171  0.5211 -1.8868  0.3432
  881TIP3    H224203   3.546   0.961   7.226 -0.7633  1.0450 -0.4504
  882TIP3   OH224204   4.211   7.298   8.331 -0.2177  0.1529  0.2484
  882TIP3    H124205   4.256   7.372   8.291 -1.3213  1.8104  1.9748
  882TIP3    H224206   4.160   7.259   8.260 -0.5896  1.8048 -0.4049
  883TIP3   OH224207   5.886   0.266   6.563 -0.1074  0.4721 -0.1197
  883TIP3    H124208   5.803   0.238   6.603  0.8023 -0.6310  1.0284
  883TIP3    H224209   5.866   0.270   6.470 -1.8874  1.7273  0.2807
  884TIP3   OH224210   0.749   7.127   0.190  0.1164  0.1767  0.0204
  884TIP3    H124211   0.765   7.163   0.278  4.1799 -0.2160 -0.4566
  884TIP3    H224212   0.675   7.067   0.202  0.1538  0.6478  3.0544
  885TIP3   OH224213   2.396   5.702   7.749 -0.2287 -0.7506 -1.1765
  885TIP3    H124214   2.420   5.790   7.776 -0.0115 -1.2336  0.2090
  885TIP3    H224215   2.394   5.707   7.653 -1.5476  1.0934 -1.0730
  886TIP3   OH224216   5.408   6.402   6.127 -0.5689 -0.3217  0.3416
  886TIP3    H124217   5.329   6.447   6.154 -1.3941 -0.7511 -1.2798
  886TIP3    H224218   5.419   6.425   6.035  0.0177 -1.9250 -0.0178
  887TIP3   OH224219   4.420   7.296   7.636 -0.2734  0.3495 -0.1355
  887TIP3    H124220   4.417   7.301   7.541 -2.1276 -0.8014 -0.1692
  887TIP3    H224221   4.446   7.206   7.654  1.1199  0.8571  0.4596
  888TIP3   OH224222   4.648   5.904   7.187 -0.1266  0.3200  0.0190
  888TIP3    H124223   4.573   5.957   7.213  1.6564  1.7830  2.2765
  888TIP3    H224224   4.725   5.956   7.210  1.6551 -2.6223  0.9788
  889TIP3   OH224225   5.209   0.317   7.326  0.5538  0.7613  1.2965
  889TIP3    H124226   5.248   0.276   7.248 -0.8262 -2.8157  2.3804
  889TIP3    H224227   5.180   0.403   7.296  0.3421 -0.4011 -2.0708
  890TIP3   OH224228   5.988   6.139   1.536 -0.5697  0.4836 -0.2303
  890TIP3    H124229   5.920   6.206   1.543 -1.3694 -0.3589  0.3282
  890TIP3    H224230   5.940   6.056   1.546  0.5931 -0.1129  0.5081
  891TIP3   OH224231   4.400   6.651   7.699  0.3887 -0.1265 -0.6782
  891TIP3    H124232   4.425   6.689   7.783  3.1021  1.4782 -2.1631
  891TIP3    H224233   4.421   6.558   7.708 -0.6108 -0.2314  0.8605
  892TIP3   OH224234   3.848   5.870   8.061 -0.6453  0.1875  0.1243
  892TIP3    H124235   3.890   5.810   8.124  0.9287  0.9414 -0.1792
  892TIP3    H224236   3.783   5.917   8.114  0.9891  1.1542  1.3423
  893TIP3   OH224237   3.221   5.051   0.172  0.5019 -0.4319  0.2693
  893TIP3    H124238   3.249   5.142   0.169 -0.4750 -0.1297 -0.1408
  893TIP3    H224239   3.210   5.032   0.265  0.9696 -0.2187  0.3703
  894TIP3   OH224240   3.021   4.055   7.101  0.4951  0.0381  0.3899
  894TIP3    H124241   3.017   3.960   7.107  1.3681  0.0682  1.7010
  894TIP3    H224242   3.052   4.083   7.187  1.1050  1.4406 -0.2647
  895TIP3   OH224243   6.636   7.251   7.015 -0.7082  0.3173 -0.5278
  895TIP3    H124244   6.695   7.322   6.992 -1.1540  1.8829  2.8358
  895TIP3    H224245   6.548   7.288   7.001 -0.9363  0.1445  0.4493
  896TIP3   OH224246   5.751   1.686   7.062  0.3991 -0.4394 -0.2448
  896TIP3    H124247   5.672   1.690   7.007  0.0296  1.5604  0.3948
  896TIP3    H224248   5.756   1.772   7.103  2.0686 -1.0759  0.9355
  897TIP3   OH224249   3.740   1.103   6.631  0.0682 -0.5297  0.0435
  897TIP3    H124250   3.685   1.165   6.679  1.1886 -0.7905  1.6964
  897TIP3    H224251   3.723   1.123   6.538  0.8708  2.6383  0.5320
  898TIP3   OH224252   5.213   0.130   8.176 -0.0018  0.1779 -0.3315
  898TIP3    H124253   5.170   0.068   8.118 -2.6825  2.1202 -0.5091
  898TIP3    H224254   5.296   0.149   8.134 -0.6701 -0.6181 -2.0479
  899TIP3   OH224255   6.988   0.052   7.950 -0.1392  0.5851 -0.0084
  899TIP3    H124256   6.969  -0.042   7.955 -2.5082  1.0541  0.1499
  899TIP3    H224257   7.084   0.056   7.950  0.0088 -1.7608  1.1638
  900TIP3   OH224258   1.364   1.382   8.193  0.3102 -0.0665  0.1151
  900TIP3    H124259   1.292   1.430   8.150 -1.0978 -1.3114  1.0424
  900TIP3    H224260   1.340   1.380   8.285  1.0732 -1.3161  0.3015
  901TIP3   OH224261   5.440   0.237   6.475 -0.6461 -0.0773  0.4290
  901TIP3    H124262   5.529   0.229   6.509 -0.8182  0.6603  1.0551
  901TIP3    H224263   5.384   0.206   6.546 -0.8831 -0.6911 -0.0236
  902TIP3   OH224264   6.665   7.168   6.698  0.1614  0.4033  0.5584
  902TIP3    H124265   6.572   7.147   6.695  0.0950  0.5301  1.6712
  902TIP3    H224266   6.688   7.187   6.607 -1.3358  2.2018  0.5167
  903TIP3   OH224267   6.774   1.961   6.718 -0.5880  0.1011 -0.1939
  903TIP3    H124268   6.782   1.955   6.623  0.4560 -2.2713  0.0198
  903TIP3    H224269   6.838   2.028   6.743  0.4922 -0.6065 -0.9980
  904TIP3   OH224270   0.374   2.392   6.219  0.1601 -0.2758 -0.0236
  904TIP3    H124271   0.424   2.385   6.137 -0.5780 -0.7636 -0.4359
  904TIP3    H224272   0.303   2.452   6.199  1.2129  1.3141  0.8969
  905TIP3   OH224273   3.654   2.530   0.022  0.2855  0.0716  0.1932
  905TIP3    H124274   3.741   2.499   0.048  1.7535  2.1356 -2.0198
  905TIP3    H224275   3.640   2.608   0.075  0.2285  0.3012 -0.1570
  906TIP3   OH224276   6.399   2.442   6.746  0.1222 -1.2034  0.6976
  906TIP3    H124277   6.472   2.423   6.687 -0.8030  0.4112 -1.0101
  906TIP3    H224278   6.404   2.536   6.760  0.3873 -1.5651  3.3379
  907TIP3   OH224279   6.534   0.444   8.165 -0.5641 -0.6507  0.3875
  907TIP3    H124280   6.610   0.388   8.150 -1.0177 -1.6121  1.6522
  907TIP3    H224281   6.536   0.463   8.259 -0.9491  0.6967  0.1402
  908TIP3   OH224282   4.543   0.714   0.960  0.1293  0.1395 -0.5692
  908TIP3    H124283   4.541   0.622   0.985  0.1034  0.0010 -1.0723
  908TIP3    H224284   4.609   0.753   1.016 -2.1089  0.4979  1.9330
  909TIP3   OH224285   6.422   6.515   6.859 -0.2752 -0.1679 -0.2187
  909TIP3    H124286   6.382   6.452   6.800 -2.8894  0.9713  0.2315
  909TIP3    H224287   6.388   6.492   6.945  1.5204 -0.2721  0.4832
  910TIP3   OH224288   5.647   1.109   7.517  0.3484  0.1605  0.4856
  910TIP3    H124289   5.726   1.062   7.489  0.2317  0.0995  0.2547
  910TIP3    H224290   5.679   1.190   7.556  0.5845 -0.3440  1.3551
  911TIP3   OH224291   6.363   7.004   7.001  0.2593 -0.1215 -0.3394
  911TIP3    H124292   6.391   6.923   6.959  0.9907 -0.3215  0.5178
  911TIP3    H224293   6.410   7.005   7.084 -0.6945  0.5733  0.1971
  912TIP3   OH224294   6.633   1.323   6.683  0.1363 -0.1754  0.5166
  912TIP3    H124295   6.664   1.390   6.622 -1.4864 -0.7074 -0.9313
  912TIP3    H224296   6.596   1.372   6.756 -0.7073  0.5149 -0.3663
  913TIP3   OH224297   1.522   6.434   6.416  0.0739 -0.1335 -0.0398
  913TIP3    H124298   1.558   6.446   6.329  1.3207  0.3987  0.5431
  913TIP3    H224299   1.563   6.354   6.449  0.3994  0.2359  0.4550
  914TIP3   OH224300   7.150   2.855   7.214 -0.1355  0.6326  0.4453
  914TIP3    H124301   7.147   2.871   7.120  0.1768 -0.0260  0.3212
  914TIP3    H224302   7.166   2.941   7.253  1.2633  0.6787 -0.1943
  915TIP3   OH224303   5.839   7.136   7.945 -0.3438 -0.1368 -0.1397
  915TIP3    H124304   5.838   7.044   7.971  0.2867 -0.2015 -0.3542
  915TIP3    H224305   5.754   7.170   7.975  1.2334  0.3605  4.2082
  916TIP3   OH224306   5.276   1.074   5.615 -0.2047 -0.8057 -0.7101
  916TIP3    H124307   5.234   1.149   5.572  1.4004 -0.8481 -2.3943
  916TIP3    H224308   5.324   1.112   5.688  0.7145 -0.1500 -1.6383
  917TIP3   OH224309   5.889   0.156   7.762  0.1702 -0.0964  0.0773
  917TIP3    H124310   5.815   0.197   7.717  0.4658 -0.6510 -0.9393
  917TIP3    H224311   5.928   0.227   7.812  0.2207  0.7114 -1.0719
  918TIP3   OH224312   0.058   7.007   6.862 -0.3345 -0.0723  0.1672
  918TIP3    H124313   0.060   7.046   6.949 -1.6951  1.2586 -0.3794
  918TIP3    H224314   0.041   6.914   6.878 -0.9879  0.2331  1.3046
  919TIP3   OH224315   0.686   5.772   7.853  0.1078 -0.4311  0.5721
  919TIP3    H124316   0.636   5.814   7.782 -2.0397 -0.6601  1.9149
  919TIP3    H224317   0.724   5.694   7.813 -2.2269 -1.2995 -0.0066
  920TIP3   OH224318   6.958   7.199   7.007 -0.2605 -0.3646  0.4115
  920TIP3    H124319   6.963   7.267   7.075  2.4557 -1.2810  1.2034
  920TIP3    H224320   6.961   7.116   7.055 -1.5756 -1.0429 -0.6532
  921TIP3   OH224321   6.618   6.695   7.172 -0.2447  0.5524  0.2162
  921TIP3    H124322   6.707   6.728   7.157 -1.3561  2.1426 -3.6325
  921TIP3    H224323   6.563   6.774   7.172 -1.9895 -0.6354 -0.4661
  922TIP3   OH224324   1.654   1.004   8.210  0.1948 -0.0516  0.5829
  922TIP3    H124325   1.679   0.988   8.119  1.6026  1.8147  0.6143
  922TIP3    H224326   1.701   0.938   8.260 -0.9100 -1.3542 -0.0610
  923TIP3   OH224327   0.351   2.257   8.369 -0.2108 -0.1249 -0.2003
  923TIP3    H124328   0.289   2.325   8.396  0.4449  0.3952  0.0121
  923TIP3    H224329   0.379   2.284   8.281 -0.0228 -0.1630 -0.1528
  924TIP3   OH224330   6.129   6.867   6.590  0.1403  0.3099 -0.1938
  924TIP3    H124331   6.099   6.780   6.618  0.4606 -0.2159 -1.4371
  924TIP3    H224332   6.212   6.879   6.635 -0.2814  0.3177  0.6034
  925TIP3   OH224333   6.845   0.711   6.418 -0.3399  0.5788 -0.4047
  925TIP3    H124334   6.829   0.805   6.429  1.0039  0.9814 -1.5790
  925TIP3    H224335   6.758   0.672   6.411 -0.9641  1.4481  2.2273
  926TIP3   OH224336   5.709   1.319   6.826 -0.1679  0.1479  0.1567
  926TIP3    H124337   5.787   1.310   6.880 -0.1412 -0.9480 -0.0486
  926TIP3    H224338   5.639   1.282   6.879  0.1718 -2.6107 -1.2312
  927TIP3   OH224339   5.958   0.564   7.168  0.5086  0.0007 -0.0026
  927TIP3    H124340   5.931   0.634   7.109  1.4622  0.3898  0.0052
  927TIP3    H224341   5.911   0.487   7.137  1.6176  0.0187 -1.7899
  928TIP3   OH224342   6.262   0.566   7.449 -0.4287  0.0827  0.2992
  928TIP3    H124343   6.269   0.659   7.429 -1.0846  0.4544  1.7719
  928TIP3    H224344   6.175   0.541   7.416 -0.4973  0.1224  0.4519
  929TIP3   OH224345   6.420   7.214   6.330  0.5110  0.5647 -0.0498
  929TIP3    H124346   6.478   7.140   6.350 -0.0982  0.1695  0.2867
  929TIP3    H224347   6.450   7.246   6.245  2.3262  1.4569  0.8930
  930TIP3   OH224348   5.749   2.003   6.423  0.6725  0.3945 -0.6810
  930TIP3    H124349   5.722   2.076   6.367 -0.0200  0.9848  0.3956
  930TIP3    H224350   5.841   2.020   6.442  1.4461 -0.8428 -3.1827
  931TIP3   OH224351   7.224   1.290   8.175  0.5013  0.1285 -0.3909
  931TIP3    H124352   7.179   1.316   8.095  0.4024  1.6448  0.1559
  931TIP3    H224353   7.317   1.298   8.154  0.5186 -1.2241 -0.9198
  932TIP3   OH224354   1.044   6.823   0.019  0.5164 -0.4982 -0.5327
  932TIP3    H124355   0.976   6.799   0.082 -0.3104 -1.6767 -1.8306
  932TIP3    H224356   1.001   6.816  -0.067  2.0415 -0.4623 -1.3207
  933TIP3   OH224357   4.240   2.183   7.282 -0.2356  0.2754  0.2778
  933TIP3    H124358   4.286   2.099   7.291  0.8434  0.8343  0.0218
  933TIP3    H224359   4.147   2.160   7.290 -0.0319 -1.1248 -0.9730
  934TIP3   OH224360   5.341   1.623   6.457  0.7518 -0.3103 -0.3947
  934TIP3    H124361   5.401   1.691   6.487 -1.5547  1.6255 -0.0319
  934TIP3    H224362   5.257   1.668   6.444 -0.8943 -3.0995  0.0341
  935TIP3   OH224363   4.386   0.585   7.936 -0.4688 -0.4205 -0.7129
  935TIP3    H124364   4.319   0.521   7.962 -0.8977  0.1185 -0.4906
  935TIP3    H224365   4.342   0.670   7.941  0.7935  0.1435  1.4771
  936TIP3   OH224366   0.488   2.608   0.249 -0.2517  0.8054 -0.4936
  936TIP3    H124367   0.415   2.650   0.203 -0.9591  2.7935  2.3080
  936TIP3    H224368   0.559   2.671   0.244 -0.4184  1.1570  1.3143
  937TIP3   OH224369   4.818   3.203   6.863  0.4443 -0.3330  0.1312
  937TIP3    H124370   4.855   3.255   6.792  0.3486 -0.4053  0.0293
  937TIP3    H224371   4.893   3.186   6.921  0.8291 -1.4735 -0.6737
  938TIP3   OH224372   3.945   0.945   6.747 -0.2237  0.4023  0.2259
  938TIP3    H124373   3.914   0.965   6.659  1.5132 -0.4227 -0.5953
  938TIP3    H224374   3.874   0.896   6.788 -0.8201  0.3147 -0.9044
  939TIP3   OH224375   6.159   1.760   7.164  0.6320 -0.2939 -0.5487
  939TIP3    H124376   6.199   1.679   7.196  0.0150 -0.3757  0.0220
  939TIP3    H224377   6.230   1.806   7.119  1.5874 -0.0602  1.1393
  940TIP3   OH224378   4.052   0.931   0.252 -0.1842  0.2811  0.0162
  940TIP3    H124379   4.140   0.943   0.288  0.9287 -0.3843 -2.3683
  940TIP3    H224380   4.041   0.836   0.247 -0.0391  0.3497 -1.9627
  941TIP3   OH224381   5.041   6.276   6.902 -0.0875  0.0636  0.3283
  941TIP3    H124382   5.120   6.247   6.857 -0.1517 -0.1359  0.3430
  941TIP3    H224383   4.973   6.215   6.872 -0.5003  0.9780 -0.6357
  942TIP3   OH224384   5.550   6.570   8.270 -0.2248 -0.5863 -0.0504
  942TIP3    H124385   5.621   6.631   8.289 -0.5159 -0.5726  1.0587
  942TIP3    H224386   5.529   6.584   8.178  0.0224  0.6609  0.0785
  943TIP3   OH224387   6.411   6.861   6.600  0.0746  0.1037 -0.4152
  943TIP3    H124388   6.397   6.775   6.560  0.5178  0.2814 -0.9642
  943TIP3    H224389   6.466   6.908   6.537 -0.6404  0.9900 -0.3793
  944TIP3   OH224390   0.360   7.279   7.417 -0.1798  0.0621 -0.5403
  944TIP3    H124391   0.410   7.198   7.409 -0.2531 -0.0060 -0.2941
  944TIP3    H224392   0.422   7.347   7.392  0.4447  0.1062  1.0674
  945TIP3   OH224393   1.719   5.778   6.874  0.0947  0.2010  0.3357
  945TIP3    H124394   1.793   5.814   6.923  1.1074  1.2445 -1.8659
  945TIP3    H224395   1.759   5.737   6.798 -1.4585 -1.0653  0.1797
  946TIP3   OH224396   4.994   6.465   6.535 -0.0893 -0.2649  0.1822
  946TIP3    H124397   4.954   6.513   6.607 -2.7860 -0.9790 -0.7709
  946TIP3    H224398   4.960   6.507   6.456  0.1955 -1.5908 -0.6604
  947TIP3   OH224399   6.695   6.982   6.957  0.0937 -0.1539  0.8692
  947TIP3    H124400   6.623   6.935   6.915  0.1996 -0.8496  1.4418
  947TIP3    H224401   6.655   7.061   6.992 -0.5110 -0.7861  1.6370
  948TIP3   OH224402   0.270   0.072   0.086 -0.8250  0.4558 -0.2757
  948TIP3    H124403   0.302  -0.018   0.094 -1.6466 -0.0853 -2.6352
  948TIP3    H224404   0.314   0.119   0.156 -1.4049 -2.0466  1.8843
  949TIP3   OH224405   6.895   0.362   6.266 -0.3634  0.4736  0.1662
  949TIP3    H124406   6.894   0.376   6.360  0.4294  0.8504  0.1273
  949TIP3    H224407   6.943   0.281   6.254  0.1514  0.7944  0.0473
  950TIP3   OH224408   6.552   0.744   7.808 -0.3001 -0.5601 -0.2991
  950TIP3    H124409   6.628   0.760   7.864 -1.6987 -0.2929  1.5632
  950TIP3    H224410   6.527   0.654   7.827 -2.3242  0.3225  1.4886
  951TIP3   OH224411   6.183   0.936   1.189 -0.0839  0.2460  0.3967
  951TIP3    H124412   6.174   0.930   1.284 -0.2893 -0.4227  0.3309
  951TIP3    H224413   6.263   0.886   1.169  0.1556  0.6778  0.2534
  952TIP3   OH224414   6.175   0.222   7.675  0.6560  1.1821  0.2863
  952TIP3    H124415   6.133   0.245   7.758  0.0843  1.3117 -0.0371
  952TIP3    H224416   6.103   0.191   7.620  1.3861 -1.1834  0.6419
  953TIP3   OH224417   6.805   6.907   6.671  0.2658  0.4900  0.2086
  953TIP3    H124418   6.813   6.937   6.580  0.9767  1.1643  0.4906
  953TIP3    H224419   6.803   6.812   6.664 -0.2102  0.5521 -0.5610
  954TIP3   OH224420   6.926   0.674   6.821 -0.3102  0.1680  0.0907
  954TIP3    H124421   6.926   0.755   6.770  1.9401 -0.0519 -0.2788
  954TIP3    H224422   6.917   0.702   6.912  0.4846  0.8437 -0.0363
  955TIP3   OH224423   5.232   0.415   6.334  0.1474 -0.1104 -0.0511
  955TIP3    H124424   5.173   0.341   6.323  1.8606 -1.7058  1.2627
  955TIP3    H224425   5.187   0.488   6.291 -1.3697 -1.9954 -1.7456
  956TIP3   OH224426   0.403   6.428   7.624 -0.4812  0.1626 -0.4789
  956TIP3    H124427   0.337   6.389   7.681 -0.9463  1.0179 -0.4095
  956TIP3    H224428   0.437   6.355   7.572  0.7094 -0.8021  1.6099
  957TIP3   OH224429   7.209   6.428   6.131  0.1052 -0.4360  0.1900
  957TIP3    H124430   7.137   6.416   6.070 -0.5156 -0.5882  0.9347
  957TIP3    H224431   7.167   6.433   6.217  0.8650  0.8023  0.5121
  958TIP3   OH224432   1.485   2.814   7.170  0.1652 -0.0540 -0.1950
  958TIP3    H124433   1.390   2.821   7.162  0.2426  1.6017  0.1992
  958TIP3    H224434   1.510   2.885   7.228  1.6957 -0.2276 -0.6111
  959TIP3   OH224435   5.269   0.175   8.446 -0.3143  0.0580  0.3951
  959TIP3    H124436   5.291   0.104   8.506 -0.5714  0.9841  1.5903
  959TIP3    H224437   5.226   0.131   8.372 -1.8627 -0.8730  1.8238
  960TIP3   OH224438   7.210   0.999   7.430 -0.3808 -0.1458  0.3237
  960TIP3    H124439   7.175   0.990   7.519 -0.4267 -0.8982  0.2384
  960TIP3    H224440   7.300   0.966   7.436 -0.2640  0.1465  0.1708
  961TIP3   OH224441   3.016   1.586   0.514 -0.7366  0.4582 -0.3039
  961TIP3    H124442   2.929   1.588   0.555 -1.1906  2.4640 -1.2702
  961TIP3    H224443   3.076   1.612   0.584 -1.1356  0.8390 -0.1012
  962TIP3   OH224444   6.587   0.239   6.444 -0.4878 -0.7409 -0.1629
  962TIP3    H124445   6.594   0.210   6.353 -0.6974 -2.0944  0.2493
  962TIP3    H224446   6.638   0.175   6.494  2.4754  1.8765  0.3184
  963TIP3   OH224447   6.457   1.433   6.158  0.0615 -0.6098  0.2342
  963TIP3    H124448   6.397   1.359   6.173 -0.0096 -0.6378 -0.1988
  963TIP3    H224449   6.441   1.459   6.067  1.9035 -1.6779 -0.4108
  964TIP3   OH224450   0.566   7.253   7.220 -0.0361  0.1617  1.0914
  964TIP3    H124451   0.608   7.339   7.226 -2.6021  1.5010  0.3610
  964TIP3    H224452   0.547   7.242   7.127 -2.6117  0.2465  1.5872
  965TIP3   OH224453   0.324   0.650   0.833 -0.2117  0.2329 -0.5491
  965TIP3    H124454   0.411   0.690   0.834 -0.0436 -0.1535  0.6746
  965TIP3    H224455   0.267   0.719   0.797  0.5831  0.4911 -1.3411
  966TIP3   OH224456   6.490   0.139   6.876 -0.1777  0.2682 -0.2378
  966TIP3    H124457   6.421   0.081   6.842 -0.1806 -0.2942  0.7047
  966TIP3    H224458   6.550   0.150   6.803  0.2103 -1.5216 -0.2208
  967TIP3   OH224459   6.517   0.994   7.715 -0.0318 -0.4659  0.0838
  967TIP3    H124460   6.608   1.007   7.743  0.0910  0.2993 -0.6325
  967TIP3    H224461   6.496   0.905   7.740  1.3174 -1.0491 -0.8273
  968TIP3   OH224462   7.081   6.354   8.017  0.1505 -0.3070  0.5643
  968TIP3    H124463   7.026   6.432   8.028  0.8841  0.2168  0.5580
  968TIP3    H224464   7.140   6.355   8.092  0.9184 -0.2349 -0.0374
  969TIP3   OH224465   4.676   7.058   0.679  0.5625  0.2914  0.4263
  969TIP3    H124466   4.671   7.005   0.759 -0.8492  0.2491  0.3227
  969TIP3    H224467   4.672   7.149   0.711  1.0458  0.3007  0.4679
  970TIP3   OH224468   5.853   0.532   1.501  0.0180 -0.3594  0.3419
  970TIP3    H124469   5.872   0.512   1.593  0.5453 -2.4271 -0.1751
  970TIP3    H224470   5.932   0.506   1.454 -0.2161  0.7638 -0.6884
  971TIP3   OH224471   6.342   3.364   6.576  0.1167  0.2718 -0.6143
  971TIP3    H124472   6.300   3.321   6.650 -0.8196  1.4643 -0.4439
  971TIP3    H224473   6.317   3.310   6.500 -0.4888  0.1366 -0.3197
  972TIP3   OH224474   5.167   1.693   6.894 -0.4033  0.1723  0.8381
  972TIP3    H124475   5.247   1.642   6.879 -0.6550 -0.8267  2.7606
  972TIP3    H224476   5.112   1.673   6.819 -0.5153 -2.4746  1.5596
  973TIP3   OH224477   6.790   6.372   6.739  0.1467 -0.4302 -0.2131
  973TIP3    H124478   6.740   6.384   6.659  2.6745  1.3072 -1.6190
  973TIP3    H224479   6.753   6.437   6.800  0.4316  0.6063 -1.1206
  974TIP3   OH224480   6.584   1.076   7.100 -0.1129 -0.4093  0.3892
  974TIP3    H124481   6.666   1.124   7.107  0.2546 -1.1696  1.3572
  974TIP3    H224482   6.521   1.141   7.067  0.8017  0.2401 -0.1032
  975TIP3   OH224483   6.240   2.218   6.667  0.2806 -0.3420 -0.4855
  975TIP3    H124484   6.296   2.285   6.706 -1.0041  0.4874 -0.0256
  975TIP3    H224485   6.268   2.214   6.576 -0.2354  1.4834 -0.7506
  976TIP3   OH224486   0.588   0.001   8.195  0.0878  0.1452  0.6745
  976TIP3    H124487   0.497  -0.027   8.203  0.3633 -0.9303  0.1199
  976TIP3    H224488   0.636  -0.059   8.252  0.4751  0.5736  0.7962
  977TIP3   OH224489   6.594   3.102   6.897 -0.1794 -0.2338 -0.3146
  977TIP3    H124490   6.636   3.188   6.908  0.9315 -0.5213 -2.1215
  977TIP3    H224491   6.566   3.101   6.806 -0.4376 -1.6941 -0.2243
  978TIP3   OH224492   4.214   2.361   7.066  0.3895  0.5818 -0.3752
  978TIP3    H124493   4.236   2.316   7.148 -2.3268  0.8908  0.5655
  978TIP3    H224494   4.194   2.451   7.091 -0.4998  0.6791 -1.3573
  979TIP3   OH224495   3.268   2.413   7.441 -0.5164 -0.2026  0.3162
  979TIP3    H124496   3.192   2.466   7.465  0.2013  0.4798  1.1137
  979TIP3    H224497   3.307   2.389   7.525  1.7055  1.7298 -0.1105
  980TIP3   OH224498   3.349   1.903   6.895  0.0200  0.5240 -0.0825
  980TIP3    H124499   3.281   1.898   6.829 -0.5507  1.6877  0.3957
  980TIP3    H224500   3.353   1.996   6.919  0.1951  0.1244  1.5366
  981TIP3   OH224501   6.605   1.144   6.369 -0.5546 -0.2679  0.0959
  981TIP3    H124502   6.524   1.125   6.417 -1.1851 -1.2766 -1.3114
  981TIP3    H224503   6.593   1.234   6.337 -0.1861  0.3573  1.6922
  982TIP3   OH224504   6.328   6.459   7.097  0.0224  0.0350 -0.2735
  982TIP3    H124505   6.339   6.426   7.186  0.2281 -0.8150 -0.6056
  982TIP3    H224506   6.249   6.416   7.065  0.2808 -0.1280 -0.7006
  983TIP3   OH224507   6.230   1.367   7.465  0.6167 -0.4793 -0.1672
  983TIP3    H124508   6.300   1.307   7.437 -0.9469 -1.5415 -1.9066
  983TIP3    H224509   6.149   1.325   7.434 -0.9635 -0.0935  3.1672
  984TIP3   OH224510   4.785   6.014   8.272  0.1716  0.2375 -0.4827
  984TIP3    H124511   4.856   5.994   8.212 -0.8686 -0.5934 -1.4553
  984TIP3    H224512   4.747   5.929   8.294  0.1216  0.5887  0.8333
  985TIP3   OH224513   6.463   0.267   7.323 -0.2712 -0.0007 -0.4804
  985TIP3    H124514   6.401   0.199   7.294 -0.5360 -0.6426  1.5013
  985TIP3    H224515   6.419   0.309   7.397  1.3031  0.0966  0.4226
  986TIP3   OH224516   0.853   0.746   7.631 -0.1902  0.6662  0.0343
  986TIP3    H124517   0.945   0.719   7.631  0.0239  1.3703 -0.5596
  986TIP3    H224518   0.837   0.772   7.540 -0.5475  1.9914  0.4738
  987TIP3   OH224519   6.300   1.188   6.196 -0.4601 -0.0024 -0.0782
  987TIP3    H124520   6.332   1.173   6.107 -2.4156 -0.9972 -0.6349
  987TIP3    H224521   6.246   1.112   6.216 -0.1718  0.2833  1.9092
  988TIP3   OH224522   5.331   1.156   6.827  0.5695 -0.8284  0.2821
  988TIP3    H124523   5.356   1.233   6.775 -0.4451 -0.5029  0.2708
  988TIP3    H224524   5.401   1.149   6.893  1.5666 -0.9167 -0.7660
  989TIP3   OH224525   5.836   0.335   7.014 -0.3309  0.2846 -0.4570
  989TIP3    H124526   5.893   0.286   6.955 -0.3639  0.1910 -0.4118
  989TIP3    H224527   5.817   0.275   7.086 -0.0605  0.4947 -0.2079
  990TIP3   OH224528   6.641   1.488   6.338  0.5994 -0.0904  0.4305
  990TIP3    H124529   6.583   1.551   6.381 -0.3474 -2.4318  2.7422
  990TIP3    H224530   6.594   1.463   6.259  0.1190  0.6975  0.4555
  991TIP3   OH224531   6.767   1.315   0.888  0.3415  0.1903 -0.3294
  991TIP3    H124532   6.720   1.289   0.809 -0.8429 -3.6460  1.5023
  991TIP3    H224533   6.698   1.339   0.950  0.9478 -1.8237  1.1669
  992TIP3   OH224534   6.215   0.572   7.786 -0.0575  1.0250 -0.2781
  992TIP3    H124535   6.184   0.484   7.762  0.8915  1.1464 -2.0941
  992TIP3    H224536   6.181   0.587   7.874 -1.3475 -0.6282 -0.4754
  993TIP3   OH224537   1.313   3.077   7.096  0.0416  0.3423  0.6674
  993TIP3    H124538   1.402   3.103   7.070  0.5969 -1.2694  0.9130
  993TIP3    H224539   1.287   3.013   7.030 -1.8027  2.3735 -0.6423
  994TIP3   OH224540   7.078   0.393   8.023 -0.4006  0.0040  0.2805
  994TIP3    H124541   7.037   0.454   7.962 -0.6013 -0.4983 -0.0901
  994TIP3    H224542   7.133   0.337   7.969 -0.4231 -0.3153  0.5795
  995TIP3   OH224543   6.192   0.806   7.331  0.1839 -0.7851 -0.0211
  995TIP3    H124544   6.257   0.805   7.261  0.1256 -0.3586 -0.0827
  995TIP3    H224545   6.115   0.847   7.292  0.5300  0.5107  0.6160
  996TIP3   OH224546   0.173   0.954   6.905  0.4836 -0.0119  0.4589
  996TIP3    H124547   0.107   0.919   6.965 -1.2820  2.0370 -0.2528
  996TIP3    H224548   0.123   0.989   6.832  2.4366  0.5940 -0.6258
  997TIP3   OH224549   5.653   0.127   6.623 -0.3175  0.0918 -0.4185
  997TIP3    H124550   5.695   0.106   6.706  0.5913 -1.2455 -1.1927
  997TIP3    H224551   5.628   0.042   6.586 -0.6409  0.6605 -1.5486
  998TIP3   OH224552   5.266   0.477   8.050 -0.0725  0.0815  0.0003
  998TIP3    H124553   5.241   0.544   7.986 -1.3841  1.3006  1.7264
  998TIP3    H224554   5.199   0.409   8.042 -0.4781  0.4349  0.3585
  999TIP3   OH224555   5.994   1.365   6.474 -0.0760 -0.7776  0.0073
  999TIP3    H124556   6.012   1.368   6.568  0.6674  0.2038 -0.1593
  999TIP3    H224557   6.041   1.287   6.444  0.6339 -0.4579  0.2626
 1000TIP3   OH224558   6.837   1.009   6.420  0.4515  0.3136 -0.2481
 1000TIP3    H124559   6.899   1.082   6.416 -1.4787  2.1768  2.1840
 1000TIP3    H224560   6.759   1.043   6.376 -0.1248 -0.6267  0.0457
 1001TIP3   OH224561   5.041   5.038   7.205 -0.2663 -0.4746  0.1985
 1001TIP3    H124562   4.958   5.000   7.234 -0.3333 -1.9660 -1.8630
 1001TIP3    H224563   5.107   4.996   7.260 -0.5422 -2.0263 -0.6350
 1002TIP3   OH224564   5.543   1.933   7.050 -0.4722 -0.4144 -0.0631
 1002TIP3    H124565   5.500   1.990   6.986 -0.7492  1.4479  1.7240
 1002TIP3    H224566   5.471   1.886   7.091 -0.3195 -1.3640 -0.8599
 1003TIP3   OH224567   6.405   0.793   1.152  0.3387  0.2494 -0.3621
 1003TIP3    H124568   6.426   0.733   1.080  0.2324 -1.0632  0.6925
 1003TIP3    H224569   6.437   0.749   1.230 -1.2338  0.8292  0.6131
 1004TIP3   OH224570   0.144   3.185   7.073 -0.5569  0.1976  0.1949
 1004TIP3    H124571   0.115   3.185   6.982  0.5566  0.6471 -0.1687
 1004TIP3    H224572   0.150   3.278   7.096 -1.5835  0.0790  0.9754
 1005TIP3   OH224573   1.320   7.137   6.574 -0.2617 -0.1346  0.0843
 1005TIP3    H124574   1.363   7.216   6.540  0.3536 -0.1129  0.9015
 1005TIP3    H224575   1.271   7.168   6.650  0.1888 -0.5913  0.5592
 1006TIP3   OH224576   6.967   0.025   6.717 -0.4587  0.0658  0.0645
 1006TIP3    H124577   7.036  -0.031   6.682 -0.2987 -0.2118  0.8020
 1006TIP3    H224578   7.011   0.078   6.784 -0.7786  0.4924 -0.0602
 1007TIP3   OH224579   5.623   6.584   2.095 -0.2903  0.4763  0.3931
 1007TIP3    H124580   5.655   6.549   2.012 -1.5594  0.0248  0.0977
 1007TIP3    H224581   5.528   6.583   2.087 -0.4673 -0.8933  2.3947
 1008TIP3   OH224582   6.236   5.485   0.126 -0.0920 -0.1690  0.5042
 1008TIP3    H124583   6.145   5.469   0.100 -0.4644 -0.4658  1.9538
 1008TIP3    H224584   6.263   5.405   0.170  1.3019 -0.5758 -1.0019
 1009TIP3   OH224585   5.929   6.449   7.020  0.1746  0.7135 -0.1652
 1009TIP3    H124586   6.017   6.411   7.019  0.5696  1.5891 -1.2984
 1009TIP3    H224587   5.873   6.381   6.983  0.7826  1.0054 -1.6736
 1010TIP3   OH224588   3.899   0.680   7.224  0.5976  0.1508  0.0284
 1010TIP3    H124589   3.955   0.756   7.213  1.0192 -0.0617  0.6836
 1010TIP3    H224590   3.934   0.616   7.161  0.5691  0.3083 -0.1496
 1011TIP3   OH224591   0.009   7.301   6.793 -0.1231 -0.6212  0.3329
 1011TIP3    H124592  -0.058   7.346   6.846  0.5517  0.5507  0.1971
 1011TIP3    H224593   0.009   7.211   6.827  0.2783  0.0983  2.3328
 1012TIP3   OH224594   3.859   2.951   0.263  0.1016 -0.2675  0.2209
 1012TIP3    H124595   3.823   2.866   0.290 -0.4457  0.3104  1.3396
 1012TIP3    H224596   3.914   2.978   0.336 -0.7036  0.9074  0.4062
 1013TIP3   OH224597   6.684   6.777   8.102  0.6495 -0.1670 -0.0580
 1013TIP3    H124598   6.678   6.819   8.016  0.7340  1.8937  0.8936
 1013TIP3    H224599   6.603   6.727   8.110  0.9614 -0.9597 -1.6136
 1014TIP3   OH224600   6.052   6.912   0.527  0.3621  0.5443 -0.2573
 1014TIP3    H124601   5.971   6.864   0.512  0.6669  0.7959 -2.9045
 1014TIP3    H224602   6.023   6.995   0.566 -0.9423  1.7677 -3.6494
 1015TIP3   OH224603   3.689   1.224   7.002 -0.1435 -0.7371 -0.0011
 1015TIP3    H124604   3.753   1.164   6.962 -1.4106 -2.3379  0.3275
 1015TIP3    H224605   3.739   1.303   7.021  1.8673 -2.1197  0.6418
 1016TIP3   OH224606   4.824   1.007   6.596  0.0654 -0.3581 -0.5842
 1016TIP3    H124607   4.901   0.952   6.583 -1.4111 -2.8491  0.9876
 1016TIP3    H224608   4.852   1.072   6.661  1.1953 -0.4887 -0.9248
 1017TIP3   OH224609   2.383   2.986   8.150  0.0335  0.4564  0.4919
 1017TIP3    H124610   2.381   3.051   8.220 -0.3963 -0.6723  1.5475
 1017TIP3    H224611   2.339   3.028   8.076 -1.1876  0.9860  1.4983
 1018TIP3   OH224612   0.303   7.243   8.222 -0.2985  0.5423 -0.0832
 1018TIP3    H124613   0.259   7.193   8.291  1.1085 -1.2958 -0.4846
 1018TIP3    H224614   0.280   7.198   8.141  0.8516  0.6294 -0.4699
 1019TIP3   OH224615   5.013   0.466   6.761 -0.0324  0.1401  0.1627
 1019TIP3    H124616   5.049   0.551   6.737 -2.1263  1.3107  1.0349
 1019TIP3    H224617   4.994   0.424   6.677  0.8353  0.6099 -0.2730
 1020TIP3   OH224618   6.725   6.933   6.076 -0.1699  0.2869 -0.1603
 1020TIP3    H124619   6.783   6.861   6.051 -1.1141 -0.2938 -0.7267
 1020TIP3    H224620   6.638   6.894   6.080 -0.4248  0.9894  1.4146
 1021TIP3   OH224621   0.633   1.333   0.851 -0.2111 -0.2194  0.2201
 1021TIP3    H124622   0.626   1.379   0.767 -0.6140  0.3043  0.5342
 1021TIP3    H224623   0.569   1.376   0.907 -0.1536 -0.7643  0.7097
 1022TIP3   OH224624   6.340   0.878   7.080 -0.0466  0.4591 -0.1882
 1022TIP3    H124625   6.249   0.897   7.101 -1.2612 -3.7589 -1.2311
 1022TIP3    H224626   6.353   0.916   6.993 -0.2223  2.5985  0.6833
 1023TIP3   OH224627   5.880   6.762   7.601  0.3228  0.0758  0.8616
 1023TIP3    H124628   5.870   6.855   7.579 -0.4718  0.2907  2.1016
 1023TIP3    H224629   5.968   6.740   7.571  0.6334  1.3116  0.8388
 1024TIP3   OH224630   5.068   0.195   0.159 -0.1518 -0.0589  0.2728
 1024TIP3    H124631   5.111   0.212   0.075  0.9790 -1.9871  0.4445
 1024TIP3    H224632   5.048   0.102   0.157 -2.1737  0.3249  1.2228
 1025TIP3   OH224633   4.871   6.560   7.636 -0.0820 -0.4501 -1.0048
 1025TIP3    H124634   4.817   6.559   7.715 -0.7712 -0.6720 -1.4727
 1025TIP3    H224635   4.960   6.548   7.667 -0.5465 -2.3738 -0.4061
 1026TIP3   OH224636   6.527   6.947   7.216 -0.1999  0.0229  0.2654
 1026TIP3    H124637   6.462   6.992   7.270 -0.6209  0.8938 -0.9458
 1026TIP3    H224638   6.601   7.007   7.213 -1.4219  1.4450 -2.7658
 1027TIP3   OH224639   1.196   2.809   7.712 -0.2134 -0.3741 -0.5479
 1027TIP3    H124640   1.275   2.854   7.742 -1.0641  1.2627 -0.7132
 1027TIP3    H224641   1.215   2.788   7.620 -0.1540  0.4746 -0.7375
 1028TIP3   OH224642   5.250   6.458   6.662 -0.0556 -0.0352 -0.0645
 1028TIP3    H124643   5.191   6.456   6.587  0.1538  1.0406 -0.2610
 1028TIP3    H224644   5.325   6.509   6.632  0.7146 -0.8987  0.3764
 1029TIP3   OH224645   5.699   0.021   6.871  0.7874 -0.4609  0.6618
 1029TIP3    H124646   5.734  -0.033   6.942 -0.6066 -0.5046  1.3314
 1029TIP3    H224647   5.611   0.044   6.900  0.0599 -0.7819 -1.2149
 1030TIP3   OH224648   1.203   2.225   8.430  0.1375 -0.3867  0.7465
 1030TIP3    H124649   1.132   2.198   8.488 -1.2411  2.8371  0.6495
 1030TIP3    H224650   1.217   2.317   8.450  3.1638 -0.4964 -0.4687
 1031TIP3   OH224651   2.323   3.205   7.925  0.5508 -0.1614  0.2245
 1031TIP3    H124652   2.337   3.282   7.981  0.3581  0.5000 -0.6267
 1031TIP3    H224653   2.274   3.238   7.850 -0.8939 -1.4327  0.5946
 1032TIP3   OH224654   0.836   2.101   8.271  0.1289  0.5436 -0.3311
 1032TIP3    H124655   0.843   2.148   8.188  0.6503  2.8967  1.0155
 1032TIP3    H224656   0.796   2.163   8.332 -2.8495 -2.0462  0.5404
 1033TIP3   OH224657   6.410   1.449   7.867 -0.1929  0.2326 -0.4951
 1033TIP3    H124658   6.343   1.513   7.844 -0.6513 -0.1719 -0.2908
 1033TIP3    H224659   6.390   1.373   7.813  0.3720  0.2704 -0.7609
 1034TIP3   OH224660   0.497   2.156   6.955 -0.1400  0.1861 -0.2391
 1034TIP3    H124661   0.493   2.206   6.873  3.9026 -0.1701 -0.7255
 1034TIP3    H224662   0.462   2.215   7.021  1.0431  2.2770 -1.4389
 1035TIP3   OH224663   1.082   3.603   7.425 -0.7415  0.2255 -0.4378
 1035TIP3    H124664   0.996   3.605   7.466 -0.0526 -3.7400  1.4545
 1035TIP3    H224665   1.139   3.650   7.486 -0.8457 -0.4437  0.1734
 1036TIP3   OH224666   0.988   2.191   0.846  0.6775 -0.5393  0.3586
 1036TIP3    H124667   1.024   2.104   0.863  0.9947 -0.4359  0.2232
 1036TIP3    H224668   0.976   2.195   0.751  2.3987  0.2276  0.1522
 1037TIP3   OH224669   7.044   2.333   6.386  0.2949 -0.3882 -0.0856
 1037TIP3    H124670   7.121   2.339   6.442 -0.2064  0.4082  0.5252
 1037TIP3    H224671   7.026   2.424   6.360 -0.1961 -0.6151 -0.5537
 1038TIP3   OH224672   5.328   2.960   6.873 -0.1018  0.3004 -0.0980
 1038TIP3    H124673   5.244   2.940   6.914  0.0547  0.3331  0.2416
 1038TIP3    H224674   5.316   2.939   6.780 -0.5151  0.4016 -0.0668
 1039TIP3   OH224675   3.915   0.656   6.541  0.1356 -0.4840  0.0402
 1039TIP3    H124676   3.861   0.580   6.522  0.0857 -0.5080  0.2736
 1039TIP3    H224677   3.858   0.731   6.523 -0.6366 -0.5263  2.1691
 1040TIP3   OH224678   6.238   2.389   6.960  0.0403  0.0983  0.0140
 1040TIP3    H124679   6.271   2.428   7.041  0.8077 -0.2756 -0.1119
 1040TIP3    H224680   6.297   2.421   6.892 -0.0120 -0.3591 -0.2537
 1041TIP3   OH224681   6.881   1.146   7.083 -0.0484 -0.3463 -0.2475
 1041TIP3    H124682   6.932   1.227   7.079 -0.0200 -0.4119 -1.6577
 1041TIP3    H224683   6.941   1.081   7.120  0.7708 -0.3228 -1.4943
 1042TIP3   OH224684   6.986   1.263   6.580 -0.2214 -0.1589 -0.4202
 1042TIP3    H124685   6.929   1.229   6.649 -0.3930  0.1656 -0.4013
 1042TIP3    H224686   7.037   1.187   6.552 -1.7484 -0.8078 -1.5117
 1043TIP3   OH224687   4.444   6.450   6.490 -0.3814 -0.4226  0.1706
 1043TIP3    H124688   4.502   6.447   6.567 -0.6570 -1.3876  0.3394
 1043TIP3    H224689   4.497   6.494   6.423 -0.0932  0.3120  0.8726
 1044TIP3   OH224690   4.298   1.352   7.594 -0.2129 -0.5656  0.3889
 1044TIP3    H124691   4.255   1.271   7.567 -1.3975  0.3248 -0.4680
 1044TIP3    H224692   4.258   1.374   7.678 -0.3617 -0.5413  0.3135
 1045TIP3   OH224693   6.377   6.105   6.423  0.4477 -0.0305  0.0981
 1045TIP3    H124694   6.418   6.177   6.375  0.5084  0.1482  0.4179
 1045TIP3    H224695   6.283   6.122   6.416  0.3896 -0.7913 -1.1851
 1046TIP3   OH224696   5.320   1.926   6.594 -0.3200 -0.3431 -0.4049
 1046TIP3    H124697   5.236   1.941   6.549 -1.0895 -2.7408  0.1727
 1046TIP3    H224698   5.301   1.859   6.659  1.6145  0.5414  1.1384
 1047TIP3   OH224699   5.754   0.471   6.768  0.1479  0.0095  0.1289
 1047TIP3    H124700   5.788   0.418   6.839  0.6003  0.6438  0.3892
 1047TIP3    H224701   5.803   0.553   6.773 -0.0047  0.1626 -0.7421
 1048TIP3   OH224702   4.000   0.370   0.350  0.2818  0.1399  0.2628
 1048TIP3    H124703   4.012   0.460   0.380  0.6965  0.1447  0.0956
 1048TIP3    H224704   3.970   0.323   0.427 -1.4243  0.7334 -0.0228
 1049TIP3   OH224705   2.067   1.041   0.178  0.4894  0.3393 -0.1582
 1049TIP3    H124706   2.000   1.075   0.118  1.2910 -1.6985 -2.2721
 1049TIP3    H224707   2.090   0.955   0.143  1.0100 -0.9274  3.0876
 1050TIP3   OH224708   5.655   0.814   6.837 -0.0153  0.4802  0.2713
 1050TIP3    H124709   5.624   0.812   6.746  0.2142  0.3756  0.1940
 1050TIP3    H224710   5.580   0.843   6.888 -0.8372 -1.6916  0.3392
 1051TIP3   OH224711   0.892   6.948   7.731  0.7540 -0.0129 -0.0601
 1051TIP3    H124712   0.924   6.865   7.695 -0.3019 -0.1158 -0.8073
 1051TIP3    H224713   0.937   7.015   7.680  1.8263 -0.1135  0.7370
 1052TIP3   OH224714   1.801   2.912   7.496  0.1108 -0.0757  0.0343
 1052TIP3    H124715   1.843   2.855   7.561 -1.5929  0.7179  1.9005
 1052TIP3    H224716   1.773   2.853   7.426  1.2623 -1.0624  0.3934
 1053TIP3   OH224717   6.483   2.068   6.606  0.0458  0.3552 -0.0120
 1053TIP3    H124718   6.505   2.076   6.513  1.1153 -0.6992  0.1272
 1053TIP3    H224719   6.530   2.140   6.648 -1.1305  1.3480 -0.3928
 1054TIP3   OH224720   7.064   6.135   0.433  0.4830 -0.7331 -0.2414
 1054TIP3    H124721   7.154   6.103   0.424 -0.4048 -2.7497 -2.4977
 1054TIP3    H224722   7.019   6.067   0.483 -0.6067 -1.4482 -2.1484
 1055TIP3   OH224723   0.625   2.783   8.380 -0.0390 -0.2479 -0.4196
 1055TIP3    H124724   0.609   2.697   8.419 -0.4538 -0.2089 -0.4990
 1055TIP3    H224725   0.712   2.808   8.410 -0.5659  0.0147  0.9110
 1056TIP3   OH224726   0.255   2.385   7.381  0.2990 -1.0448  0.7182
 1056TIP3    H124727   0.266   2.479   7.399 -0.0330 -0.9717  0.5537
 1056TIP3    H224728   0.266   2.343   7.466  0.8268 -0.8889  0.7266
 1057TIP3   OH224729   1.004   3.905   7.418  0.0328 -0.0894  0.1013
 1057TIP3    H124730   1.039   3.872   7.500  0.0335 -0.6303 -0.1127
 1057TIP3    H224731   0.909   3.909   7.431 -0.0005 -0.5291  0.0052
 1058TIP3   OH224732   5.568   3.859   6.931  0.7004 -0.4466 -0.1935
 1058TIP3    H124733   5.616   3.917   6.991  1.1065 -1.2355  0.2449
 1058TIP3    H224734   5.502   3.916   6.892 -0.5624 -0.2279  2.1191
 1059TIP3   OH224735   0.655   2.169   8.073 -0.2499  0.2716 -0.6753
 1059TIP3    H124736   0.584   2.224   8.039 -2.9182 -0.7217  3.0119
 1059TIP3    H224737   0.617   2.082   8.078  1.2922 -0.3166  1.2339
 1060TIP3   OH224738   2.253   1.148   8.449 -0.0898  0.3605 -0.4930
 1060TIP3    H124739   2.165   1.183   8.460  0.2283  1.3520 -0.9925
 1060TIP3    H224740   2.304   1.188   8.520 -0.1581 -0.6088  0.1018
 1061TIP3   OH224741   3.689   3.596   6.680  0.4574 -0.3877 -0.0877
 1061TIP3    H124742   3.603   3.612   6.720  0.9248 -0.4310  0.9522
 1061TIP3    H224743   3.744   3.668   6.713  1.6241 -2.0355  1.7095
 1062TIP3   OH224744   1.746   1.791   7.921 -0.5209  0.6502 -0.3191
 1062TIP3    H124745   1.725   1.760   7.832  1.2232 -1.0211 -0.1850
 1062TIP3    H224746   1.686   1.743   7.977 -0.8719  0.8767 -0.4983
 1063TIP3   OH224747   6.808   1.723   7.677 -0.4808  0.2797  0.1864
 1063TIP3    H124748   6.723   1.729   7.721 -0.0701  0.7351  0.9249
 1063TIP3    H224749   6.821   1.629   7.664 -2.5056  0.3286 -2.7208
 1064TIP3   OH224750   0.428   3.811   7.438  0.3325 -0.2546  0.6984
 1064TIP3    H124751   0.368   3.882   7.463  0.0563 -0.6395  1.1252
 1064TIP3    H224752   0.442   3.824   7.344 -1.6752 -1.1060  0.2585
 1065TIP3   OH224753   1.214   3.354   7.480 -0.1241 -0.3236  0.3965
 1065TIP3    H124754   1.156   3.423   7.450  0.9021  1.1193  1.6360
 1065TIP3    H224755   1.172   3.272   7.453 -3.2309  0.6296  2.1483
 1066TIP3   OH224756   0.125   2.089   6.489  0.9155  0.0559 -0.4981
 1066TIP3    H124757   0.095   2.077   6.399  2.5686 -1.7318 -0.8173
 1066TIP3    H224758   0.049   2.128   6.533  0.0455  0.8557 -2.6099
 1067TIP3   OH224759   1.712   1.929   8.204 -0.4369 -0.7687  0.4294
 1067TIP3    H124760   1.671   1.902   8.122  1.4485 -0.8732 -0.5167
 1067TIP3    H224761   1.760   1.852   8.234  2.8714  0.6359 -0.9555
 1068TIP3   OH224762   1.745   1.535   6.376 -0.3328  0.1584 -0.3671
 1068TIP3    H124763   1.726   1.450   6.336  2.4886 -1.6929  1.9718
 1068TIP3    H224764   1.802   1.579   6.313  0.7527 -1.0433 -0.2569
 1069TIP3   OH224765   2.631   1.879   7.385 -0.5090  0.0451 -0.2150
 1069TIP3    H124766   2.702   1.846   7.329 -1.0031 -1.4726  0.0289
 1069TIP3    H224767   2.632   1.821   7.461 -0.4176  1.5579  0.9440
 1070TIP3   OH224768   0.421   1.260   7.743  1.0393  0.1548  0.1430
 1070TIP3    H124769   0.399   1.167   7.739 -0.3906  0.5207 -0.6988
 1070TIP3    H224770   0.430   1.286   7.652 -1.1687  1.4407  0.2766
 1071TIP3   OH224771   1.833   3.712   7.269 -0.1688  0.3602 -0.2423
 1071TIP3    H124772   1.902   3.764   7.310 -0.0560  0.2048 -0.2347
 1071TIP3    H224773   1.814   3.758   7.187 -0.3709  0.6516 -0.0348
 1072TIP3   OH224774   7.303   1.754   7.099 -0.2032 -0.0560  0.0401
 1072TIP3    H124775   7.287   1.846   7.078  0.0493 -0.1329 -0.4749
 1072TIP3    H224776   7.353   1.756   7.181  0.0823  0.2651 -0.1469
 1073TIP3   OH224777   1.076   4.566   6.629  0.1254  0.0286  0.1205
 1073TIP3    H124778   1.062   4.657   6.656 -0.2840 -0.1017  0.3590
 1073TIP3    H224779   1.124   4.573   6.546  1.0150  0.4380  0.6651
 1074TIP3   OH224780   0.220   3.697   7.031  0.0795  0.7207 -0.5537
 1074TIP3    H124781   0.140   3.739   7.062  1.7547  4.4514 -1.0128
 1074TIP3    H224782   0.219   3.710   6.936  0.7177 -0.1900 -0.6946
 1075TIP3   OH224783   1.626   5.123   6.380 -0.2459 -0.1384 -0.6628
 1075TIP3    H124784   1.651   5.047   6.431 -0.8361 -0.3848 -0.7400
 1075TIP3    H224785   1.598   5.088   6.295  2.9246  0.4275 -2.0075
 1076TIP3   OH224786   0.988   1.847   7.554 -0.4713  0.5198 -0.1448
 1076TIP3    H124787   0.951   1.765   7.520  0.4591 -0.3737  0.9728
 1076TIP3    H224788   0.999   1.902   7.477 -2.1727  0.0285 -0.7718
 1077TIP3   OH224789   0.347   3.251   7.743 -0.7317 -0.1446  0.2882
 1077TIP3    H124790   0.255   3.271   7.731 -0.9077 -2.4177 -2.4809
 1077TIP3    H224791   0.348   3.182   7.809 -0.9286  0.3865  0.8566
 1078TIP3   OH224792   1.296   4.517   7.559  0.2819 -0.6021  0.1043
 1078TIP3    H124793   1.228   4.494   7.495 -0.3822  0.6941  0.3177
 1078TIP3    H224794   1.342   4.591   7.518  1.4629 -1.3715  0.0344
 1079TIP3   OH224795   1.521   1.452   7.152 -0.0469 -0.0081 -0.0524
 1079TIP3    H124796   1.528   1.489   7.240 -0.0913 -0.6214  0.2098
 1079TIP3    H224797   1.462   1.512   7.106  0.1874  0.4636  0.2488
 1080TIP3   OH224798   2.949   0.964   8.376 -0.0026  0.6267 -0.8398
 1080TIP3    H124799   3.021   0.901   8.379 -0.5619  0.0584  0.9848
 1080TIP3    H224800   2.988   1.044   8.341  1.1653 -0.1115 -1.2576
 1081TIP3   OH224801   3.218   1.348   1.033 -0.3842 -0.5719 -0.4955
 1081TIP3    H124802   3.159   1.273   1.045 -0.4880 -0.7463 -1.9983
 1081TIP3    H224803   3.236   1.378   1.122 -2.1121 -1.0140  0.0361
 1082TIP3   OH224804   2.268   2.644   0.422 -0.1351  0.0789  0.3131
 1082TIP3    H124805   2.237   2.580   0.358 -1.6105 -0.1313  1.1970
 1082TIP3    H224806   2.189   2.674   0.466  0.4751  3.0443 -0.5395
 1083TIP3   OH224807   7.098   0.615   8.329  0.3224  0.2597  0.1004
 1083TIP3    H124808   7.015   0.646   8.292  1.2168  1.7532 -0.7056
 1083TIP3    H224809   7.129   0.687   8.383  0.4085 -0.8506  1.5585
 1084TIP3   OH224810   1.021   5.707   7.018 -0.1834 -0.3064 -0.8431
 1084TIP3    H124811   1.113   5.726   7.034 -0.7317  1.0388  0.8796
 1084TIP3    H224812   1.021   5.648   6.942  2.0397  0.1881 -1.2500
 1085TIP3   OH224813   7.123   2.945   6.927 -0.1164 -0.6394  0.5142
 1085TIP3    H124814   7.198   2.978   6.879  1.4189 -0.9947  2.6039
 1085TIP3    H224815   7.106   2.859   6.889 -0.5099  0.0955 -1.0355
 1086TIP3   OH224816   0.574   2.905   7.639 -0.2558 -0.4047 -0.3512
 1086TIP3    H124817   0.645   2.855   7.599 -0.5523 -0.2892 -1.0321
 1086TIP3    H224818   0.617   2.978   7.683  0.1665 -1.1503  0.5052
 1087TIP3   OH224819   1.674   4.704   7.012 -0.2008  0.0549 -0.1557
 1087TIP3    H124820   1.755   4.665   7.044 -0.3578  0.4306  0.6927
 1087TIP3    H224821   1.703   4.778   6.959 -0.0643  1.7317  2.2171
 1088TIP3   OH224822   1.841   1.513   8.458 -0.6523  0.7303 -0.0108
 1088TIP3    H124823   1.799   1.597   8.475 -1.4622  0.6735 -1.6025
 1088TIP3    H224824   1.795   1.479   8.381  0.3908 -0.6726 -0.0250
 1089TIP3   OH224825   0.254   4.449   0.524 -0.2516  0.2174  0.1737
 1089TIP3    H124826   0.269   4.468   0.432 -0.7823 -2.1182 -0.4271
 1089TIP3    H224827   0.159   4.440   0.531 -0.2207  0.4927  0.9810
 1090TIP3   OH224828   1.584   3.637   6.326  0.3375 -0.3729  0.4203
 1090TIP3    H124829   1.593   3.595   6.240  0.2237  0.2889  0.0773
 1090TIP3    H224830   1.648   3.709   6.324  0.8799 -0.8353  1.1891
 1091TIP3   OH224831   0.507   1.135   8.042 -0.2802 -0.1688 -0.4688
 1091TIP3    H124832   0.531   1.223   8.069 -0.6275 -0.2389  0.0695
 1091TIP3    H224833   0.543   1.078   8.110 -0.2089 -0.4248 -0.7206
 1092TIP3   OH224834   1.242   1.134   0.420 -0.4065  0.1177  0.2415
 1092TIP3    H124835   1.276   1.138   0.331 -0.2222 -1.5446  0.2247
 1092TIP3    H224836   1.178   1.063   0.419 -0.3153 -0.0012  1.4663
 1093TIP3   OH224837   0.408   3.086   6.005 -0.3421 -0.1825  0.2297
 1093TIP3    H124838   0.446   3.042   6.081 -0.3099  0.2385  0.4599
 1093TIP3    H224839   0.330   3.129   6.039 -0.6611 -0.4949 -0.1061
 1094TIP3   OH224840   0.477   1.721   0.053 -0.1182 -0.3630  0.0796
 1094TIP3    H124841   0.469   1.666  -0.026  0.0308 -0.1161 -0.1077
 1094TIP3    H224842   0.566   1.705   0.084  0.9911  2.0772 -1.6896
 1095TIP3   OH224843   0.663   3.106   6.525 -0.1073 -0.2983  0.2737
 1095TIP3    H124844   0.740   3.067   6.484 -0.2749 -2.0805  1.5854
 1095TIP3    H224845   0.640   3.179   6.468  0.7867 -1.5528 -1.7515
 1096TIP3   OH224846   3.981   2.106   7.302 -0.1075  0.2367 -0.1450
 1096TIP3    H124847   3.892   2.133   7.325 -1.2058 -3.2733 -0.0672
 1096TIP3    H224848   3.973   2.068   7.215  1.1102 -1.1927  0.3431
 1097TIP3   OH224849   7.287   3.486   6.843  0.0802  0.0118  0.5003
 1097TIP3    H124850   7.234   3.477   6.764 -1.2327  0.8141  1.2768
 1097TIP3    H224851   7.314   3.396   6.864  0.5525 -0.1949 -0.9148
 1098TIP3   OH224852   1.232   4.738   6.094  0.0185  0.0938 -0.5797
 1098TIP3    H124853   1.143   4.724   6.062 -0.5412  0.1616  0.9302
 1098TIP3    H224854   1.279   4.658   6.071  0.1817  0.9430 -3.3978
 1099TIP3   OH224855   0.358   4.643   6.632  0.2046 -0.2493  0.3377
 1099TIP3    H124856   0.426   4.656   6.566 -0.9634  0.3071 -0.7726
 1099TIP3    H224857   0.298   4.579   6.592 -0.2379 -0.3012  1.0742
 1100TIP3   OH224858   0.985   4.582   6.306  0.0600 -0.8253 -0.1483
 1100TIP3    H124859   0.918   4.525   6.345  0.0051  0.1778  1.2483
 1100TIP3    H224860   0.956   4.671   6.328  1.5872 -0.3732  0.0398
 1101TIP3   OH224861   0.725   1.981   7.645  0.1183 -0.4048 -0.0208
 1101TIP3    H124862   0.713   1.988   7.740  0.3180  1.1778 -0.1003
 1101TIP3    H224863   0.819   1.969   7.634  0.5068  2.3145 -0.1278
 1102TIP3   OH224864   1.181   2.969   6.629  0.2466  0.0754  0.1739
 1102TIP3    H124865   1.194   3.061   6.607  0.3977  0.5310  2.0243
 1102TIP3    H224866   1.087   2.962   6.645 -0.1804 -0.7164 -2.5629
 1103TIP3   OH224867   0.759   5.196   0.950 -0.2138 -0.3451 -0.0993
 1103TIP3    H124868   0.692   5.133   0.976 -0.1756 -1.3328 -2.2800
 1103TIP3    H224869   0.841   5.155   0.975 -0.3430  0.4337  1.6836
 1104TIP3   OH224870   0.209   2.341   0.258  0.4065  0.5928  0.3557
 1104TIP3    H124871   0.275   2.283   0.220 -2.5786 -0.9549 -2.8267
 1104TIP3    H224872   0.201   2.412   0.194 -2.3084 -0.2857 -0.3770
 1105TIP3   OH224873   1.352   2.976   0.192  0.0639  0.0113 -0.2745
 1105TIP3    H124874   1.445   2.978   0.215  0.3755 -1.8523 -1.2748
 1105TIP3    H224875   1.309   3.026   0.261  1.7877  0.7293  0.3070
 1106TIP3   OH224876   1.694   4.032   7.878 -0.4410  0.5319  0.6566
 1106TIP3    H124877   1.736   4.088   7.813  0.8957 -0.8740  0.2793
 1106TIP3    H224878   1.767   3.991   7.925 -1.2799 -3.4019 -1.2304
 1107TIP3   OH224879   1.265   2.483   7.692  0.5714 -0.3727 -0.7695
 1107TIP3    H124880   1.202   2.547   7.726 -0.7745 -1.9379 -0.2693
 1107TIP3    H224881   1.319   2.533   7.631 -0.4052  1.2657 -0.3202
 1108TIP3   OH224882   0.649   2.841   7.155  0.2680 -0.0673  0.4984
 1108TIP3    H124883   0.623   2.911   7.214 -0.1239  0.4747 -0.2968
 1108TIP3    H224884   0.593   2.854   7.078  0.3223 -1.1390  0.2709
 1109TIP3   OH224885   1.683   1.923   5.917  0.3357  0.0415  0.2627
 1109TIP3    H124886   1.592   1.909   5.946  0.0968  0.8778 -0.0481
 1109TIP3    H224887   1.734   1.858   5.965 -0.5358 -0.9895 -0.1835
 1110TIP3   OH224888   1.751   3.472   7.173 -0.2728 -0.1106 -0.1380
 1110TIP3    H124889   1.668   3.501   7.135  0.3239  0.7345 -0.8113
 1110TIP3    H224890   1.786   3.549   7.217 -0.7367 -0.9721  1.7688
 1111TIP3   OH224891   1.945   1.613   7.342 -0.2550  1.0386  0.1325
 1111TIP3    H124892   1.906   1.700   7.351 -3.1393 -0.0584 -1.1518
 1111TIP3    H224893   1.918   1.584   7.255  2.8622 -0.1252 -0.4895
 1112TIP3   OH224894   0.843   2.946   0.016 -0.5514 -0.3144 -0.0798
 1112TIP3    H124895   0.892   2.937  -0.066 -0.1822 -2.5394  0.3646
 1112TIP3    H224896   0.906   2.923   0.084 -1.7047 -1.4767  0.6195
 1113TIP3   OH224897   5.357   3.353   6.657  0.3536 -0.0823 -0.2333
 1113TIP3    H124898   5.426   3.296   6.689  0.6837  0.7784  0.6009
 1113TIP3    H224899   5.391   3.442   6.670 -1.5835  0.4007  1.7519
 1114TIP3   OH224900   6.559   2.919   5.557  0.3747  0.5477 -0.3439
 1114TIP3    H124901   6.465   2.926   5.539  0.4696  0.0845 -1.0400
 1114TIP3    H224902   6.564   2.876   5.643 -0.0341 -0.9907 -1.0663
 1115TIP3   OH224903   2.278   2.085   7.099 -0.2430 -0.2511 -0.5326
 1115TIP3    H124904   2.231   2.168   7.100  1.7041  0.9066 -0.9155
 1115TIP3    H224905   2.319   2.080   7.186  0.1130 -0.5186 -0.7142
 1116TIP3   OH224906   2.391   3.069   6.551  0.2411  0.0129  0.2457
 1116TIP3    H124907   2.358   2.981   6.530 -1.1525  0.3002  1.0993
 1116TIP3    H224908   2.459   3.086   6.486 -0.0373 -1.3731 -0.4294
 1117TIP3   OH224909   6.985   2.608   6.275  0.0635  0.3318 -0.1858
 1117TIP3    H124910   7.061   2.661   6.252 -0.5511  0.2270 -2.6281
 1117TIP3    H224911   6.914   2.671   6.285 -0.0392  0.2284 -0.2598
 1118TIP3   OH224912   6.697   1.995   6.427  0.2562  0.3833 -0.5019
 1118TIP3    H124913   6.629   2.014   6.362 -0.2110  1.1326  0.1989
 1118TIP3    H224914   6.725   1.905   6.407  0.0332  0.5640 -1.6574
 1119TIP3   OH224915   1.390   3.940   6.767 -0.1562  0.4697 -0.9715
 1119TIP3    H124916   1.352   4.014   6.814  1.4925 -0.8993  2.7477
 1119TIP3    H224917   1.319   3.877   6.759 -0.2164  0.3022  0.6891
 1120TIP3   OH224918   6.150   1.122   6.518 -0.3630  0.1042 -0.0554
 1120TIP3    H124919   6.236   1.148   6.550 -0.5151 -0.9127  1.2250
 1120TIP3    H224920   6.168   1.049   6.459 -0.2269  0.9026 -1.0164
 1121TIP3   OH224921   1.316   5.484   0.079  0.4542 -0.7077  0.4346
 1121TIP3    H124922   1.392   5.442   0.039  0.7211 -0.9889  1.2272
 1121TIP3    H224923   1.279   5.417   0.137  0.5861 -0.0365  1.3154
 1122TIP3   OH224924   7.023   2.154   0.597 -0.3495  0.0790  0.4337
 1122TIP3    H124925   6.950   2.144   0.658 -0.4216 -0.6234  0.2422
 1122TIP3    H224926   7.036   2.248   0.590 -0.0849  0.1552  1.8181
 1123TIP3   OH224927   5.835   2.803   6.660  0.7630 -0.2886  0.1393
 1123TIP3    H124928   5.880   2.721   6.680  1.8922 -0.0529 -1.3543
 1123TIP3    H224929   5.811   2.795   6.568 -0.6478  0.3629  0.4344
 1124TIP3   OH224930   0.439   2.994   6.700 -0.0533 -0.4460  0.3079
 1124TIP3    H124931   0.518   3.015   6.650  1.0411 -1.8524  1.4081
 1124TIP3    H224932   0.368   3.003   6.637  1.0344  0.4090 -0.8174
 1125TIP3   OH224933   6.976   0.990   7.293 -0.0675  0.0574 -0.4391
 1125TIP3    H124934   6.950   1.079   7.313  0.1445  0.4940 -2.0202
 1125TIP3    H224935   7.056   0.976   7.344 -0.1374  0.7563 -0.1392
 1126TIP3   OH224936   1.217   4.996   6.188 -0.3036 -0.1402 -0.1010
 1126TIP3    H124937   1.128   5.018   6.160 -1.2023 -1.2627  1.7245
 1126TIP3    H224938   1.224   4.902   6.172 -0.3929 -0.5576  2.1478
 1127TIP3   OH224939   7.164   1.999   6.676 -0.0107 -0.0281  0.2409
 1127TIP3    H124940   7.107   2.031   6.606  0.0034  0.6850  0.5507
 1127TIP3    H224941   7.231   1.947   6.631 -0.1638  0.1999 -0.2473
 1128TIP3   OH224942   0.403   1.650   7.386 -0.3141 -0.7306  0.2498
 1128TIP3    H124943   0.343   1.592   7.339 -0.3995 -1.1603  0.8962
 1128TIP3    H224944   0.490   1.626   7.353 -0.5885  1.0702 -1.9973
 1129TIP3   OH224945   7.198   2.339   6.632  0.9454  0.1255  0.1861
 1129TIP3    H124946   7.255   2.414   6.651  0.6466  0.1463  1.0681
 1129TIP3    H224947   7.155   2.321   6.716  0.5355 -0.6293 -0.1842
 1130TIP3   OH224948   0.653   3.076   7.849  0.0529  0.2610  0.5664
 1130TIP3    H124949   0.697   3.001   7.890  1.3398  1.3128  1.1341
 1130TIP3    H224950   0.564   3.073   7.883 -1.1291 -3.3485 -2.4751
 1131TIP3   OH224951   0.704   3.597   8.148 -0.4448 -0.0737  0.2837
 1131TIP3    H124952   0.683   3.664   8.083 -0.7525 -1.0274 -0.6099
 1131TIP3    H224953   0.637   3.530   8.136  0.0503 -0.6949  0.9573
 1132TIP3   OH224954   6.786   2.782   5.975 -0.1533  0.1445 -0.0730
 1132TIP3    H124955   6.810   2.689   5.976  0.2896  0.2588  1.6045
 1132TIP3    H224956   6.841   2.821   5.907 -0.1858 -0.7762 -0.6294
 1133TIP3   OH224957   1.037   3.960   0.702 -0.2250  0.4357  0.2804
 1133TIP3    H124958   1.072   3.980   0.789 -0.7099  2.5548  0.0173
 1133TIP3    H224959   0.963   4.020   0.691  0.0364  0.4272 -1.7444
 1134TIP3   OH224960   1.097   3.297   7.012  0.1095  0.2067  0.1504
 1134TIP3    H124961   1.020   3.327   7.061 -0.8251  0.2421 -1.3044
 1134TIP3    H224962   1.171   3.325   7.066 -0.8939 -0.7937  2.1289
 1135TIP3   OH224963   0.278   2.207   7.590 -0.5113 -0.2448 -0.4326
 1135TIP3    H124964   0.309   2.117   7.598 -1.9528 -0.8448 -1.4070
 1135TIP3    H224965   0.197   2.210   7.642 -1.3113  0.0573 -1.6568
 1136TIP3   OH224966   1.408   3.162   6.000 -0.1365  0.2923  0.0696
 1136TIP3    H124967   1.382   3.072   5.978  0.8864  0.3002 -1.2256
 1136TIP3    H224968   1.498   3.154   6.030  0.7348  1.1543 -2.2064
 1137TIP3   OH224969   0.246   3.269   0.095 -0.5576  0.3933 -0.0497
 1137TIP3    H124970   0.236   3.205   0.025 -2.0385 -0.0319  0.5424
 1137TIP3    H224971   0.225   3.222   0.175  2.3250  0.5420  0.8603
 1138TIP3   OH224972   7.029   3.745   6.638 -0.0538  0.6177  0.2081
 1138TIP3    H124973   6.938   3.721   6.654 -0.1404  0.9287  0.2017
 1138TIP3    H224974   7.026   3.799   6.559  0.0559  1.1279  0.5479
 1139TIP3   OH224975   7.232   2.567   7.522 -0.4702  0.2333 -1.1893
 1139TIP3    H124976   7.253   2.554   7.430  0.6795  0.9200 -1.0308
 1139TIP3    H224977   7.189   2.653   7.526  0.0694  0.4930 -0.9914
 1140TIP3   OH224978   1.424   4.550   6.695  0.3042  0.6298  0.0517
 1140TIP3    H124979   1.433   4.514   6.784 -0.9589 -0.4299 -0.2270
 1140TIP3    H224980   1.370   4.486   6.649  2.3859  0.3061 -2.0046
 1141TIP3   OH224981   0.362   3.747   0.484 -0.4597  0.0881 -0.2721
 1141TIP3    H124982   0.301   3.719   0.416  0.7456 -0.5111 -1.1138
 1141TIP3    H224983   0.384   3.838   0.461 -1.8457  0.6696  0.6342
 1142TIP3   OH224984   1.293   4.165   0.217 -0.5288 -0.3446  0.1820
 1142TIP3    H124985   1.384   4.141   0.238  0.3962  1.6768 -1.4200
 1142TIP3    H224986   1.272   4.112   0.140 -0.3788 -0.1159 -0.0175
 1143TIP3   OH224987   1.689   3.209   7.921  0.1794  0.0411 -0.5401
 1143TIP3    H124988   1.681   3.215   8.016  0.6188  0.6678 -0.5454
 1143TIP3    H224989   1.715   3.296   7.893 -0.8050  0.0939 -1.3295
 1144TIP3   OH224990   1.163   2.041   8.219 -0.0275  0.1728 -0.6077
 1144TIP3    H124991   1.165   2.111   8.283 -0.0905  0.9962 -1.4909
 1144TIP3    H224992   1.091   1.984   8.247  1.9631 -1.2184  1.8182
 1145TIP3   OH224993   0.039   3.203   6.759 -0.5748  0.1760  0.5815
 1145TIP3    H124994  -0.050   3.217   6.726 -0.2816 -0.9705 -0.7135
 1145TIP3    H224995   0.070   3.125   6.713  2.5252  2.7393 -1.9004
 1146TIP3   OH224996   0.795   4.419   6.419  0.1308 -0.1616 -0.0091
 1146TIP3    H124997   0.834   4.332   6.424 -0.7890 -0.5517  0.5512
 1146TIP3    H224998   0.725   4.418   6.484 -1.1022  0.3755 -1.2788
 1147TIP3   OH224999   0.060   3.171   1.535  0.0905  0.1873  0.4800
 1147TIP3    H125000   0.010   3.242   1.575  0.5879  0.1713  1.1420
 1147TIP3    H225001   0.056   3.100   1.599  1.1533  0.2691  0.6481
 1148TIP3   OH225002   1.953   3.107   6.917 -0.1812  0.2030 -1.0557
 1148TIP3    H125003   1.900   3.048   6.864 -1.5715 -0.2049  0.7335
 1148TIP3    H225004   1.893   3.176   6.944  0.9054  1.2742 -1.3284
 1149TIP3   OH225005   2.072   2.541   6.545 -0.3424 -0.0379  0.1823
 1149TIP3    H125006   2.001   2.503   6.494 -0.9087  2.0397 -0.6008
 1149TIP3    H225007   2.150   2.495   6.514 -1.0510 -0.7894 -0.5052
 1150TIP3   OH225008   0.658   3.761   6.512 -0.4155 -0.1646 -0.6282
 1150TIP3    H125009   0.624   3.722   6.432 -0.2633 -2.7717  0.5435
 1150TIP3    H225010   0.646   3.856   6.499 -2.0704 -0.6405 -2.9259
 1151TIP3   OH225011   0.840   3.271   6.740 -0.1740 -0.4640 -0.3526
 1151TIP3    H125012   0.809   3.184   6.763  0.1465 -0.1143  1.4586
 1151TIP3    H225013   0.770   3.330   6.767 -0.0674 -0.0846 -0.8841
 1152TIP3   OH225014   7.009   1.925   6.452  0.4232 -0.1586 -0.0706
 1152TIP3    H125015   6.999   1.926   6.357  1.3488 -1.0821 -0.1733
 1152TIP3    H225016   7.041   1.838   6.473 -2.0969 -0.7828  1.3419
 1153TIP3   OH225017   2.394   4.477   6.056 -0.5436 -0.1944  0.4802
 1153TIP3    H125018   2.420   4.396   6.101 -1.6523 -1.9662 -1.9915
 1153TIP3    H225019   2.375   4.450   5.966  1.1824  3.2017 -0.9849
 1154TIP3   OH225020   2.538   2.667   6.147 -0.3082  0.3117  0.9172
 1154TIP3    H125021   2.523   2.762   6.144  0.0259  0.2986 -2.9877
 1154TIP3    H225022   2.631   2.659   6.165  0.1667  0.7823 -1.2517
 1155TIP3   OH225023   1.535   2.502   1.809  0.3660  0.0664 -0.2969
 1155TIP3    H125024   1.440   2.509   1.822  0.8550  2.2159  2.8543
 1155TIP3    H225025   1.559   2.419   1.850  0.1410  0.6904  1.1257
 1156TIP3   OH225026   0.534   3.071   8.219  0.3894  0.0795 -0.7828
 1156TIP3    H125027   0.525   2.975   8.219  0.1921  0.0900  0.1027
 1156TIP3    H225028   0.628   3.086   8.223  0.3824 -0.0922  0.2405
 1157TIP3   OH225029   1.282   2.123   7.282  0.8200  0.0679  0.0530
 1157TIP3    H125030   1.375   2.100   7.278  0.9638  0.8659 -1.4713
 1157TIP3    H225031   1.258   2.142   7.191 -0.5238  1.0788  0.6041
 1158TIP3   OH225032   0.071   4.307   6.561 -0.1549  0.0001  0.0468
 1158TIP3    H125033   0.063   4.214   6.585 -0.0890  0.1571  0.6732
 1158TIP3    H225034   0.108   4.305   6.473  1.0369 -0.5389  0.5543
 1159TIP3   OH225035   7.287   5.655   7.195 -0.6313 -0.1366  0.1185
 1159TIP3    H125036   7.227   5.653   7.269 -0.8746 -1.1603 -0.0967
 1159TIP3    H225037   7.363   5.606   7.224  0.1828  1.2749  0.4413
 1160TIP3   OH225038   0.486   4.291   0.923 -0.1315 -0.4226 -0.1551
 1160TIP3    H125039   0.528   4.288   0.837 -1.0766  0.3035 -0.6528
 1160TIP3    H225040   0.400   4.330   0.906 -0.5250 -0.7572  1.0393
 1161TIP3   OH225041   0.587   1.974   7.396 -0.0855 -0.3305  0.1050
 1161TIP3    H125042   0.630   2.033   7.334  0.8292 -0.0547  0.9929
 1161TIP3    H225043   0.632   1.990   7.479 -0.6137 -1.4393  0.6069
 1162TIP3   OH225044   1.216   3.339   6.003  0.6770  0.9474  0.2049
 1162TIP3    H125045   1.141   3.280   6.002 -0.3236  2.1635  0.8246
 1162TIP3    H225046   1.289   3.287   5.970 -0.0823 -0.7522  1.1345
 1163TIP3   OH225047   1.489   1.701   2.617  0.1834  0.3968  0.8193
 1163TIP3    H125048   1.456   1.791   2.619  0.4101  0.4892  0.2609
 1163TIP3    H225049   1.546   1.695   2.694  0.1659  0.7259  0.8594
 1164TIP3   OH225050   7.201   4.996   0.665  0.1409  0.5779  0.0488
 1164TIP3    H125051   7.287   4.991   0.622  0.3022 -1.1562  0.5232
 1164TIP3    H225052   7.140   5.016   0.594  0.4948 -1.6408 -0.9174
 1165TIP3   OH225053   1.804   3.545   8.333  0.2855 -0.5100  0.1671
 1165TIP3    H125054   1.863   3.535   8.407 -0.1844 -0.6642  0.5269
 1165TIP3    H225055   1.729   3.593   8.368  1.1759  1.6751 -0.8197
 1166TIP3   OH225056   0.569   2.475   6.000 -0.2662 -0.0085 -0.2437
 1166TIP3    H125057   0.657   2.472   6.038 -0.4297 -0.1339  0.1249
 1166TIP3    H225058   0.549   2.384   5.977  0.1005  0.1542 -1.2556
 1167TIP3   OH225059   1.266   0.883   0.963  0.0069  0.1306 -0.3630
 1167TIP3    H125060   1.223   0.854   0.882  0.0240 -2.1187  0.4088
 1167TIP3    H225061   1.194   0.913   1.018 -0.1351  0.4397 -0.7122
 1168TIP3   OH225062   6.734   6.268   0.305 -0.1242  0.1354 -0.0382
 1168TIP3    H125063   6.750   6.358   0.277  0.4121 -0.5624 -2.0003
 1168TIP3    H225064   6.645   6.249   0.278  0.1439 -0.2943 -0.6308
 1169TIP3   OH225065   1.898   2.306   7.220 -0.8717 -0.3790 -0.0167
 1169TIP3    H125066   1.931   2.389   7.254  0.0969  0.2519 -2.3695
 1169TIP3    H225067   1.803   2.311   7.232 -0.7299  0.6544  0.7298
 1170TIP3   OH225068   0.602   2.889   1.679  0.3373 -1.1042 -0.0406
 1170TIP3    H125069   0.677   2.949   1.688 -0.3902 -0.4007  1.4166
 1170TIP3    H225070   0.626   2.813   1.731 -0.0071 -0.8259  0.5291
 1171TIP3   OH225071   6.717   0.826   7.353 -0.2729 -0.1259 -0.5055
 1171TIP3    H125072   6.806   0.860   7.354 -0.4693  0.3857  0.0326
 1171TIP3    H225073   6.721   0.746   7.406 -0.2862  0.3094  0.1668
 1172TIP3   OH225074   0.599   4.510   1.559 -0.3515  0.7314 -0.1233
 1172TIP3    H125075   0.670   4.523   1.622 -1.1668 -0.9758  1.1517
 1172TIP3    H225076   0.525   4.481   1.611 -0.6880 -1.9039 -1.9934
 1173TIP3   OH225077   1.363   1.274   0.190  0.4180 -0.3661  0.0801
 1173TIP3    H125078   1.409   1.354   0.215  0.3205  0.2370 -1.5776
 1173TIP3    H225079   1.314   1.298   0.111 -0.2102 -1.8542 -0.0059
 1174TIP3   OH225080   2.636   1.073   7.574 -0.0194  0.1237  0.4816
 1174TIP3    H125081   2.655   1.100   7.484 -2.9489  0.7477  0.0026
 1174TIP3    H225082   2.616   1.156   7.619  1.1093 -0.2212  1.6394
 1175TIP3   OH225083   2.126   6.903   8.373 -0.0675 -0.0280  0.1949
 1175TIP3    H125084   2.138   6.850   8.452  0.4756  2.0964  1.5704
 1175TIP3    H225085   2.035   6.933   8.379  0.9218  2.8634  1.8004
 1176TIP3   OH225086   7.222   1.074   7.098 -0.1254 -0.0059 -0.0690
 1176TIP3    H125087   7.208   1.043   7.009  1.4578  0.1935 -0.3863
 1176TIP3    H225088   7.229   0.993   7.150  0.6332 -0.1406 -0.3804
 1177TIP3   OH225089   2.631   1.446   7.979 -0.1970 -0.1347  0.5577
 1177TIP3    H125090   2.666   1.521   7.932 -1.8716 -0.1225 -0.7098
 1177TIP3    H225091   2.637   1.470   8.072  0.8509  0.8408  0.2417
 1178TIP3   OH225092   1.384   1.421   0.453  0.2566  0.4131  0.4738
 1178TIP3    H125093   1.378   1.448   0.545 -1.0584  0.3644  0.4215
 1178TIP3    H225094   1.324   1.346   0.446  0.8963 -0.0400 -0.2638
 1179TIP3   OH225095   7.293   2.267   7.430 -0.6814 -0.1116 -0.1766
 1179TIP3    H125096   7.373   2.292   7.384 -0.5593 -0.3777 -0.1064
 1179TIP3    H225097   7.272   2.343   7.485 -0.8615  0.2358 -0.7190
 1180TIP3   OH225098   0.882   2.559   6.617  0.5084  0.0681 -0.1813
 1180TIP3    H125099   0.915   2.501   6.549  0.5953 -1.1158  0.8607
 1180TIP3    H225100   0.961   2.592   6.660  0.4581  0.9219 -0.7310
 1181TIP3   OH225101   3.170   0.795   8.392 -1.0507  0.8428  0.3626
 1181TIP3    H125102   3.208   0.736   8.327  0.8713  2.5228 -0.1167
 1181TIP3    H225103   3.177   0.748   8.475 -2.0561 -0.6816 -0.4002
 1182TIP3   OH225104   0.658   2.010   0.490 -0.0319  0.2001  0.0540
 1182TIP3    H125105   0.634   2.099   0.515  0.8103  0.3093  0.4984
 1182TIP3    H225106   0.751   2.003   0.512 -0.1505 -0.8722  0.2442
 1183TIP3   OH225107   0.201   4.109   8.325 -0.3109  0.1995  0.1058
 1183TIP3    H125108   0.267   4.170   8.358  0.9582 -0.6022 -0.9167
 1183TIP3    H225109   0.184   4.050   8.399 -0.0868  0.5684  0.4538
 1184TIP3   OH225110   6.181   4.441   6.719 -0.0677 -0.0331  0.0856
 1184TIP3    H125111   6.211   4.350   6.714  1.3682  0.4092  0.4390
 1184TIP3    H225112   6.182   4.471   6.629  2.0376  0.4372  0.2539
 1185TIP3   OH225113   6.594   3.466   6.640 -0.5466  0.1045 -0.0609
 1185TIP3    H125114   6.638   3.382   6.632 -0.9439 -0.2162  1.0249
 1185TIP3    H225115   6.507   3.452   6.603  0.3102  0.7999 -2.4165
 1186TIP3   OH225116   6.940   3.681   6.241  0.1583  0.3776 -0.1550
 1186TIP3    H125117   6.895   3.648   6.163 -0.2541  0.2624  0.1275
 1186TIP3    H225118   6.869   3.711   6.298  0.5505  2.1208 -0.5651
 1187TIP3   OH225119   1.825   2.158   8.212  0.5820  0.7466  0.7721
 1187TIP3    H125120   1.761   2.088   8.203 -0.8797  2.3859 -2.8618
 1187TIP3    H225121   1.910   2.113   8.215 -0.3401 -1.2308 -1.1714
 1188TIP3   OH225122   2.083   2.221   1.627  0.1373  0.1154 -0.1359
 1188TIP3    H125123   2.127   2.178   1.701  1.9942  1.2565 -0.5263
 1188TIP3    H225124   2.129   2.187   1.549 -0.3123  0.5868 -0.6138
 1189TIP3   OH225125   3.063   1.418   8.445 -0.6629  0.1875 -0.0406
 1189TIP3    H125126   2.976   1.405   8.408 -1.8980  0.4156  2.6497
 1189TIP3    H225127   3.081   1.336   8.491 -0.3208  0.8792  1.0707
 1190TIP3   OH225128   4.223   4.081   6.804  0.1995 -0.3880  0.4598
 1190TIP3    H125129   4.228   4.165   6.850  0.4687  0.3819 -0.9364
 1190TIP3    H225130   4.307   4.072   6.760 -1.4681  0.9268 -3.2442
 1191TIP3   OH225131   2.625   3.981   6.303  0.6480  0.6509 -0.1103
 1191TIP3    H125132   2.593   3.947   6.387  1.4256 -0.2410 -0.1655
 1191TIP3    H225133   2.681   4.054   6.327 -1.4855  2.3253 -0.0179
 1192TIP3   OH225134   2.144   2.788   6.637 -0.2721 -0.0867 -0.8654
 1192TIP3    H125135   2.100   2.707   6.612  1.0927 -0.4805 -2.0352
 1192TIP3    H225136   2.231   2.781   6.599 -0.2136  2.0386 -1.1782
 1193TIP3   OH225137   2.592   1.523   7.499 -0.0322 -0.3575  0.2031
 1193TIP3    H125138   2.644   1.455   7.541 -0.5064 -0.8683 -0.0361
 1193TIP3    H225139   2.516   1.477   7.462  0.3147  0.0971 -1.1041
 1194TIP3   OH225140   2.137   2.934   7.006 -0.4091  0.1747  0.2945
 1194TIP3    H125141   2.085   2.858   7.031  0.7511 -0.6651  0.1373
 1194TIP3    H225142   2.071   2.999   6.979 -1.4206 -0.5893  0.8734
 1195TIP3   OH225143   3.624   3.331   7.511  0.6399  0.1862  0.3022
 1195TIP3    H125144   3.659   3.276   7.440  2.3650  0.5990  0.8230
 1195TIP3    H225145   3.594   3.269   7.577 -1.1986 -0.2127 -0.8611
 1196TIP3   OH225146   2.152   3.000   8.452  0.4318 -0.5683 -0.5346
 1196TIP3    H125147   2.124   3.080   8.407  1.1579  0.4694  0.8286
 1196TIP3    H225148   2.171   3.028   8.542  2.1622 -1.9658 -0.4282
 1197TIP3   OH225149   2.444   1.699   8.096  0.1144 -0.0048  0.5572
 1197TIP3    H125150   2.466   1.689   8.188 -0.2357  1.1333  0.7715
 1197TIP3    H225151   2.527   1.719   8.053  0.5561 -2.0730  0.3601
 1198TIP3   OH225152   3.281   3.284   7.501  0.1875  1.1973  0.0885
 1198TIP3    H125153   3.306   3.218   7.566 -1.3924  1.7083  1.2375
 1198TIP3    H225154   3.361   3.335   7.486  0.9018  0.2526  0.6471
 1199TIP3   OH225155   0.542   3.080   0.433  0.8295 -0.6759  0.0812
 1199TIP3    H125156   0.574   2.993   0.457 -1.0604 -1.0551  1.3775
 1199TIP3    H225157   0.504   3.068   0.345  1.5419 -0.9057 -0.1969
 1200TIP3   OH225158   1.972   2.219   6.961  0.4005  0.2070 -0.7506
 1200TIP3    H125159   1.983   2.248   7.051  1.6132 -1.6249 -0.2820
 1200TIP3    H225160   1.998   2.294   6.908  0.3362  1.0636  0.4041
 1201TIP3   OH225161   5.182   4.201   6.836 -0.7136  0.0152 -0.7179
 1201TIP3    H125162   5.227   4.269   6.885 -0.5549 -0.7337  0.1738
 1201TIP3    H225163   5.132   4.250   6.769  1.7840  0.8150 -2.0756
 1202TIP3   OH225164   2.459   1.756   0.097 -0.4516  0.4048  0.5390
 1202TIP3    H125165   2.419   1.841   0.111 -2.5950 -0.6408  0.9261
 1202TIP3    H225166   2.424   1.701   0.166  2.0957 -0.4247  1.2216
 1203TIP3   OH225167   2.224   2.507   7.356  0.0795  0.1792  0.4051
 1203TIP3    H125168   2.130   2.521   7.363 -0.2319 -0.5068 -1.9622
 1203TIP3    H225169   2.257   2.515   7.445 -2.5113 -1.5212  1.5517
 1204TIP3   OH225170   7.175   3.125   6.441 -0.0288 -0.1628 -0.5228
 1204TIP3    H125171   7.136   3.040   6.457  0.9380 -0.5555 -0.2199
 1204TIP3    H225172   7.233   3.111   6.366 -0.0236  0.2732 -0.6034
 1205TIP3   OH225173   0.807   4.081   8.217  0.9219  0.2761  1.3555
 1205TIP3    H125174   0.724   4.034   8.216  1.4788 -0.7041 -0.8257
 1205TIP3    H225175   0.782   4.173   8.223 -0.3957  0.1048 -0.9384
 1206TIP3   OH225176   3.211   2.977   6.664 -0.0361 -0.0018  0.3284
 1206TIP3    H125177   3.222   2.891   6.704  0.9044 -0.1015 -0.1265
 1206TIP3    H225178   3.125   3.007   6.694 -0.4477 -1.1769  0.3430
 1207TIP3   OH225179   0.666   3.438   6.875  0.2612  1.0678  0.0205
 1207TIP3    H125180   0.653   3.529   6.845 -0.6037  0.9674  0.0819
 1207TIP3    H225181   0.705   3.447   6.961  0.5231  1.3807 -0.1286
 1208TIP3   OH225182   0.660   2.660   6.721  0.4635 -0.9565  0.1181
 1208TIP3    H125183   0.643   2.736   6.665 -1.2570 -0.3261  1.4503
 1208TIP3    H225184   0.736   2.617   6.681 -0.8611 -0.6708 -2.8365
 1209TIP3   OH225185   6.613   0.322   7.071 -0.0110 -0.1524 -0.4529
 1209TIP3    H125186   6.574   0.266   7.004  1.5532 -2.0081  0.1552
 1209TIP3    H225187   6.565   0.300   7.151 -0.1016  0.1605 -0.4186
 1210TIP3   OH225188   1.303   3.658   8.413 -0.6287  0.2678  0.5856
 1210TIP3    H125189   1.388   3.695   8.390 -1.3738  4.1085  3.5167
 1210TIP3    H225190   1.256   3.653   8.329  1.3055  1.2144 -0.5836
 1211TIP3   OH225191   7.045   2.719   6.771  0.1273 -0.5837 -0.1291
 1211TIP3    H125192   7.077   2.640   6.814 -1.6226 -0.6691  1.0658
 1211TIP3    H225193   6.959   2.695   6.735  0.2107  0.3637 -1.0119
 1212TIP3   OH225194   1.697   2.693   0.112  0.2237 -0.3375 -0.0394
 1212TIP3    H125195   1.684   2.765   0.174  0.0207  0.7548 -1.3423
 1212TIP3    H225196   1.758   2.728   0.047 -1.4301 -0.6392 -1.8038
 1213TIP3   OH225197   7.148   3.783   1.570  0.5515 -0.7406 -0.4294
 1213TIP3    H125198   7.219   3.773   1.506  1.0495 -2.9831  0.4281
 1213TIP3    H225199   7.070   3.798   1.517  1.3675 -0.0435 -1.4592
 1214TIP3   OH225200   1.739   4.293   1.372 -0.0892  0.1505 -0.3326
 1214TIP3    H125201   1.811   4.235   1.397 -0.3301 -0.7366 -1.6194
 1214TIP3    H225202   1.725   4.349   1.448  0.9569 -0.6786  0.4812
 1215TIP3   OH225203   0.699   2.812   0.265  0.0935 -1.2464 -0.7426
 1215TIP3    H125204   0.753   2.891   0.262  1.8610 -2.2871  1.5965
 1215TIP3    H225205   0.734   2.757   0.195 -1.2711  0.0468 -2.5107
 1216TIP3   OH225206   1.637   1.328   6.270 -0.2046  0.3187  0.2155
 1216TIP3    H125207   1.635   1.303   6.177  1.0592 -0.2504  0.3283
 1216TIP3    H225208   1.681   1.255   6.314 -0.4982  0.7333  1.2163
 1217TIP3   OH225209   1.866   3.097   8.191 -0.1287  0.2489 -0.0919
 1217TIP3    H125210   1.808   3.166   8.224  1.1861  0.5792  1.6017
 1217TIP3    H225211   1.937   3.145   8.148 -0.2930 -0.1186 -0.7828
 1218TIP3   OH225212   0.734   3.910   7.458  0.6728 -0.7953  0.4503
 1218TIP3    H125213   0.692   3.855   7.524  1.1383 -0.2890  1.1755
 1218TIP3    H225214   0.663   3.958   7.417  0.1817 -2.4547 -0.6669
 1219TIP3   OH225215   1.802   3.432   7.851  0.0443 -0.1773 -0.4589
 1219TIP3    H125216   1.842   3.469   7.930 -0.9428 -1.2387  0.5670
 1219TIP3    H225217   1.854   3.467   7.779  1.0573  0.6945  0.6678
 1220TIP3   OH225218   0.231   5.989   8.049  0.5835  0.2337  0.8435
 1220TIP3    H125219   0.287   6.031   7.983  0.5407  0.5450  1.0079
 1220TIP3    H225220   0.186   6.061   8.091 -0.7591 -0.0867 -0.0223
 1221TIP3   OH225221   0.129   4.037   6.198  0.1662  0.4390 -0.1698
 1221TIP3    H125222   0.225   4.032   6.191  0.2389  1.8458 -0.4030
 1221TIP3    H225223   0.107   4.119   6.154 -1.4240 -1.2818 -2.6527
 1222TIP3   OH225224   7.197   3.606   6.336  0.5806  0.3727 -0.3310
 1222TIP3    H125225   7.107   3.632   6.318  1.1243  0.5504 -3.0825
 1222TIP3    H225226   7.250   3.664   6.281  2.4851  1.3020  2.3773
 1223TIP3   OH225227   1.097   3.362   6.740 -0.5148 -0.2342 -0.4061
 1223TIP3    H125228   1.112   3.355   6.835 -1.0464  2.3230 -0.1001
 1223TIP3    H225229   1.007   3.331   6.729 -0.8426  0.5236  0.0889
 1224TIP3   OH225230   1.657   1.838   6.521 -0.0952  0.4656  0.1927
 1224TIP3    H125231   1.573   1.884   6.528 -3.1819 -4.7237 -0.0186
 1224TIP3    H225232   1.666   1.821   6.427  0.8177  0.3044  0.3077
 1225TIP3   OH225233   1.054   1.966   6.728 -0.2869 -0.3911 -0.7175
 1225TIP3    H125234   1.084   2.045   6.683 -2.5722 -0.0627 -1.7197
 1225TIP3    H225235   1.086   1.976   6.818 -1.3288  2.1280 -0.5993
 1226TIP3   OH225236   0.513   2.648   7.787  0.1674 -0.0459 -0.1585
 1226TIP3    H125237   0.609   2.639   7.787  0.2976  1.2596 -0.1878
 1226TIP3    H225238   0.497   2.730   7.740 -0.8866  0.6078  1.3010
 1227TIP3   OH225239   6.629   2.402   6.620  0.3369 -0.2636 -0.1871
 1227TIP3    H125240   6.717   2.375   6.645  1.1306  1.9723 -0.3790
 1227TIP3    H225241   6.635   2.417   6.525  0.2033  1.4125  0.0520
 1228TIP3   OH225242   0.560   3.033   6.223 -0.0375  0.3616  0.0015
 1228TIP3    H125243   0.652   3.059   6.225  0.5596 -1.7467  1.4272
 1228TIP3    H225244   0.516   3.094   6.283  0.6055  0.7027  0.1230
 1229TIP3   OH225245   0.177   2.540   8.245 -0.4876 -0.0382  0.2743
 1229TIP3    H125246   0.215   2.619   8.206  1.2089 -0.7398  0.4545
 1229TIP3    H225247   0.157   2.484   8.171 -0.3871 -0.0024  0.2193
 1230TIP3   OH225248   1.403   1.799   6.797 -0.4865 -0.8344  0.1262
 1230TIP3    H125249   1.431   1.864   6.732 -1.4321 -1.1470 -0.5923
 1230TIP3    H225250   1.317   1.771   6.768 -0.5225 -1.6652  1.0121
 1231TIP3   OH225251   1.471   3.409   6.225 -0.5168  0.1043  0.0561
 1231TIP3    H125252   1.505   3.336   6.278  0.0636  1.5273  1.6667
 1231TIP3    H225253   1.430   3.366   6.150 -0.0060 -1.8852  0.8767
 1232TIP3   OH225254   0.510   4.369   6.115 -0.3114  1.1987  0.3888
 1232TIP3    H125255   0.485   4.333   6.030  0.7430  0.9154  0.1868
 1232TIP3    H225256   0.576   4.436   6.094  0.7400  0.3876  1.0449
 1233TIP3   OH225257   1.961   3.511   6.935  0.0377  0.1259 -0.2457
 1233TIP3    H125258   1.986   3.513   7.028 -2.8886 -0.9999  0.6403
 1233TIP3    H225259   2.030   3.560   6.890  0.8351  1.8022  2.6846
 1234TIP3   OH225260   6.849   5.990   0.013  0.1340 -0.0232 -0.0137
 1234TIP3    H125261   6.799   5.963  -0.064  0.5163  0.3127 -0.3822
 1234TIP3    H225262   6.799   5.956   0.087  0.8059 -2.0926 -0.4789
 1235TIP3   OH225263   1.915   4.392   1.180 -0.0856  0.3976 -0.3135
 1235TIP3    H125264   1.959   4.308   1.171 -1.1497 -0.1987 -0.0347
 1235TIP3    H225265   1.844   4.376   1.242 -1.0282  1.2187 -1.1604
 1236TIP3   OH225266   3.023   2.506   6.337  0.1280  0.1952  0.0297
 1236TIP3    H125267   3.018   2.553   6.253 -0.1811 -0.5663 -0.3791
 1236TIP3    H225268   3.029   2.414   6.313  0.6176  0.0049  0.8390
 1237TIP3   OH225269   0.591   4.581   0.387 -0.7277 -0.6288 -0.0676
 1237TIP3    H125270   0.670   4.572   0.334 -1.1113 -0.4497 -0.6747
 1237TIP3    H225271   0.620   4.626   0.466 -0.3062 -0.1697 -0.4827
 1238TIP3   OH225272   1.328   1.583   7.958 -0.1037  0.4899  0.0773
 1238TIP3    H125273   1.325   1.659   8.016  0.1608  1.2572 -0.9065
 1238TIP3    H225274   1.255   1.528   7.986 -0.7301  1.4435  0.3193
 1239TIP3   OH225275   3.413   2.717   7.858  0.5317  0.2060  0.7403
 1239TIP3    H125276   3.462   2.754   7.933  0.0252 -1.9044  2.1485
 1239TIP3    H225277   3.479   2.707   7.789  1.6951 -0.7923  1.9703
 1240TIP3   OH225278   1.608   2.149   6.525  0.2837 -0.3605 -0.2610
 1240TIP3    H125279   1.600   2.119   6.434 -1.9720 -1.5418  0.2977
 1240TIP3    H225280   1.531   2.113   6.569  1.3026  0.2907  2.1110
 1241TIP3   OH225281   2.090   3.245   7.394 -0.3928  0.3279 -0.2387
 1241TIP3    H125282   2.090   3.184   7.468 -0.3496 -1.3854 -1.6176
 1241TIP3    H225283   2.008   3.227   7.348 -0.8537  2.0220 -0.1010
 1242TIP3   OH225284   2.252   2.325   7.643  0.4877 -0.2195 -0.2258
 1242TIP3    H125285   2.237   2.234   7.617 -0.0448  0.1363 -1.1548
 1242TIP3    H225286   2.166   2.356   7.670  0.7079 -0.0450  0.2836
 1243TIP3   OH225287   1.542   2.407   8.401 -0.5181  0.3345  0.0173
 1243TIP3    H125288   1.497   2.491   8.395  0.8767  1.2479  1.8037
 1243TIP3    H225289   1.597   2.403   8.323  0.2628  1.6224  0.4907
 1244TIP3   OH225290   1.902   4.258   7.042 -0.2139 -0.7840  0.6563
 1244TIP3    H125291   1.874   4.169   7.059  1.3864 -1.7627 -1.5557
 1244TIP3    H225292   1.844   4.288   6.972 -0.0724 -0.4634  0.6749
 1245TIP3   OH225293   3.610   3.888   7.552  0.5043 -0.1246 -0.1550
 1245TIP3    H125294   3.625   3.794   7.565  0.3036 -0.1282  0.0516
 1245TIP3    H225295   3.674   3.913   7.486  1.5332 -0.1037  0.8380
 1246TIP3   OH225296   3.445   3.091   7.606  0.0574  0.5692  0.6818
 1246TIP3    H125297   3.502   3.074   7.680 -0.0904 -1.4718  0.3590
 1246TIP3    H225298   3.465   3.021   7.543 -0.9074  1.3646 -0.5439
 1247TIP3   OH225299   3.953   1.493   6.702 -0.4583 -0.3496  0.2333
 1247TIP3    H125300   3.944   1.563   6.767  1.4016  1.5283 -1.4705
 1247TIP3    H225301   3.864   1.477   6.671 -0.7945  1.9641 -0.0795
 1248TIP3   OH225302   2.768   2.445   6.438 -0.1973 -1.0816  0.1147
 1248TIP3    H125303   2.827   2.495   6.382  0.1426 -2.5912 -0.9303
 1248TIP3    H225304   2.825   2.407   6.505 -0.2262 -1.2312  0.0546
 1249TIP3   OH225305   3.111   2.296   7.819  0.1632 -0.0606  0.2913
 1249TIP3    H125306   3.082   2.275   7.730  0.3787  0.6566  0.0526
 1249TIP3    H225307   3.051   2.364   7.849  1.5730  1.4586 -0.2187
 1250TIP3   OH225308   1.176   2.330   0.359 -0.3482  0.4823 -0.0038
 1250TIP3    H125309   1.169   2.424   0.348 -0.7173  0.2495 -1.9199
 1250TIP3    H225310   1.086   2.301   0.377 -0.6451  0.2328 -1.7860
 1251TIP3   OH225311   1.286   2.941   8.219  0.1044  0.1235 -0.1983
 1251TIP3    H125312   1.303   3.001   8.146  2.5276 -0.2430  0.0429
 1251TIP3    H225313   1.352   2.963   8.284  0.7887 -2.5546  0.0641
 1252TIP3   OH225314   3.766   2.724   7.044  0.2617  0.6088 -0.2944
 1252TIP3    H125315   3.800   2.653   7.097  1.4873  0.9090 -0.6769
 1252TIP3    H225316   3.837   2.787   7.039 -0.8342  1.9220  0.1179
 1253TIP3   OH225317   4.146   5.511   7.031 -0.1276 -0.4188  0.3907
 1253TIP3    H125318   4.239   5.509   7.009 -0.0239  0.1816  0.7749
 1253TIP3    H225319   4.102   5.478   6.952  0.1604  2.8870 -1.2342
 1254TIP3   OH225320   2.262   1.083   7.797  0.1326 -0.4500  0.2271
 1254TIP3    H125321   2.354   1.057   7.805  0.5997  1.3260  0.7869
 1254TIP3    H225322   2.248   1.095   7.703  0.7966  0.3890  0.2295
 1255TIP3   OH225323   3.223   3.626   6.032  0.2154  0.2824 -0.4313
 1255TIP3    H125324   3.297   3.572   6.059 -1.4897 -1.3651  1.1010
 1255TIP3    H225325   3.218   3.695   6.098  0.0469  0.0640 -0.2155
 1256TIP3   OH225326   1.565   1.680   8.386  0.1416  0.2580  0.4045
 1256TIP3    H125327   1.575   1.759   8.438 -1.4754  0.0710  1.0194
 1256TIP3    H225328   1.473   1.679   8.360  0.5472 -0.5072 -1.0748
 1257TIP3   OH225329   1.248   4.363   7.781  0.0355  0.0851 -0.0707
 1257TIP3    H125330   1.265   4.416   7.703  0.0067  0.6770  0.3234
 1257TIP3    H225331   1.331   4.319   7.799  0.5185  1.2060  0.5146
 1258TIP3   OH225332   0.369   2.937   7.454 -0.2801  0.2745 -0.2119
 1258TIP3    H125333   0.435   2.942   7.523  0.1828 -2.2238 -0.4156
 1258TIP3    H225334   0.403   2.994   7.385  0.6695  0.5596  0.4796
 1259TIP3   OH225335   2.633   3.914   7.585 -0.4889 -0.9138  0.5102
 1259TIP3    H125336   2.590   3.832   7.610 -0.1479 -1.5435 -0.8886
 1259TIP3    H225337   2.562   3.968   7.549 -0.7386 -0.5387  1.5627
 1260TIP3   OH225338   0.242   4.378   7.689  0.0585 -0.6653  0.3267
 1260TIP3    H125339   0.306   4.307   7.685  1.0269  0.1848  0.5166
 1260TIP3    H225340   0.235   4.399   7.782 -1.0719 -1.2625  0.3804
 1261TIP3   OH225341   3.739   3.297   6.822  0.5079  0.2951  0.3773
 1261TIP3    H125342   3.777   3.242   6.753 -1.3112 -0.6562  0.1050
 1261TIP3    H225343   3.742   3.386   6.786  0.1200 -0.1180 -0.6941
 1262TIP3   OH225344   2.442   0.837   6.701 -0.2296  0.5169 -0.9059
 1262TIP3    H125345   2.466   0.752   6.664 -1.1276  0.6286 -1.7846
 1262TIP3    H225346   2.503   0.850   6.773  0.0138 -0.8035 -0.8570
 1263TIP3   OH225347   3.504   2.733   7.051  0.1175 -0.0839 -0.8224
 1263TIP3    H125348   3.600   2.740   7.048  0.3551 -2.8896 -0.7424
 1263TIP3    H225349   3.483   2.733   7.144 -0.0029  0.9316 -0.8460
 1264TIP3   OH225350   2.337   3.354   7.124 -0.2394 -0.3968  0.1262
 1264TIP3    H125351   2.302   3.439   7.099 -2.3632 -1.5519 -0.9742
 1264TIP3    H225352   2.272   3.318   7.184  0.3935 -1.4636  0.1816
 1265TIP3   OH225353   1.571   4.306   0.615  0.7673 -0.1950  0.3895
 1265TIP3    H125354   1.542   4.279   0.528 -0.2031 -0.4890  0.7998
 1265TIP3    H225355   1.498   4.283   0.673  1.7278 -0.7420  1.4034
 1266TIP3   OH225356   1.257   2.652   1.812 -0.1298  0.5297 -0.0399
 1266TIP3    H125357   1.245   2.685   1.723  0.6096  1.4340  0.1913
 1266TIP3    H225358   1.174   2.607   1.832 -0.5690  0.9405 -0.9166
 1267TIP3   OH225359   3.553   3.078   6.076 -0.5000  0.0412  0.0641
 1267TIP3    H125360   3.499   3.000   6.082 -1.3730  0.6146 -0.2519
 1267TIP3    H225361   3.498   3.148   6.111  0.0779  0.6108 -0.1522
 1268TIP3   OH225362   4.334   2.825   7.056  0.1756 -0.1698 -0.3722
 1268TIP3    H125363   4.260   2.773   7.088  1.2902 -0.8887  1.0802
 1268TIP3    H225364   4.298   2.873   6.981 -1.3407 -1.7111 -0.6795
 1269TIP3   OH225365   4.119   3.662   6.934  0.1270  0.1404  0.4410
 1269TIP3    H125366   4.056   3.633   7.000 -0.0765 -1.7264 -0.5189
 1269TIP3    H225367   4.065   3.697   6.863  0.0095 -2.8573 -1.0438
 1270TIP3   OH225368   1.528   4.327   7.521 -0.6819  0.4750  0.0086
 1270TIP3    H125369   1.435   4.347   7.516 -0.6525  0.8059  0.7172
 1270TIP3    H225370   1.571   4.412   7.521 -0.4005  0.3341  0.1220
 1271TIP3   OH225371   0.877   0.705   0.974  0.2974 -0.1812  0.1933
 1271TIP3    H125372   0.900   0.683   0.883  0.6064 -0.1697  0.2685
 1271TIP3    H225373   0.877   0.800   0.976  2.0481 -0.1843  0.6484
 1272TIP3   OH225374   2.012   3.150   0.211  0.0685 -0.2811  0.5773
 1272TIP3    H125375   1.931   3.170   0.164  1.8223  1.7512 -1.6981
 1272TIP3    H225376   1.987   3.081   0.272 -2.7476 -1.7502 -2.0501
 1273TIP3   OH225377   4.156   5.204   0.536  0.1241  0.0385  0.0822
 1273TIP3    H125378   4.179   5.117   0.502 -1.4412  0.4796 -2.2376
 1273TIP3    H225379   4.232   5.259   0.516 -0.4204  0.0805 -2.0256
 1274TIP3   OH225380   2.998   3.509   7.179 -0.4241 -0.1434  0.3161
 1274TIP3    H125381   3.083   3.481   7.214 -1.2663 -0.4815  2.1730
 1274TIP3    H225382   2.964   3.431   7.134  0.3956  0.1044 -0.7476
 1275TIP3   OH225383   4.014   3.720   8.464 -0.0860  0.3016  0.8883
 1275TIP3    H125384   3.962   3.662   8.519 -0.1399  0.8196  1.3850
 1275TIP3    H225385   3.956   3.793   8.444 -0.3854 -0.3301 -0.6432
 1276TIP3   OH225386   3.834   2.135   6.533 -0.0005  0.1798  0.1808
 1276TIP3    H125387   3.827   2.221   6.491  2.0547  0.2959  0.0255
 1276TIP3    H225388   3.743   2.105   6.541 -0.5900  1.1852 -2.1947
 1277TIP3   OH225389   0.367   3.411   7.079 -0.6736 -0.5049  0.0518
 1277TIP3    H125390   0.441   3.350   7.086 -0.9552 -0.9695 -1.0097
 1277TIP3    H225391   0.405   3.496   7.102  0.2450 -0.7047 -0.7045
 1278TIP3   OH225392   1.829   2.122   6.693  0.4226  0.1066 -0.0760
 1278TIP3    H125393   1.896   2.159   6.636  1.8451 -0.6672  1.0650
 1278TIP3    H225394   1.751   2.118   6.638  1.9022 -1.2238 -2.1593
 1279TIP3   OH225395   2.885   4.008   6.438  0.6815 -0.2652  0.3187
 1279TIP3    H125396   2.860   4.061   6.514  1.5500 -0.6534  0.8802
 1279TIP3    H225397   2.977   4.030   6.422  0.2121  0.6088 -1.2914
 1280TIP3   OH225398   4.763   1.333   6.604 -0.4778 -0.7693 -0.7375
 1280TIP3    H125399   4.797   1.282   6.677 -0.4776  0.8024  0.4045
 1280TIP3    H225400   4.840   1.351   6.550  0.2303  1.0661  0.7828
 1281TIP3   OH225401   1.315   2.921   6.864 -0.1074  0.0158 -0.7744
 1281TIP3    H125402   1.342   2.829   6.853  0.1273  0.3348 -3.0719
 1281TIP3    H225403   1.271   2.943   6.782 -0.4411  1.8751 -0.1160
 1282TIP3   OH225404   2.566   3.891   6.561 -0.2358  0.4166  0.0771
 1282TIP3    H125405   2.560   3.897   6.656  0.7642  0.4940  0.1440
 1282TIP3    H225406   2.635   3.827   6.545 -2.5908 -2.0168 -0.6257
 1283TIP3   OH225407   2.114   5.661   7.142 -0.0500  0.4116  0.2104
 1283TIP3    H125408   2.023   5.662   7.172 -0.0191 -1.9778  0.4573
 1283TIP3    H225409   2.110   5.617   7.057  0.8236  0.6158  0.0631
 1284TIP3   OH225410   2.328   2.345   6.751  0.4205  0.0926  0.1308
 1284TIP3    H125411   2.287   2.339   6.665  1.0301  0.4007 -0.1895
 1284TIP3    H225412   2.400   2.408   6.739  0.6631 -0.0470  0.8019
 1285TIP3   OH225413   3.571   3.176   7.879  0.3003 -0.2633 -0.2090
 1285TIP3    H125414   3.634   3.134   7.821  1.1859  0.7396  0.0274
 1285TIP3    H225415   3.623   3.234   7.934 -0.7024 -0.1681  0.6548
 1286TIP3   OH225416   2.152   3.593   7.178  0.0892  0.6653 -0.0423
 1286TIP3    H125417   2.182   3.661   7.118 -0.9487  0.6614 -0.5608
 1286TIP3    H225418   2.092   3.637   7.238  0.5818  0.5209  0.5660
 1287TIP3   OH225419   2.098   3.829   7.310 -0.6274 -0.1696 -0.1447
 1287TIP3    H125420   2.178   3.824   7.362  0.1468 -1.1729 -1.3875
 1287TIP3    H225421   2.114   3.900   7.248 -0.7506 -0.2864 -0.3112
 1288TIP3   OH225422   2.891   3.346   6.063 -0.3631  0.8320  0.2367
 1288TIP3    H125423   2.967   3.289   6.064 -0.0495  1.2304 -1.0056
 1288TIP3    H225424   2.819   3.289   6.034 -0.6156  0.3877  1.6680
 1289TIP3   OH225425   3.156   3.156   0.100 -0.3692 -0.5172 -0.0870
 1289TIP3    H125426   3.166   3.160   0.005 -1.3371 -1.9282 -0.2612
 1289TIP3    H225427   3.224   3.214   0.134  0.4371 -0.5515 -1.6165
 1290TIP3   OH225428   3.607   2.303   8.176 -0.2760  0.4717  0.2424
 1290TIP3    H125429   3.518   2.267   8.183 -1.3609  2.4836 -2.2900
 1290TIP3    H225430   3.615   2.361   8.252 -2.0170  2.0260 -0.7106
 1291TIP3   OH225431   2.402   3.995   7.994  0.4498 -0.2387 -0.0102
 1291TIP3    H125432   2.348   3.923   8.025  1.5451 -0.8154  0.5858
 1291TIP3    H225433   2.351   4.074   8.013  0.7821 -0.6242  2.5739
 1292TIP3   OH225434   1.833   2.034   6.270 -0.1409  0.3037 -0.0350
 1292TIP3    H125435   1.886   2.066   6.343  0.3295 -0.3811 -0.0739
 1292TIP3    H225436   1.895   2.021   6.198 -0.4441  0.0284 -0.2521
 1293TIP3   OH225437   2.084   3.665   7.784  0.5787  0.1736 -0.4592
 1293TIP3    H125438   2.093   3.758   7.764  0.3583  0.4269  0.5905
 1293TIP3    H225439   2.105   3.658   7.878 -3.0842 -0.2728  0.3894
 1294TIP3   OH225440   3.891   3.149   6.607 -0.0125 -0.3039  0.4805
 1294TIP3    H125441   3.943   3.208   6.552  1.7104 -2.1982 -0.0059
 1294TIP3    H225442   3.822   3.117   6.549  0.5038 -0.6297  0.0445
 1295TIP3   OH225443   1.870   1.507   8.008 -0.7266 -0.4832  0.2784
 1295TIP3    H125444   1.861   1.434   7.946 -0.7475  0.6252 -1.0467
 1295TIP3    H225445   1.780   1.538   8.020 -0.6588 -0.3564  0.4471
 1296TIP3   OH225446   1.406   2.671   6.491 -0.0212  0.7056  0.4955
 1296TIP3    H125447   1.421   2.624   6.409 -2.2902  0.0726  0.4080
 1296TIP3    H225448   1.480   2.731   6.498  0.5752  0.2614 -1.6528
 1297TIP3   OH225449   2.603   3.562   6.531 -0.2707  0.4101 -0.0720
 1297TIP3    H125450   2.557   3.582   6.449 -0.5815  1.0451  0.2516
 1297TIP3    H225451   2.688   3.527   6.503 -0.5956  0.0722 -0.6663
 1298TIP3   OH225452   2.823   2.974   7.164  1.0783  0.3036  0.1644
 1298TIP3    H125453   2.887   3.038   7.195  0.1484  0.2672  2.2462
 1298TIP3    H225454   2.801   2.922   7.242 -2.5244  1.2479 -0.1293
 1299TIP3   OH225455   3.502   2.574   6.577  0.0015  0.1495 -0.4114
 1299TIP3    H125456   3.593   2.592   6.599 -0.2319 -0.2853  0.8979
 1299TIP3    H225457   3.458   2.659   6.588 -0.2559 -0.2224  1.5239
 1300TIP3   OH225458   1.839   2.047   7.905  0.4412  0.1750  0.0316
 1300TIP3    H125459   1.808   1.958   7.922  0.3060 -0.3018 -2.5306
 1300TIP3    H225460   1.931   2.036   7.882 -0.0005  0.4561 -1.9980
 1301TIP3   OH225461   0.768   2.530   7.412  0.3295 -0.1693 -0.0916
 1301TIP3    H125462   0.820   2.508   7.489  0.1132 -1.5847 -0.3327
 1301TIP3    H225463   0.681   2.494   7.430  0.5982 -1.5748 -1.4741
 1302TIP3   OH225464   2.778   3.367   0.424  0.3121  0.4591  0.4597
 1302TIP3    H125465   2.703   3.419   0.453  0.3781  0.2585  0.9909
 1302TIP3    H225466   2.813   3.328   0.504  0.9745  0.5328  0.2088
 1303TIP3   OH225467   1.753   2.870   8.023 -0.8932  0.2072  0.0488
 1303TIP3    H125468   1.730   2.835   8.110  3.4304 -1.8122  0.5085
 1303TIP3    H225469   1.811   2.944   8.042  0.6712 -0.7044 -1.0738
 1304TIP3   OH225470   3.184   2.122   6.422 -0.5209  0.0572 -0.3305
 1304TIP3    H125471   3.127   2.079   6.486  0.1577  1.1840  1.0860
 1304TIP3    H225472   3.125   2.176   6.370 -0.6912  2.1164  1.8687
 1305TIP3   OH225473   1.513   4.178   6.654 -0.5506 -0.6410  0.1217
 1305TIP3    H125474   1.419   4.194   6.659 -0.5599 -0.8870  0.7691
 1305TIP3    H225475   1.523   4.086   6.681 -0.2617 -1.0066 -1.2032
 1306TIP3   OH225476   2.603   2.137   7.344  0.6532 -0.1616 -0.2451
 1306TIP3    H125477   2.570   2.169   7.428  0.5362 -0.3059 -0.2361
 1306TIP3    H225478   2.610   2.042   7.356 -0.5567 -0.3218 -0.8219
 1307TIP3   OH225479   2.319   2.489   6.087 -0.0244  0.1930  0.4515
 1307TIP3    H125480   2.244   2.464   6.141  0.7591 -0.2445  1.3291
 1307TIP3    H225481   2.333   2.582   6.107  0.8105 -0.1861  1.6583
 1308TIP3   OH225482   1.397   5.353   1.522 -0.1188  0.0286 -0.3931
 1308TIP3    H125483   1.390   5.309   1.607 -1.4731  0.8423 -0.0674
 1308TIP3    H225484   1.344   5.298   1.463  1.5646 -1.0496 -0.9498
 1309TIP3   OH225485   1.909   2.858   6.749  0.2586  0.1476  0.4972
 1309TIP3    H125486   1.985   2.870   6.693  0.4605 -1.7476  0.3147
 1309TIP3    H225487   1.865   2.780   6.714 -3.2960  2.7413 -1.0912
 1310TIP3   OH225488   1.544   4.954   0.621  0.1625 -0.2361  0.1718
 1310TIP3    H125489   1.524   4.886   0.685  0.5073 -0.2588  0.2534
 1310TIP3    H225490   1.535   5.036   0.670  1.8335 -0.3118  0.6226
 1311TIP3   OH225491   1.375   1.878   5.932  0.3243  0.4745 -0.4536
 1311TIP3    H125492   1.325   1.798   5.950  0.5058  0.6275  0.7979
 1311TIP3    H225493   1.307   1.944   5.916  0.1078  0.6165  0.9599
 1312TIP3   OH225494   2.076   2.976   7.548  0.0319 -0.0675  0.4682
 1312TIP3    H125495   2.013   2.930   7.493 -0.6321 -0.0522  1.2115
 1312TIP3    H225496   2.027   3.002   7.626  0.9582 -0.0902  1.0770
 1313TIP3   OH225497   2.729   3.949   7.169  0.0328  0.3789 -0.2058
 1313TIP3    H125498   2.815   3.931   7.206 -0.7329  0.1563  1.5125
 1313TIP3    H225499   2.695   3.863   7.145 -0.7496  0.1835  1.5149
 1314TIP3   OH225500   2.499   3.685   7.641  0.5933 -0.4553 -0.0606
 1314TIP3    H125501   2.465   3.669   7.729  0.8677  0.7353  0.2764
 1314TIP3    H225502   2.547   3.605   7.619  1.8247 -0.1868  1.4960
 1315TIP3   OH225503   1.757   1.903   0.310 -0.7261  0.4929  0.3381
 1315TIP3    H125504   1.805   1.821   0.309 -0.9379  0.3901 -1.5964
 1315TIP3    H225505   1.825   1.971   0.314 -0.5558  0.2555  2.0116
 1316TIP3   OH225506   3.739   0.854   6.993  0.3872  0.4641 -0.4276
 1316TIP3    H125507   3.821   0.819   7.026 -0.6790 -0.4278  1.3548
 1316TIP3    H225508   3.692   0.778   6.957 -0.8849  0.4406  1.2264
 1317TIP3   OH225509   0.685   3.191   0.032 -0.9175  0.5163 -0.3788
 1317TIP3    H125510   0.731   3.107   0.044  0.5267  1.2124 -0.8674
 1317TIP3    H225511   0.752   3.249  -0.006 -2.2167  1.5700 -1.0851
 1318TIP3   OH225512   3.860   2.659   7.780  0.1405 -0.0758  0.5219
 1318TIP3    H125513   3.928   2.690   7.840 -1.0542  1.8089  0.9714
 1318TIP3    H225514   3.791   2.626   7.838 -0.5538  0.7529  0.1787
 1319TIP3   OH225515   1.511   3.464   6.805 -0.0729  0.0035 -0.5381
 1319TIP3    H125516   1.499   3.520   6.728 -2.0734  1.1168  0.5556
 1319TIP3    H225517   1.453   3.389   6.788  0.4056 -0.3394 -0.6646
 1320TIP3   OH225518   3.555   4.336   7.086  0.1933 -0.1684 -0.0535
 1320TIP3    H125519   3.626   4.309   7.028  1.1482 -3.4534  2.5020
 1320TIP3    H225520   3.479   4.285   7.057  0.2349 -0.5332  0.4649
 1321TIP3   OH225521   2.105   1.474   0.035 -0.3926 -0.4550 -0.5699
 1321TIP3    H125522   2.159   1.489  -0.043 -0.4729  0.9395 -0.3657
 1321TIP3    H225523   2.015   1.488   0.005 -0.2809  2.4539  0.2828
 1322TIP3   OH225524   2.705   2.092   7.705  0.1250  0.2717  0.0754
 1322TIP3    H125525   2.648   2.016   7.720  0.8133 -0.3575 -0.5117
 1322TIP3    H225526   2.645   2.161   7.678 -0.3579 -0.4114 -0.6245
 1323TIP3   OH225527   2.134   4.028   7.120  0.0508 -0.3618  0.2732
 1323TIP3    H125528   2.144   4.076   7.038  0.0133  1.6237  1.3905
 1323TIP3    H225529   2.086   4.088   7.177 -0.5647 -1.9969  1.5077
 1324TIP3   OH225530   1.296   2.183   7.008 -0.4286  0.8943 -0.3630
 1324TIP3    H125531   1.386   2.205   6.983 -0.2435  1.7526  0.9909
 1324TIP3    H225532   1.243   2.250   6.965 -0.3740  0.7217 -0.7045
 1325TIP3   OH225533   1.196   3.220   6.532 -0.0521  0.2143 -0.2686
 1325TIP3    H125534   1.179   3.286   6.600  1.0080  1.1101 -0.8590
 1325TIP3    H225535   1.115   3.217   6.482 -0.7789 -0.3124  0.9112
 1326TIP3   OH225536   0.963   1.384   8.332 -0.0464 -0.4115  0.0726
 1326TIP3    H125537   0.932   1.473   8.343 -0.2271 -0.6719  1.7416
 1326TIP3    H225538   0.906   1.331   8.387  0.4168 -1.4873 -0.4618
 1327TIP3   OH225539   3.344   3.363   7.917  0.4932 -0.4141 -0.6254
 1327TIP3    H125540   3.379   3.280   7.885  0.4644 -1.3043  1.5571
 1327TIP3    H225541   3.379   3.371   8.006 -1.4405  0.7323  0.0593
 1328TIP3   OH225542   0.292   4.118   6.823 -0.3135  0.0354  0.4012
 1328TIP3    H125543   0.304   4.123   6.729  0.6444 -0.4960  0.4869
 1328TIP3    H225544   0.371   4.158   6.860 -0.1670 -0.7521  0.9702
 1329TIP3   OH225545   5.923   0.192   0.435 -0.1840 -0.0548  0.0834
 1329TIP3    H125546   5.958   0.274   0.402 -0.7902  0.0616 -0.2760
 1329TIP3    H225547   5.965   0.180   0.520  0.8924 -0.0319 -0.4459
 1330TIP3   OH225548   1.412   2.962   7.752  0.0344 -0.0244 -0.3327
 1330TIP3    H125549   1.486   2.902   7.758  0.3152  0.4297  0.8806
 1330TIP3    H225550   1.448   3.042   7.714  0.4463  0.6417  1.4467
 1331TIP3   OH225551   3.404   2.666   7.296  0.1629 -0.2054 -0.1089
 1331TIP3    H125552   3.400   2.592   7.357  0.4151  2.7289  3.5984
 1331TIP3    H225553   3.312   2.685   7.277  0.0890 -1.2894 -0.8990
 1332TIP3   OH225554   0.615   3.310   6.344  0.2301 -0.1686  0.5824
 1332TIP3    H125555   0.567   3.341   6.267 -0.2877 -0.5798  0.7329
 1332TIP3    H225556   0.697   3.275   6.310  0.1901  0.0472  0.2649
 1333TIP3   OH225557   4.517   4.196   7.370  0.1628  0.3413 -0.0574
 1333TIP3    H125558   4.604   4.216   7.337 -0.3951  1.0443 -1.1485
 1333TIP3    H225559   4.510   4.100   7.364  0.3534  0.3885 -1.3265
 1334TIP3   OH225560   0.884   3.609   0.126  0.5451  0.3849 -0.3102
 1334TIP3    H125561   0.953   3.550   0.094 -1.0978 -0.5786 -2.1447
 1334TIP3    H225562   0.849   3.565   0.203  1.9971  0.9136  0.6806
 1335TIP3   OH225563   2.278   1.964   0.137  0.2415 -0.0743  0.0991
 1335TIP3    H125564   2.335   1.993   0.208  0.0092  1.3615 -0.2978
 1335TIP3    H225565   2.309   2.012   0.060 -1.8662  1.1869  0.0062
 1336TIP3   OH225566   2.293   3.253   6.320 -0.0746 -0.0227  0.0966
 1336TIP3    H125567   2.331   3.166   6.309 -0.1777 -0.0573  0.0146
 1336TIP3    H225568   2.367   3.313   6.310 -0.0457 -0.0895 -0.0902
 1337TIP3   OH225569   2.855   3.191   0.945  0.0815  0.8484 -0.0618
 1337TIP3    H125570   2.819   3.189   1.034  0.1892  0.6469 -0.0219
 1337TIP3    H225571   2.824   3.109   0.905  1.5739  0.0467  0.3971
 1338TIP3   OH225572   1.277   1.694   8.396  0.6934  0.0099 -0.3013
 1338TIP3    H125573   1.277   1.717   8.489  0.9739 -0.9528 -0.0601
 1338TIP3    H225574   1.191   1.722   8.365 -0.2953 -1.7410  0.7781
 1339TIP3   OH225575   1.322   3.617   6.126 -0.2961  0.3981 -0.1199
 1339TIP3    H125576   1.302   3.660   6.209 -0.8302 -1.6569  0.8421
 1339TIP3    H225577   1.386   3.549   6.148  1.8775  1.7965 -1.9103
 1340TIP3   OH225578   3.403   2.856   1.595 -0.5177  0.5217 -1.1881
 1340TIP3    H125579   3.320   2.899   1.618  0.1482  0.4954  1.4678
 1340TIP3    H225580   3.443   2.914   1.530 -2.9315  0.1567 -3.0721
 1341TIP3   OH225581   2.367   1.749   7.013  0.3177  0.2504 -0.1885
 1341TIP3    H125582   2.344   1.800   7.091 -0.8940  1.9332 -1.6291
 1341TIP3    H225583   2.391   1.663   7.048 -1.4418  0.5703  1.9486
 1342TIP3   OH225584   2.120   2.988   6.188  0.0560 -0.1036  0.0898
 1342TIP3    H125585   2.133   2.893   6.200 -1.1357 -0.4551 -1.2345
 1342TIP3    H225586   2.067   2.995   6.108  0.4304  1.7062 -0.0198
 1343TIP3   OH225587   2.181   2.422   0.895  0.4354 -0.2254  0.3213
 1343TIP3    H125588   2.132   2.347   0.862  2.0787 -1.8380  1.4585
 1343TIP3    H225589   2.194   2.405   0.988  1.3578  1.1652  0.4756
 1344TIP3   OH225590   0.356   1.840   7.105  0.1422  0.1175  0.0023
 1344TIP3    H125591   0.312   1.760   7.075  1.7749 -1.2239  1.1319
 1344TIP3    H225592   0.440   1.839   7.059  0.5757  0.6628  0.7870
 1345TIP3   OH225593   1.597   2.869   6.488  0.6884  0.0909  0.5341
 1345TIP3    H125594   1.540   2.944   6.508 -0.6093 -0.6976 -0.1468
 1345TIP3    H225595   1.641   2.894   6.407  0.5402  0.2671  0.5076
 1346TIP3   OH225596   2.298   4.067   6.170 -0.1778 -0.5662  0.8533
 1346TIP3    H125597   2.325   4.009   6.241  1.5220  3.7003  3.8993
 1346TIP3    H225598   2.209   4.093   6.193  0.2574  0.5788  1.2419
 1347TIP3   OH225599   2.955   3.649   0.730  0.3835 -0.2880 -0.0512
 1347TIP3    H125600   2.890   3.701   0.682 -1.3902 -1.7835  0.6775
 1347TIP3    H225601   3.037   3.697   0.718 -0.7779  1.4752 -1.2571
 1348TIP3   OH225602   0.876   3.890   7.870 -0.1213  0.5117  0.1844
 1348TIP3    H125603   0.815   3.817   7.878  0.0657  0.4616  1.1411
 1348TIP3    H225604   0.928   3.868   7.792  0.3327 -0.6690  0.8082
 1349TIP3   OH225605   4.450   2.065   6.807 -0.3155  0.4030  0.1119
 1349TIP3    H125606   4.479   2.056   6.898  2.2313 -1.8156 -0.8681
 1349TIP3    H225607   4.477   2.154   6.782 -0.9965  1.0175  1.4595
 1350TIP3   OH225608   2.903   1.863   0.193 -0.6335  0.4770  0.5146
 1350TIP3    H125609   2.987   1.827   0.222  0.1230  1.1750 -0.7467
 1350TIP3    H225610   2.905   1.954   0.222 -1.7448  0.0259  2.0648
 1351TIP3   OH225611   2.714   2.045   1.760 -0.1884 -0.0113 -0.2487
 1351TIP3    H125612   2.651   1.978   1.789  2.1339 -1.7817  0.8844
 1351TIP3    H225613   2.723   2.030   1.666 -0.9896 -0.1557 -0.3028
 1352TIP3   OH225614   1.540   1.052   7.457  0.2257 -0.2329 -0.2142
 1352TIP3    H125615   1.523   1.138   7.494  1.1467  0.4743 -1.3893
 1352TIP3    H225616   1.618   1.064   7.402 -0.1697 -1.5986 -1.1151
 1353TIP3   OH225617   3.650   6.969   7.613  0.5699  0.7244 -0.7583
 1353TIP3    H125618   3.654   6.961   7.518  0.6471 -0.3763 -0.6709
 1353TIP3    H225619   3.559   6.947   7.636  1.3383 -2.1785 -0.3192
 1354TIP3   OH225620   2.960   3.446   8.328 -0.7950 -0.1910  0.0517
 1354TIP3    H125621   2.909   3.527   8.322 -1.6034 -0.5828  1.2978
 1354TIP3    H225622   2.930   3.393   8.255 -1.0865  0.1912 -0.1100
 1355TIP3   OH225623   2.410   3.558   8.430  0.4769 -0.1218  0.6754
 1355TIP3    H125624   2.436   3.563   8.522  1.7266  2.4764  0.2259
 1355TIP3    H225625   2.364   3.641   8.414 -1.0381 -1.1828 -0.6697
 1356TIP3   OH225626   3.436   3.898   0.752 -0.1424 -0.5936  0.0371
 1356TIP3    H125627   3.394   3.837   0.813 -0.8363 -0.2679 -0.1029
 1356TIP3    H225628   3.528   3.900   0.779 -0.2959 -1.0240  0.5985
 1357TIP3   OH225629   4.121   2.491   0.213  0.3694  0.0689  0.2472
 1357TIP3    H125630   4.119   2.562   0.148  2.9550  1.1437  1.2738
 1357TIP3    H225631   4.067   2.422   0.175 -0.8152  1.9442 -1.5555
 1358TIP3   OH225632   3.205   1.880   7.283  0.0163  0.1453 -0.0229
 1358TIP3    H125633   3.237   1.828   7.357  1.4700  2.8150  1.3053
 1358TIP3    H225634   3.247   1.841   7.207  1.4303 -0.3825  0.9986
 1359TIP3   OH225635   2.975   7.300   7.735  0.7157 -0.3393 -0.0291
 1359TIP3    H125636   3.060   7.338   7.761  0.2546  0.0020  1.0031
 1359TIP3    H225637   2.927   7.292   7.817 -0.4745  0.0144 -0.6908
 1360TIP3   OH225638   3.250   0.650   7.724 -0.3239  0.4945  0.1503
 1360TIP3    H125639   3.319   0.712   7.747  0.0010  0.0579  0.3841
 1360TIP3    H225640   3.229   0.669   7.633 -1.6815  2.3044  0.8148
 1361TIP3   OH225641   2.347   3.582   6.646  0.4254  0.4154  0.3245
 1361TIP3    H125642   2.440   3.594   6.666  0.7155  0.2038 -0.8405
 1361TIP3    H225643   2.344   3.578   6.550 -0.5997 -1.1621  0.4087
 1362TIP3   OH225644   1.687   1.974   6.913  0.3026 -0.4285 -0.0027
 1362TIP3    H125645   1.616   1.936   6.863  0.8100  1.6959 -2.4379
 1362TIP3    H225646   1.666   1.953   7.004 -3.3245 -0.0120 -0.6651
 1363TIP3   OH225647   2.964   2.542   6.732 -0.4069 -0.3303 -0.5268
 1363TIP3    H125648   2.893   2.543   6.795 -0.7568 -0.5743 -0.9160
 1363TIP3    H225649   2.930   2.493   6.657  0.3498 -0.9137 -0.5012
 1364TIP3   OH225650   1.017   3.023   7.748 -0.4841  0.1321 -0.4359
 1364TIP3    H125651   1.047   3.112   7.766 -0.5054  0.0944 -0.2156
 1364TIP3    H225652   1.095   2.968   7.757 -0.3255  0.2128 -1.2411
 1365TIP3   OH225653   2.598   2.630   0.729 -0.6755  0.1641  0.1092
 1365TIP3    H125654   2.623   2.695   0.664  2.5286 -1.4647 -0.3462
 1365TIP3    H225655   2.593   2.679   0.812  0.6859  1.1896 -0.4022
 1366TIP3   OH225656   3.407   2.497   6.955 -0.5690  0.0785  0.0945
 1366TIP3    H125657   3.315   2.480   6.973 -1.2026  2.1689 -0.9657
 1366TIP3    H225658   3.416   2.592   6.966  1.3648 -0.0579 -0.1641
 1367TIP3   OH225659   2.242   2.804   7.777  0.1162  0.0022 -0.1568
 1367TIP3    H125660   2.268   2.896   7.783  1.0462 -0.2889  0.3076
 1367TIP3    H225661   2.154   2.807   7.740  0.3583  1.0509 -0.6806
 1368TIP3   OH225662   1.935   1.912   7.383 -0.0662  0.5058  0.4897
 1368TIP3    H125663   2.017   1.958   7.402 -0.1446  0.9361 -0.2061
 1368TIP3    H225664   1.870   1.954   7.440  0.0201  0.7438  0.4129
 1369TIP3   OH225665   1.943   2.317   8.003  0.0020  0.6936 -0.5272
 1369TIP3    H125666   1.917   2.224   8.003  0.5587  0.5341  0.3791
 1369TIP3    H225667   1.875   2.360   8.054  1.5954  0.2444  2.0242
 1370TIP3   OH225668   7.255   5.730   8.394 -0.4561 -0.1060  0.0535
 1370TIP3    H125669   7.287   5.645   8.364 -0.6052  0.5592 -2.1024
 1370TIP3    H225670   7.334   5.783   8.405 -0.4393 -0.1899  0.3449
 1371TIP3   OH225671   0.434   4.920   0.232  0.3662  0.0725  0.4075
 1371TIP3    H125672   0.513   4.970   0.252 -0.2492  0.4501  1.9396
 1371TIP3    H225673   0.444   4.896   0.140  1.9348  0.7092  0.3936
 1372TIP3   OH225674   4.144   3.073   7.652 -0.2699 -0.3819 -0.5117
 1372TIP3    H125675   4.077   3.122   7.699  0.7049 -0.5806  1.1349
 1372TIP3    H225676   4.169   3.130   7.579 -0.8670  0.5270 -0.0172
 1373TIP3   OH225677   2.258   3.553   0.214  0.2378  0.1049 -0.2636
 1373TIP3    H125678   2.286   3.461   0.212 -1.7956 -0.5387 -0.2602
 1373TIP3    H225679   2.260   3.576   0.307 -1.5949 -0.7097  0.0023
 1374TIP3   OH225680   2.733   2.980   8.077 -0.1698  0.1964 -0.5668
 1374TIP3    H125681   2.664   3.044   8.056 -1.5456 -1.5144 -1.4370
 1374TIP3    H225682   2.693   2.923   8.143  1.1493  0.4145  0.4179
 1375TIP3   OH225683   1.537   4.033   8.254 -0.6863  0.5860 -0.3176
 1375TIP3    H125684   1.613   3.987   8.290 -0.7122  0.7932  0.0002
 1375TIP3    H225685   1.574   4.112   8.214 -0.8346  1.1248  0.6051
 1376TIP3   OH225686   2.686   1.735   7.976 -0.3948 -0.3286 -0.2978
 1376TIP3    H125687   2.710   1.787   8.053  0.5889 -1.5396  0.2203
 1376TIP3    H225688   2.770   1.712   7.936 -0.8513 -0.9245 -0.9134
 1377TIP3   OH225689   3.957   2.951   7.012  0.0221  0.0178  0.0154
 1377TIP3    H125690   3.988   2.869   6.974 -2.8799 -0.0268 -2.4050
 1377TIP3    H225691   3.987   3.018   6.950  3.0497  0.9881  2.3620
 1378TIP3   OH225692   1.868   0.540   0.112 -0.5035 -0.7923  0.0161
 1378TIP3    H125693   1.824   0.457   0.092 -0.5124 -0.2946 -2.1851
 1378TIP3    H225694   1.796   0.601   0.130 -0.5545 -0.9502  0.3439
 1379TIP3   OH225695   2.848   3.543   7.420  0.0527  0.3387  0.1614
 1379TIP3    H125696   2.925   3.514   7.468 -0.6262 -0.0265  1.0436
 1379TIP3    H225697   2.877   3.550   7.329  1.2503  0.6902  0.5629
 1380TIP3   OH225698   5.618   1.750   6.798 -0.1296 -0.3017 -0.1131
 1380TIP3    H125699   5.707   1.724   6.777  0.5695  0.2905  1.9799
 1380TIP3    H225700   5.573   1.755   6.714  2.1271  0.5766 -1.2859
 1381TIP3   OH225701   2.164   2.728   6.247 -0.1025 -0.0496  0.0597
 1381TIP3    H125702   2.092   2.693   6.194  1.7744 -0.0915 -2.5931
 1381TIP3    H225703   2.181   2.660   6.312 -0.6806 -1.2616 -1.0188
 1382TIP3   OH225704   2.369   1.488   7.098 -0.9979 -0.0206 -0.2486
 1382TIP3    H125705   2.444   1.435   7.073 -0.6622  0.7014 -0.7511
 1382TIP3    H225706   2.300   1.424   7.115 -0.5184 -0.6342 -0.6046
 1383TIP3   OH225707   2.763   3.071   7.452  0.2723 -0.0971 -0.1202
 1383TIP3    H125708   2.770   3.156   7.497 -1.6985 -0.9294  1.8487
 1383TIP3    H225709   2.688   3.082   7.393 -1.1601 -1.0035  1.4770
 1384TIP3   OH225710   3.518   0.342   0.656 -0.2183  0.2277  0.3003
 1384TIP3    H125711   3.436   0.390   0.666 -0.4369  0.0270 -0.5392
 1384TIP3    H225712   3.580   0.387   0.715 -0.3456  1.6672 -0.6496
 1385TIP3   OH225713   0.349   2.643   7.427 -0.3868  0.3379  0.1551
 1385TIP3    H125714   0.279   2.704   7.449  0.1823  0.7115  0.9553
 1385TIP3    H225715   0.422   2.699   7.398  0.2733  0.0688  1.2765
 1386TIP3   OH225716   3.112   1.737   0.311  0.8193 -0.0584  0.0277
 1386TIP3    H125717   3.194   1.773   0.346  0.3881  0.6566  0.3188
 1386TIP3    H225718   3.086   1.671   0.375  1.2503 -0.3859 -0.1412
 1387TIP3   OH225719   2.095   3.757   6.462 -0.0962  0.3803  0.0199
 1387TIP3    H125720   2.137   3.749   6.548  0.4639 -0.6354 -0.3378
 1387TIP3    H225721   2.029   3.687   6.461 -0.0191  0.3134 -0.4176
 1388TIP3   OH225722   1.906   3.591   6.558 -0.0244  0.3772 -0.4620
 1388TIP3    H125723   1.824   3.544   6.567  0.5076 -0.1842  1.9078
 1388TIP3    H225724   1.895   3.668   6.614  0.4729  1.1390 -1.4001
 1389TIP3   OH225725   5.762   2.428   1.536 -0.5584  0.5652 -0.4139
 1389TIP3    H125726   5.799   2.361   1.594 -3.4161 -0.3692  0.4384
 1389TIP3    H225727   5.791   2.511   1.574  0.7629 -0.1275  0.1225
 1390TIP3   OH225728   4.519   2.230   6.440  0.1834  1.0796 -0.2500
 1390TIP3    H125729   4.452   2.176   6.482  0.6669  0.2789 -0.5097
 1390TIP3    H225730   4.472   2.277   6.371  0.3220 -1.2452 -1.9893
 1391TIP3   OH225731   0.387   3.876   8.466 -0.0223 -0.2998 -0.1787
 1391TIP3    H125732   0.404   3.945   8.402  0.2839 -0.4747 -0.2856
 1391TIP3    H225733   0.291   3.874   8.474 -0.0575 -0.2110 -0.5607
 1392TIP3   OH225734   1.667   3.435   6.517 -0.2123  0.1704 -0.2280
 1392TIP3    H125735   1.614   3.485   6.455  1.6527  1.2177 -1.0200
 1392TIP3    H225736   1.668   3.346   6.482 -1.5800  0.0814 -0.0952
 1393TIP3   OH225737   1.796   3.233   0.043  0.3150 -0.2381 -0.8057
 1393TIP3    H125738   1.749   3.193  -0.031 -2.3914 -0.2360  0.8455
 1393TIP3    H225739   1.741   3.307   0.069  2.5148  1.2700 -0.3296
 1394TIP3   OH225740   0.757   4.336   8.200  0.2780 -0.2327 -0.4161
 1394TIP3    H125741   0.808   4.416   8.214 -0.8475  0.6682 -1.3017
 1394TIP3    H225742   0.675   4.367   8.161 -1.1598 -1.5760  1.4456
 1395TIP3   OH225743   1.056   5.177   6.744  0.2196  0.0373  0.3255
 1395TIP3    H125744   1.054   5.176   6.648 -0.3339  2.6266  0.2849
 1395TIP3    H225745   0.966   5.196   6.770  0.2558 -1.1637  1.3916
 1396TIP3   OH225746   3.433   3.747   0.497 -0.4025  1.1452  0.1630
 1396TIP3    H125747   3.436   3.730   0.591 -1.1428  2.6272  0.4761
 1396TIP3    H225748   3.471   3.834   0.487  0.8806  0.4646 -1.0727
 1397TIP3   OH225749   5.351   4.630   6.855  0.8656  0.0926  0.2732
 1397TIP3    H125750   5.444   4.611   6.839  1.6949  2.6428  1.8196
 1397TIP3    H225751   5.320   4.666   6.772  1.4284 -0.1445 -0.0465
 1398TIP3   OH225752   4.316   0.898   7.176  0.1295  0.7067 -0.4036
 1398TIP3    H125753   4.396   0.864   7.135  1.1548  0.5367  1.6560
 1398TIP3    H225754   4.246   0.844   7.139  1.1007  0.0782 -1.3765
 1399TIP3   OH225755   1.012   2.339   0.603  0.1136 -0.0313 -0.3955
 1399TIP3    H125756   0.927   2.337   0.560 -0.8615  1.4586  1.4042
 1399TIP3    H225757   1.028   2.432   0.621  2.0738 -0.2928 -0.6100
 1400TIP3   OH225758   1.770   4.917   8.218 -0.2764  0.4312 -0.0306
 1400TIP3    H125759   1.817   4.851   8.268  0.0237  1.4960  1.1313
 1400TIP3    H225760   1.766   4.993   8.277 -1.0484  1.2716 -1.1458
 1401TIP3   OH225761   3.469   3.636   8.279 -0.6067 -0.1619 -0.3999
 1401TIP3    H125762   3.433   3.700   8.217 -0.7561  0.0486 -0.0972
 1401TIP3    H225763   3.549   3.676   8.311  1.0724 -1.5535 -2.6827
 1402TIP3   OH225764   1.793   4.240   0.334  0.9172  0.0817 -0.5201
 1402TIP3    H125765   1.821   4.215   0.421  0.7223 -0.1086 -0.5130
 1402TIP3    H225766   1.794   4.336   0.335  0.1245  0.0870 -0.0505
 1403TIP3   OH225767   2.637   3.138   6.834  0.1289  0.0208  0.1315
 1403TIP3    H125768   2.688   3.063   6.802  1.1557  1.3411 -1.4049
 1403TIP3    H225769   2.673   3.213   6.786 -1.0440  1.4612  1.4761
 1404TIP3   OH225770   4.293   3.901   0.814  0.1141 -0.1512 -0.3038
 1404TIP3    H125771   4.333   3.830   0.863  1.5334  1.1796  0.4964
 1404TIP3    H225772   4.242   3.949   0.879  0.1925  0.3145 -0.5850
 1405TIP3   OH225773   1.637   4.362   6.482  0.3253 -0.3240  0.0405
 1405TIP3    H125774   1.599   4.304   6.548 -0.3832 -1.5801 -1.4324
 1405TIP3    H225775   1.727   4.330   6.471  0.0460 -0.9287 -0.5119
 1406TIP3   OH225776   0.484   3.760   7.710  0.1292 -0.7164 -0.1580
 1406TIP3    H125777   0.479   3.850   7.742 -1.1171 -1.1412  0.8997
 1406TIP3    H225778   0.476   3.768   7.615  2.4576  0.4634 -0.2887
 1407TIP3   OH225779   2.796   1.660   6.670 -0.6261  0.4093  0.2842
 1407TIP3    H125780   2.749   1.626   6.747 -3.4460  1.8634 -0.7314
 1407TIP3    H225781   2.806   1.584   6.613 -0.9161 -0.1319  0.9403
 1408TIP3   OH225782   2.994   2.916   6.949 -0.0640  0.2808 -0.0396
 1408TIP3    H125783   2.964   2.944   7.035  1.4084 -0.2988  0.6829
 1408TIP3    H225784   3.089   2.920   6.954  0.0272  1.1407 -1.9484
 1409TIP3   OH225785   3.715   3.427   6.425 -0.9407  0.7313 -0.5261
 1409TIP3    H125786   3.635   3.418   6.373 -1.7261  0.5378  0.7151
 1409TIP3    H225787   3.688   3.475   6.503  0.1938  0.8232 -0.1784
 1410TIP3   OH225788   0.744   2.338   6.706  0.0288  0.3250  0.2464
 1410TIP3    H125789   0.695   2.364   6.784 -1.3138  0.0625 -0.4847
 1410TIP3    H225790   0.810   2.406   6.695  0.9537 -0.2172  2.2399
 1411TIP3   OH225791   0.951   1.730   6.627  0.2170  0.2921 -0.5739
 1411TIP3    H125792   0.869   1.749   6.581 -1.2251  0.7641  2.0969
 1411TIP3    H225793   0.995   1.815   6.632 -1.3675  0.9864  2.1582
 1412TIP3   OH225794   1.139   1.993   5.883  0.1321 -0.6410  0.7144
 1412TIP3    H125795   1.089   1.992   5.964 -0.2084  2.2620  0.5626
 1412TIP3    H225796   1.078   1.959   5.817 -0.5285 -0.2897  1.1386
 1413TIP3   OH225797   2.805   2.551   6.111 -0.8021  0.1564 -0.1310
 1413TIP3    H125798   2.809   2.456   6.125  2.3277  0.3577  0.5826
 1413TIP3    H225799   2.788   2.560   6.017 -0.3302 -1.1155 -0.3533
 1414TIP3   OH225800   4.051   2.698   8.017  0.4710  0.3954  0.1818
 1414TIP3    H125801   4.076   2.680   8.108 -1.7388 -0.6905  0.5941
 1414TIP3    H225802   4.029   2.791   8.016 -0.0786  0.2741  0.8933
 1415TIP3   OH225803   2.872   2.790   6.550 -0.7638  0.1760  0.0124
 1415TIP3    H125804   2.959   2.753   6.565  0.1362  2.1370 -0.2838
 1415TIP3    H225805   2.860   2.786   6.455 -0.3517  1.3081 -0.0941
 1416TIP3   OH225806   1.717   3.040   6.754  0.3292 -0.0807 -0.6890
 1416TIP3    H125807   1.785   2.981   6.723  1.9091  1.9879 -1.2742
 1416TIP3    H225808   1.679   3.077   6.675  0.0160  0.4166 -0.3140
 1417TIP3   OH225809   2.388   3.326   6.743  0.4201 -0.2149  0.6687
 1417TIP3    H125810   2.399   3.276   6.662 -0.0976 -1.5377  1.4141
 1417TIP3    H225811   2.351   3.410   6.714  1.1722 -0.3045 -0.5625
 1418TIP3   OH225812   3.878   4.399   8.313  0.0357  0.5724 -0.4693
 1418TIP3    H125813   3.909   4.460   8.246  0.0143 -0.5240 -1.4900
 1418TIP3    H225814   3.946   4.332   8.319 -0.6194 -0.0972 -0.4054
 1419TIP3   OH225815   1.965   2.007   8.432 -0.1572  0.4824  0.1500
 1419TIP3    H125816   1.976   1.913   8.419  1.1498  0.7307 -0.6434
 1419TIP3    H225817   2.030   2.047   8.374 -0.3101  1.8582  0.9027
 1420TIP3   OH225818   3.123   0.369   7.180  0.4107 -0.4948 -0.8603
 1420TIP3    H125819   3.136   0.274   7.172 -1.4580 -0.8765  0.4054
 1420TIP3    H225820   3.031   0.379   7.204  1.2269  1.4671  1.7382
 1421TIP3   OH225821   4.435   5.737   0.819  0.3404  0.1368 -0.3288
 1421TIP3    H125822   4.345   5.745   0.786  0.3807  1.2263 -0.1923
 1421TIP3    H225823   4.455   5.824   0.856  0.8932 -0.5590  1.0462
 1422TIP3   OH225824   4.661   3.449   6.762  0.8078 -0.1525 -0.3696
 1422TIP3    H125825   4.752   3.436   6.736  0.7596  0.3760 -0.8146
 1422TIP3    H225826   4.610   3.429   6.684  0.5265 -0.6376 -0.0657
 1423TIP3   OH225827   0.698   2.217   8.489 -0.3269  0.0152 -0.7189
 1423TIP3    H125828   0.686   2.261   8.573  1.0695  0.7340 -0.8794
 1423TIP3    H225829   0.679   2.125   8.507 -0.3684  0.2184  0.3063
 1424TIP3   OH225830   7.094   6.712   7.904  0.5255 -0.5544 -0.3048
 1424TIP3    H125831   7.027   6.662   7.950  0.2169  0.1518  0.0189
 1424TIP3    H225832   7.174   6.699   7.954  0.9866 -2.6057 -1.5124
 1425TIP3   OH225833   4.532   2.016   7.051  0.2156  0.4189  0.0811
 1425TIP3    H125834   4.615   2.050   7.084  0.6280 -1.3090  0.8589
 1425TIP3    H225835   4.529   1.926   7.081 -0.6251 -0.4141 -2.3547
 1426TIP3   OH225836   5.555   0.835   7.496  0.1177  0.1515  0.2705
 1426TIP3    H125837   5.560   0.927   7.521 -1.7036  0.9453 -2.0842
 1426TIP3    H225838   5.643   0.800   7.513  0.6786  2.1847  1.6517
 1427TIP3   OH225839   2.690   4.261   6.380 -0.6333 -0.1835  0.6139
 1427TIP3    H125840   2.764   4.294   6.331  0.1440 -1.0109  1.1996
 1427TIP3    H225841   2.615   4.270   6.321  0.0808 -0.1187 -0.2883
 1428TIP3   OH225842   3.380   2.863   6.080 -0.2425  0.0173  0.2740
 1428TIP3    H125843   3.321   2.791   6.056  0.8496 -1.1184  0.9218
 1428TIP3    H225844   3.324   2.925   6.127 -0.5719 -1.8556  2.4161
 1429TIP3   OH225845   3.969   3.695   7.321  0.2419  0.1587 -0.6573
 1429TIP3    H125846   3.924   3.769   7.281  0.6586  0.4560 -0.5729
 1429TIP3    H225847   3.991   3.637   7.248 -0.1047  0.1066 -0.7193
 1430TIP3   OH225848   2.349   1.246   6.523 -0.4212  0.5284  0.4986
 1430TIP3    H125849   2.330   1.308   6.452  1.0052 -1.3152 -1.5293
 1430TIP3    H225850   2.427   1.282   6.566 -0.5048  0.9427  0.3076
 1431TIP3   OH225851   4.520   3.431   6.528  0.0836 -0.8445  0.1443
 1431TIP3    H125852   4.471   3.363   6.482 -1.2460  0.7105 -0.7747
 1431TIP3    H225853   4.575   3.471   6.461 -2.1175  1.6693 -0.2485
 1432TIP3   OH225854   6.222   7.257   6.547 -0.0938 -0.0636 -0.5463
 1432TIP3    H125855   6.296   7.240   6.488  0.2610  0.5794 -0.2929
 1432TIP3    H225856   6.261   7.262   6.634 -0.6070 -0.8982 -0.2669
 1433TIP3   OH225857   4.928   3.544   7.117  0.4075  0.4477 -0.2541
 1433TIP3    H125858   5.001   3.495   7.077  0.1970 -1.1874  1.3255
 1433TIP3    H225859   4.858   3.480   7.125  0.3322  0.8226  2.4477
 1434TIP3   OH225860   4.309   2.399   6.559  0.5611 -0.2864 -0.5118
 1434TIP3    H125861   4.291   2.349   6.479 -0.6544  0.0136 -0.4308
 1434TIP3    H225862   4.395   2.438   6.544  0.7982 -1.0769 -1.2474
 1435TIP3   OH225863   4.978   1.619   6.700 -0.3565  0.3895  0.2903
 1435TIP3    H125864   5.039   1.634   6.628 -1.9079  1.9445 -0.7168
 1435TIP3    H225865   4.927   1.543   6.674  0.0679  0.0591  0.4176
 1436TIP3   OH225866   4.458   2.673   6.797  0.0451 -0.0369 -0.1929
 1436TIP3    H125867   4.390   2.615   6.764 -0.8090  1.2243 -0.6736
 1436TIP3    H225868   4.412   2.737   6.851  0.8984  0.5553 -0.1508
 1437TIP3   OH225869   5.744   6.978   1.208  0.6594  0.3571 -0.8302
 1437TIP3    H125870   5.716   6.992   1.299 -1.3461 -0.2410 -1.3258
 1437TIP3    H225871   5.801   6.901   1.211 -2.1149 -1.7319 -0.5280
 1438TIP3   OH225872   3.381   6.125   7.624 -0.1062 -0.6483 -0.0314
 1438TIP3    H125873   3.429   6.145   7.543  0.2298 -1.2363  0.0237
 1438TIP3    H225874   3.335   6.207   7.644  0.1647 -0.3553 -0.5702
 1439TIP3   OH225875   3.023   2.010   6.609 -0.8316 -0.0992  0.2304
 1439TIP3    H125876   3.012   1.997   6.703  2.5042  0.9550  0.8401
 1439TIP3    H225877   3.022   1.921   6.573 -0.0077 -0.6667  1.5630
 1440TIP3   OH225878   3.344   3.577   6.642 -0.3568 -0.2447 -0.3824
 1440TIP3    H125879   3.392   3.511   6.592 -1.4048 -1.0111 -0.3934
 1440TIP3    H225880   3.324   3.646   6.579 -3.8093 -2.3111 -1.6662
 1441TIP3   OH225881   3.171   1.190   6.195 -0.2573 -0.3340  0.0857
 1441TIP3    H125882   3.134   1.249   6.129 -0.5154  0.4373  0.9093
 1441TIP3    H225883   3.096   1.158   6.244 -0.1411 -1.5551 -0.5099
 1442TIP3   OH225884   4.795   0.762   6.957  0.1697 -0.2549  0.0973
 1442TIP3    H125885   4.823   0.814   6.881  0.2906  1.8278  1.5573
 1442TIP3    H225886   4.869   0.764   7.017 -0.8223  0.1391  1.3329
 1443TIP3   OH225887   4.367   3.427   7.267 -0.4372  0.0023  0.0332
 1443TIP3    H125888   4.421   3.349   7.250  0.4437  0.3885  1.0534
 1443TIP3    H225889   4.320   3.407   7.348 -1.4052 -0.0924 -0.5357
 1444TIP3   OH225890   2.928   2.657   7.675  0.1529  0.6479  0.2706
 1444TIP3    H125891   2.863   2.728   7.667  0.8492  1.2857  0.1627
 1444TIP3    H225892   2.994   2.692   7.734  0.7049  0.2347 -0.0971
 1445TIP3   OH225893   3.874   2.605   7.486 -0.3345  0.4030 -0.1681
 1445TIP3    H125894   3.785   2.572   7.493  0.1819 -0.8890  0.4819
 1445TIP3    H225895   3.902   2.619   7.577  0.4091 -0.0183 -0.3241
 1446TIP3   OH225896   4.141   4.402   6.831 -0.3934 -0.1775  0.1250
 1446TIP3    H125897   4.117   4.444   6.749 -1.8759  1.8164  1.5338
 1446TIP3    H225898   4.232   4.427   6.845 -0.9905  1.8690  0.4996
 1447TIP3   OH225899   3.402   1.713   7.117 -0.6304 -0.5880 -0.0416
 1447TIP3    H125900   3.407   1.767   7.038  1.2475 -1.2020 -0.3619
 1447TIP3    H225901   3.405   1.623   7.085  0.9842 -0.8358  0.7606
 1448TIP3   OH225902   2.688   2.469   6.807  0.1788 -0.0819  0.2015
 1448TIP3    H125903   2.687   2.378   6.834  1.5419  0.0037  0.5669
 1448TIP3    H225904   2.673   2.519   6.887 -0.2950  0.0283  0.0471
 1449TIP3   OH225905   4.835   4.818   6.539  0.0252  0.1729  0.1014
 1449TIP3    H125906   4.825   4.913   6.533  1.2355  0.2422 -1.0532
 1449TIP3    H225907   4.839   4.800   6.633  2.9235  1.6288  0.3144
 1450TIP3   OH225908   2.608   4.555   7.371 -0.0586  0.0526  0.3820
 1450TIP3    H125909   2.701   4.532   7.373 -0.1364 -0.2359  1.2460
 1450TIP3    H225910   2.569   4.500   7.439 -0.7705  0.5642  0.3901
 1451TIP3   OH225911   3.965   1.998   6.760 -1.0488 -0.3742 -0.1614
 1451TIP3    H125912   3.956   2.068   6.694 -0.1035  0.2556  0.3555
 1451TIP3    H225913   3.877   1.987   6.795 -1.1808  0.6914 -0.1234
 1452TIP3   OH225914   6.009   1.437   6.729 -0.3107  0.0652 -0.0128
 1452TIP3    H125915   6.094   1.471   6.757 -0.6230  1.0793 -0.3002
 1452TIP3    H225916   6.005   1.350   6.769  0.8328  0.0310  0.0554
 1453TIP3   OH225917   5.854   3.347   6.279 -0.2053 -0.2376  0.8659
 1453TIP3    H125918   5.777   3.294   6.258 -1.1437  0.5397  2.2367
 1453TIP3    H225919   5.883   3.316   6.364  1.7296 -1.3158 -0.1663
 1454TIP3   OH225920   5.922   0.817   1.151  0.1472  0.6458 -0.1598
 1454TIP3    H125921   5.975   0.786   1.224 -0.2596  0.2740 -0.0240
 1454TIP3    H225922   5.986   0.849   1.088  0.6681 -1.7242 -0.8968
 1455TIP3   OH225923   3.038   3.368   6.784  0.0553 -0.5591 -0.4497
 1455TIP3    H125924   3.122   3.325   6.768 -0.3345 -0.8865 -1.6653
 1455TIP3    H225925   2.996   3.372   6.698 -1.4026 -0.8687  0.2246
 1456TIP3   OH225926   5.214   1.878   7.122 -0.0142  0.1301 -0.1821
 1456TIP3    H125927   5.256   1.960   7.094  2.0122 -0.9515 -0.4641
 1456TIP3    H225928   5.201   1.829   7.041 -3.9905  1.3601 -0.3653
 1457TIP3   OH225929   1.985   2.190   6.464  0.0058  0.0851 -0.2323
 1457TIP3    H125930   1.962   2.257   6.399  0.4762 -0.5555 -1.0615
 1457TIP3    H225931   2.056   2.229   6.514  0.9909 -0.1843 -1.3866
 1458TIP3   OH225932   4.645   4.487   6.797 -0.7385 -0.6401 -0.2907
 1458TIP3    H125933   4.712   4.419   6.787 -2.8145 -2.7441 -0.3266
 1458TIP3    H225934   4.690   4.558   6.842  1.6405 -1.8129 -0.7252
 1459TIP3   OH225935   2.601   3.206   8.234 -0.3010  0.2068  0.3124
 1459TIP3    H125936   2.590   3.300   8.217 -0.3873 -0.0938 -1.2958
 1459TIP3    H225937   2.695   3.191   8.227 -0.3824 -0.0011 -0.2961
 1460TIP3   OH225938   2.888   2.773   6.272 -0.4668  0.4463 -0.0291
 1460TIP3    H125939   2.898   2.724   6.191 -0.4578 -0.7131  0.6600
 1460TIP3    H225940   2.899   2.865   6.247 -0.4431  0.0923 -1.3253
 1461TIP3   OH225941   3.901   3.561   6.162  0.0969  0.4889  0.2040
 1461TIP3    H125942   3.944   3.594   6.083 -0.9225  0.2449 -0.4643
 1461TIP3    H225943   3.972   3.526   6.215  0.7743  0.4454 -0.7123
 1462TIP3   OH225944   4.680   2.968   6.970  0.8438  0.0898  0.5062
 1462TIP3    H125945   4.630   3.048   6.951 -1.8265 -2.1675 -2.5559
 1462TIP3    H225946   4.658   2.948   7.061 -0.3344  1.5969  0.5772
 1463TIP3   OH225947   4.304   2.909   6.099 -0.9465  0.1456  0.9146
 1463TIP3    H125948   4.281   2.935   6.188 -2.1774  1.2378  0.2974
 1463TIP3    H225949   4.220   2.887   6.058 -0.1895 -2.2771  0.6124
 1464TIP3   OH225950   5.286   2.873   6.615  0.3922  0.5629 -0.0736
 1464TIP3    H125951   5.224   2.804   6.589  1.6643 -1.1606  1.3197
 1464TIP3    H225952   5.322   2.905   6.532 -0.4629 -0.2308 -0.7663
 1465TIP3   OH225953   4.029   4.460   6.594 -0.6926 -0.0236 -0.6956
 1465TIP3    H125954   3.951   4.406   6.606 -0.4795  0.1095  1.4494
 1465TIP3    H225955   4.014   4.504   6.510 -2.0834 -1.3561 -1.1842
 1466TIP3   OH225956   5.417   4.899   1.405  0.0002 -0.2757 -0.0152
 1466TIP3    H125957   5.367   4.817   1.401 -0.6315  0.0966  0.1431
 1466TIP3    H225958   5.361   4.959   1.455 -0.1218  0.6594 -1.2553
 1467TIP3   OH225959   3.938   4.764   0.532  0.0581 -0.5627  0.0883
 1467TIP3    H125960   3.911   4.691   0.476  0.5406 -0.4360 -0.3168
 1467TIP3    H225961   3.922   4.842   0.480 -0.7011 -0.3609  0.6247
 1468TIP3   OH225962   5.090   3.827   7.071  0.3347 -0.0169 -0.0187
 1468TIP3    H125963   5.056   3.738   7.086 -0.1776 -0.1388 -1.7540
 1468TIP3    H225964   5.170   3.814   7.021  0.1382  0.4989 -0.4752
 1469TIP3   OH225965   3.989   4.006   5.947  0.6512  0.3204  0.0688
 1469TIP3    H125966   4.051   4.061   5.899  1.2214  0.0549  0.4935
 1469TIP3    H225967   4.036   3.924   5.963 -0.2324 -0.3293 -0.6447
 1470TIP3   OH225968   4.850   3.795   6.047 -0.2455  0.0349 -0.5453
 1470TIP3    H125969   4.918   3.859   6.026 -1.9217  2.4252  1.0508
 1470TIP3    H225970   4.851   3.734   5.972  2.2919  1.1227 -1.4615
 1471TIP3   OH225971   2.411   5.492   7.179  0.2772 -0.0856  0.3297
 1471TIP3    H125972   2.467   5.454   7.246 -0.2094  0.9670  1.3634
 1471TIP3    H225973   2.468   5.552   7.131  0.0819  0.9231  1.3262
 1472TIP3   OH225974   3.418   2.764   6.352 -0.1988 -0.0898  0.0377
 1472TIP3    H125975   3.461   2.679   6.365  2.1612  0.9062 -1.0713
 1472TIP3    H225976   3.399   2.768   6.259  1.5341  1.4221 -0.2757
 1473TIP3   OH225977   1.374   2.594   6.745 -0.0891 -0.3462 -0.1283
 1473TIP3    H125978   1.461   2.555   6.754  0.8105  1.4664 -0.8631
 1473TIP3    H225979   1.367   2.617   6.653 -1.8245 -1.5218 -0.3212
 1474TIP3   OH225980   3.126   2.220   7.282  0.2380  0.5957 -0.0397
 1474TIP3    H125981   3.196   2.274   7.318  1.8910 -2.3411  1.3316
 1474TIP3    H225982   3.089   2.273   7.211  3.4372  2.4402 -0.4141
 1475TIP3   OH225983   4.267   0.237   0.359 -0.0844 -0.4215 -0.0151
 1475TIP3    H125984   4.317   0.163   0.395 -0.3837  0.1205  1.5391
 1475TIP3    H225985   4.233   0.283   0.436 -0.7557  0.7522 -0.9972
 1476TIP3   OH225986   4.621   1.045   7.221 -0.0046 -0.2882  0.7490
 1476TIP3    H125987   4.608   0.987   7.146  1.7637  0.7336 -0.3811
 1476TIP3    H225988   4.647   0.986   7.292 -0.9103 -1.1722  0.3615
 1477TIP3   OH225989   3.918   2.338   0.078 -0.4133  0.0683  0.4376
 1477TIP3    H125990   3.876   2.263   0.120  1.3445 -0.7287  0.8048
 1477TIP3    H225991   3.907   2.323  -0.015 -3.3011  1.2466  0.5381
 1478TIP3   OH225992   4.280   1.782   5.987  0.2488  0.2582 -0.0962
 1478TIP3    H125993   4.309   1.691   5.995  0.9822  0.6030  1.2816
 1478TIP3    H225994   4.213   1.792   6.055  0.6002  0.9098  0.1578
 1479TIP3   OH225995   3.512   2.199   0.866 -0.0437  0.0515 -0.0620
 1479TIP3    H125996   3.453   2.226   0.796  0.5727 -0.8202 -0.9272
 1479TIP3    H225997   3.468   2.226   0.947  0.0198  2.6104 -0.8300
 1480TIP3   OH225998   2.940   1.243   6.725  0.9879 -0.3495  0.2756
 1480TIP3    H125999   2.957   1.320   6.779  0.4838  0.8504 -1.2164
 1480TIP3    H226000   2.877   1.274   6.660  0.6345 -2.0921 -0.2205
 1481TIP3   OH226001   2.551   3.681   6.820  0.0108 -0.4327  0.3075
 1481TIP3    H126002   2.621   3.616   6.830  0.4885  0.0895  0.3522
 1481TIP3    H226003   2.595   3.765   6.827 -0.5573 -0.0971 -0.1175
 1482TIP3   OH226004   3.304   0.743   6.285  0.0790  0.2746  0.3738
 1482TIP3    H126005   3.233   0.797   6.252  1.0656  0.1332 -2.0563
 1482TIP3    H226006   3.316   0.772   6.375 -0.2994  3.1547 -0.4578
 1483TIP3   OH226007   4.334   4.426   7.955  0.8050 -0.4233  0.2077
 1483TIP3    H126008   4.337   4.356   7.890 -0.4323  0.0090 -0.3407
 1483TIP3    H226009   4.357   4.384   8.038  0.7543 -1.3254 -0.2359
 1484TIP3   OH226010   3.251   3.424   7.188  0.5899 -0.8548  0.3816
 1484TIP3    H126011   3.310   3.441   7.262 -1.8689  3.8015  1.4687
 1484TIP3    H226012   3.277   3.489   7.122 -1.9858 -0.0426  0.1174
 1485TIP3   OH226013   3.172   4.513   6.195  0.7659 -0.3536  0.0701
 1485TIP3    H126014   3.219   4.520   6.278  0.3772  1.0150  0.1894
 1485TIP3    H226015   3.239   4.485   6.132  1.6265  1.0100  0.3539
 1486TIP3   OH226016   3.433   1.428   7.568  0.0712 -0.1891 -0.0565
 1486TIP3    H126017   3.508   1.457   7.620 -0.3679 -0.0431  0.4896
 1486TIP3    H226018   3.361   1.422   7.630  0.1111 -2.2841 -0.1649
 1487TIP3   OH226019   6.384   2.259   6.421 -0.1365  0.2744 -0.2022
 1487TIP3    H126020   6.406   2.208   6.344 -0.7271 -0.2996  0.0061
 1487TIP3    H226021   6.391   2.350   6.392 -0.2935  0.0647 -0.9164
 1488TIP3   OH226022   4.356   2.377   6.275  0.3195 -0.6105 -0.5595
 1488TIP3    H126023   4.393   2.321   6.207 -0.3235 -0.1890 -1.2755
 1488TIP3    H226024   4.263   2.383   6.253  0.0369 -0.7770  0.5856
 1489TIP3   OH226025   3.555   5.209   0.359  0.1776 -0.3333 -0.1106
 1489TIP3    H126026   3.578   5.297   0.391  0.6512 -1.0504  1.5866
 1489TIP3    H226027   3.466   5.218   0.324  1.6825  1.7377 -3.7088
 1490TIP3   OH226028   4.083   2.804   0.038 -1.0609 -0.4885 -0.2049
 1490TIP3    H126029   4.079   2.898   0.018 -0.0738 -0.4679 -0.3331
 1490TIP3    H226030   4.092   2.801   0.133  0.1659 -0.4155 -0.3175
 1491TIP3   OH226031   3.342   2.429   6.164  0.3980 -0.0920 -0.3365
 1491TIP3    H126032   3.375   2.409   6.251 -0.5906  0.1867  0.1041
 1491TIP3    H226033   3.336   2.344   6.120  1.1665 -0.2011 -0.2432
 1492TIP3   OH226034   4.224   1.784   6.731  0.3975  0.1425 -0.5220
 1492TIP3    H126035   4.248   1.714   6.669  1.6929  0.4763 -0.4049
 1492TIP3    H226036   4.226   1.741   6.817  0.6853  0.1996 -0.5008
 1493TIP3   OH226037   4.452   2.721   6.451 -0.3285  0.3183 -0.2290
 1493TIP3    H126038   4.476   2.673   6.530 -0.2157  0.4651 -0.1732
 1493TIP3    H226039   4.379   2.776   6.477 -2.5063 -2.0964 -1.0678
 1494TIP3   OH226040   2.860   2.431   7.945 -0.3919 -0.3945  0.3751
 1494TIP3    H126041   2.789   2.495   7.939  0.2806  0.3377  0.0829
 1494TIP3    H226042   2.932   2.480   7.986 -0.2624 -1.3076  1.2457
 1495TIP3   OH226043   3.808   2.411   6.453 -0.2592  0.0732  0.1034
 1495TIP3    H126044   3.788   2.473   6.523  1.4515  0.1832  0.5133
 1495TIP3    H226045   3.801   2.464   6.373 -1.9861 -0.0018  0.1743
 1496TIP3   OH226046   2.328   3.857   8.416  0.0532 -0.8182  0.3018
 1496TIP3    H126047   2.235   3.853   8.439  0.2588 -0.5273  1.2244
 1496TIP3    H226048   2.369   3.899   8.492  0.8390 -0.3203 -0.3920
 1497TIP3   OH226049   4.754   1.571   6.165 -0.3115  0.3336 -0.1530
 1497TIP3    H126050   4.671   1.552   6.122 -1.2941  0.4478  1.6566
 1497TIP3    H226051   4.731   1.622   6.242  1.5671  1.5602 -0.3643
 1498TIP3   OH226052   3.677   1.506   7.122  0.1499 -0.1988  0.2987
 1498TIP3    H126053   3.598   1.497   7.175 -1.1775 -0.7526 -1.7040
 1498TIP3    H226054   3.679   1.599   7.097  0.7296  0.0436  1.2122
 1499TIP3   OH226055   3.996   2.928   7.474 -1.0165  0.3865 -0.1214
 1499TIP3    H126056   4.058   2.977   7.528 -0.8774 -0.7897  0.8069
 1499TIP3    H226057   4.001   2.838   7.507 -2.9715  0.2105 -0.2399
 1500TIP3   OH226058   2.794   3.414   1.195 -0.0700  0.7843 -0.0642
 1500TIP3    H126059   2.837   3.333   1.221  1.2541  0.7337 -2.2865
 1500TIP3    H226060   2.704   3.388   1.174  0.2342 -0.0560 -0.3631
 1501TIP3   OH226061   6.123   2.798   6.657  0.1370 -0.7732  0.2677
 1501TIP3    H126062   6.091   2.844   6.580  1.0285  0.9502  0.9026
 1501TIP3    H226063   6.051   2.740   6.682 -1.1150  0.4601 -0.3907
 1502TIP3   OH226064   5.006   4.493   6.429 -0.4675  0.7728 -0.4059
 1502TIP3    H126065   4.973   4.407   6.457  0.1140  0.9180  0.7642
 1502TIP3    H226066   5.101   4.482   6.425 -0.5380  0.7049 -2.5685
 1503TIP3   OH226067   5.350   2.570   6.319  0.0856  0.0567 -0.1373
 1503TIP3    H126068   5.441   2.598   6.315  0.2355 -0.4395 -0.2898
 1503TIP3    H226069   5.305   2.640   6.366  0.5927  0.1827  0.1601
 1504TIP3   OH226070   3.565   3.991   1.502 -0.1056 -0.0853 -0.4182
 1504TIP3    H126071   3.537   3.905   1.469 -0.0267  0.2150 -1.2650
 1504TIP3    H226072   3.621   3.970   1.577 -0.4916 -0.7614 -0.3103
 1505TIP3   OH226073   3.915   3.816   6.557  0.6214  0.2801  0.8809
 1505TIP3    H126074   3.936   3.909   6.554  1.9593  0.0241  1.7280
 1505TIP3    H226075   4.001   3.772   6.559  0.0849 -1.1489 -3.2433
 1506TIP3   OH226076   4.144   3.531   6.309 -0.0381  0.5617  0.3705
 1506TIP3    H126077   4.164   3.588   6.383  1.3039  0.3803  0.1730
 1506TIP3    H226078   4.203   3.561   6.239  0.3119 -0.7086  0.1041
 1507TIP3   OH226079   3.760   4.139   6.103  0.0902  0.3287 -0.5867
 1507TIP3    H126080   3.780   4.231   6.085 -0.8533  0.8357  0.8874
 1507TIP3    H226081   3.823   4.091   6.049  1.1682  1.8352 -0.7277
 1508TIP3   OH226082   3.969   3.357   6.465  0.0738  0.4387  0.5830
 1508TIP3    H126083   4.019   3.418   6.410 -0.2769  0.9695  0.8531
 1508TIP3    H226084   3.877   3.378   6.447 -0.0455  0.3236  1.0486
 1509TIP3   OH226085   4.833   4.640   7.487  0.1332 -0.3897  0.2600
 1509TIP3    H126086   4.779   4.599   7.419  1.6690 -1.7583 -0.1596
 1509TIP3    H226087   4.779   4.712   7.520 -1.6227 -1.2257 -0.7056
 1510TIP3   OH226088   3.100   4.134   0.423 -0.1803 -0.6966 -0.5442
 1510TIP3    H126089   3.147   4.096   0.497 -0.1048  1.6329  0.6341
 1510TIP3    H226090   3.159   4.124   0.348  1.9757  1.6694  0.7978
 1511TIP3   OH226091   2.570   3.339   1.020  0.9979  0.2093  0.1326
 1511TIP3    H126092   2.505   3.269   1.022  0.4906  0.6793  0.0483
 1511TIP3    H226093   2.648   3.298   0.981  0.5171 -0.1474 -0.4674
 1512TIP3   OH226094   3.876   1.536   7.595  0.0506 -0.1488  0.2215
 1512TIP3    H126095   3.912   1.489   7.520 -1.3561 -0.2531 -0.3969
 1512TIP3    H226096   3.952   1.556   7.649  0.8889 -1.5098 -0.4231
 1513TIP3   OH226097   5.300   3.279   6.392  0.1143 -0.1020  0.1862
 1513TIP3    H126098   5.320   3.346   6.326 -0.0801 -0.8229 -0.6111
 1513TIP3    H226099   5.330   3.318   6.475  3.0026 -0.3254 -0.6772
 1514TIP3   OH226100   1.761   0.306   0.329  0.3026 -0.3188  0.4531
 1514TIP3    H126101   1.777   0.245   0.256 -0.9454 -0.4992  0.3230
 1514TIP3    H226102   1.820   0.379   0.312 -0.3412 -0.1260 -1.0396
 1515TIP3   OH226103   5.993   1.554   6.994 -0.0489 -0.0160 -0.1764
 1515TIP3    H126104   5.950   1.488   6.940  0.8933  1.8412 -3.3228
 1515TIP3    H226105   5.921   1.608   7.028 -0.6032 -0.7859 -0.1118
 1516TIP3   OH226106   4.593   5.351   7.530  0.8754  0.0153 -0.5483
 1516TIP3    H126107   4.626   5.305   7.608  1.2152 -1.4359 -1.5143
 1516TIP3    H226108   4.663   5.342   7.465  0.1338  0.2032 -1.3921
 1517TIP3   OH226109   4.250   1.149   7.168 -0.2226 -0.3998  0.3043
 1517TIP3    H126110   4.290   1.063   7.157  0.0136 -0.1587 -0.7490
 1517TIP3    H226111   4.198   1.162   7.090  1.3431  1.2545 -0.5129
 1518TIP3   OH226112   3.648   5.465   7.054  0.0274 -0.2450  0.4980
 1518TIP3    H126113   3.666   5.558   7.065  0.7487 -0.2489 -0.5767
 1518TIP3    H226114   3.663   5.448   6.961  0.0470 -1.4680  0.7098
 1519TIP3   OH226115   2.501   2.404   7.292  0.3297 -0.2443  0.1691
 1519TIP3    H126116   2.534   2.318   7.264 -0.6412 -0.4136 -0.4705
 1519TIP3    H226117   2.408   2.390   7.307 -0.2245  1.1353 -1.7962
 1520TIP3   OH226118   3.576   1.919   6.567 -0.3561 -0.4191 -0.4235
 1520TIP3    H126119   3.547   1.868   6.492 -2.0744 -2.2828  1.4128
 1520TIP3    H226120   3.494   1.949   6.608  0.5306  0.2707  0.8753
 1521TIP3   OH226121   6.283   0.947   6.790  0.1896  0.2199  0.4685
 1521TIP3    H126122   6.310   1.037   6.772 -0.2563  0.0034 -1.3432
 1521TIP3    H226123   6.347   0.893   6.745  0.4913 -0.3849  1.6051
 1522TIP3   OH226124   5.270   2.376   6.942  0.7415 -0.1097 -0.5338
 1522TIP3    H126125   5.350   2.394   6.892  0.9036 -0.3745 -0.3717
 1522TIP3    H226126   5.272   2.440   7.014  0.2148  0.6496 -1.1925
 1523TIP3   OH226127   5.121   3.758   5.855 -0.1083  0.0824  0.5617
 1523TIP3    H126128   5.105   3.836   5.908 -0.9640 -0.6756  1.4343
 1523TIP3    H226129   5.049   3.757   5.792  0.0908  0.1882  0.3347
 1524TIP3   OH226130   3.697   3.208   8.275 -0.7653 -0.2934 -0.0433
 1524TIP3    H126131   3.734   3.138   8.329 -0.6813 -1.1877 -1.2356
 1524TIP3    H226132   3.603   3.193   8.278 -0.5904 -2.1257 -2.4905
 1525TIP3   OH226133   3.680   2.481   6.889  0.5580 -0.6326 -0.0063
 1525TIP3    H126134   3.609   2.457   6.830 -0.3482  0.1900  0.7256
 1525TIP3    H226135   3.640   2.541   6.951  2.3288  1.2467 -0.6416
 1526TIP3   OH226136   4.395   3.778   6.673 -0.0460  0.6305  0.4215
 1526TIP3    H126137   4.395   3.871   6.697 -1.8994  0.1247  2.5753
 1526TIP3    H226138   4.453   3.736   6.737 -0.3304  0.1111  0.3437
 1527TIP3   OH226139   3.240   3.858   6.683  0.0702 -0.1911 -0.3758
 1527TIP3    H126140   3.175   3.821   6.743 -0.7548 -0.0195 -1.1465
 1527TIP3    H226141   3.189   3.883   6.605  0.5999  2.5519  0.1145
 1528TIP3   OH226142   3.247   2.223   1.019 -0.1066 -0.3481  0.5893
 1528TIP3    H126143   3.182   2.237   0.950 -0.2406  0.6182  0.9072
 1528TIP3    H226144   3.224   2.287   1.087  3.3915  2.6454 -0.8613
 1529TIP3   OH226145   0.940   1.054   0.019 -0.6027  0.2193  0.8798
 1529TIP3    H126146   0.872   0.988   0.008 -0.3350 -0.4315  2.9507
 1529TIP3    H226147   0.894   1.138   0.011 -1.3205 -0.2080  0.4527
 1530TIP3   OH226148   2.403   3.872   1.443  0.0434  0.0396  0.2247
 1530TIP3    H126149   2.482   3.818   1.447 -0.7188 -1.0969  0.1422
 1530TIP3    H226150   2.432   3.953   1.402  0.6774 -1.3001 -2.1023
 1531TIP3   OH226151   3.162   3.008   7.418 -0.5525 -0.2542 -0.5168
 1531TIP3    H126152   3.237   3.062   7.444 -2.0617  1.9369 -0.5876
 1531TIP3    H226153   3.179   2.923   7.459  2.1283  0.0876 -0.8104
 1532TIP3   OH226154   1.023   3.969   8.081  0.3478 -0.3775 -0.2503
 1532TIP3    H126155   0.978   3.911   8.020 -1.1438 -0.9126  1.3184
 1532TIP3    H226156   0.956   4.031   8.110  1.6610  1.4549 -1.0776
 1533TIP3   OH226157   3.934   1.214   0.068 -0.3698  0.0649 -0.2946
 1533TIP3    H126158   3.901   1.301   0.043 -1.2340  0.1713  1.0980
 1533TIP3    H226159   3.855   1.161   0.077 -0.4000  0.6743  4.4630
 1534TIP3   OH226160   5.519   2.727   6.709 -0.4605  0.2801 -0.0149
 1534TIP3    H126161   5.445   2.774   6.670  0.6333 -1.1776 -4.1300
 1534TIP3    H226162   5.596   2.763   6.665  0.7901 -1.8974  0.3024
 1535TIP3   OH226163   3.824   2.251   8.318 -0.0273 -0.3654  0.7142
 1535TIP3    H126164   3.735   2.259   8.354 -0.3866  0.6041 -0.3550
 1535TIP3    H226165   3.812   2.257   8.223  1.4384  2.4790  0.6388
 1536TIP3   OH226166   5.059   1.309   6.802 -0.5622  0.2189 -0.6648
 1536TIP3    H126167   5.141   1.276   6.839 -2.4740 -3.4134  0.6223
 1536TIP3    H226168   5.072   1.305   6.707  0.4048 -1.3364 -0.4928
 1537TIP3   OH226169   4.669   0.522   6.937 -0.2855  0.0368  0.1710
 1537TIP3    H126170   4.692   0.472   6.859  1.1614 -1.5265  1.5291
 1537TIP3    H226171   4.731   0.595   6.938  0.5513 -0.6612  0.5060
 1538TIP3   OH226172   2.778   2.463   7.399  0.4691 -0.6050 -0.7929
 1538TIP3    H126173   2.699   2.460   7.345  0.1688  0.7267 -0.4390
 1538TIP3    H226174   2.749   2.501   7.482  1.7982  1.5162 -1.2571
 1539TIP3   OH226175   4.057   3.491   1.944  0.4058 -0.0070  0.7524
 1539TIP3    H126176   4.069   3.399   1.969 -0.6807 -0.2392  0.4317
 1539TIP3    H226177   4.022   3.533   2.022 -1.0823 -0.3128  0.2651
 1540TIP3   OH226178   3.007   2.257   6.926 -0.3608  0.7332 -0.3979
 1540TIP3    H126179   3.036   2.184   6.981 -0.9401  0.7019 -0.1233
 1540TIP3    H226180   2.918   2.277   6.958 -0.8763  0.4235 -1.6157
 1541TIP3   OH226181   3.144   2.502   6.948  0.0112 -0.0195  0.4629
 1541TIP3    H126182   3.082   2.556   6.897  2.4889  1.5364 -1.0084
 1541TIP3    H226183   3.106   2.414   6.946 -1.2634  0.5324 -1.9390
 1542TIP3   OH226184   3.163   1.375   6.585  0.1207 -0.1411 -0.3028
 1542TIP3    H126185   3.178   1.300   6.641  1.0965  0.1214 -0.2024
 1542TIP3    H226186   3.101   1.344   6.519 -0.1727 -0.7676  0.2654
 1543TIP3   OH226187   4.642   0.829   0.250  0.0909  0.6978  0.1087
 1543TIP3    H126188   4.716   0.866   0.298  0.1606  0.8278 -0.1003
 1543TIP3    H226189   4.572   0.893   0.261  0.5685  1.4793 -1.2603
 1544TIP3   OH226190   4.903   1.390   1.912 -0.0026  0.6268  0.6209
 1544TIP3    H126191   4.927   1.474   1.952 -2.0760  0.7819  1.6161
 1544TIP3    H226192   4.816   1.405   1.874 -0.9089 -1.3613  1.8102
 1545TIP3   OH226193   6.212   1.320   1.345  0.1797  0.4921  0.1026
 1545TIP3    H126194   6.158   1.398   1.359  0.5316  0.9554 -1.0362
 1545TIP3    H226195   6.290   1.354   1.301  1.5251 -0.1186  1.9464
 1546TIP3   OH226196   3.822   0.263   6.878  0.3139  0.7260  0.2960
 1546TIP3    H126197   3.768   0.214   6.939  0.3945 -1.3018 -1.2150
 1546TIP3    H226198   3.763   0.287   6.807  1.0516 -0.2824 -0.6808
 1547TIP3   OH226199   3.661   0.252   8.486  0.2727  0.1587  0.5762
 1547TIP3    H126200   3.621   0.191   8.425  0.1630 -2.1809  2.9003
 1547TIP3    H226201   3.590   0.310   8.513  0.1503  0.7032 -0.8804
 1548TIP3   OH226202   3.460   3.587   7.769 -0.6512 -0.1482 -0.9621
 1548TIP3    H126203   3.421   3.512   7.813  0.9225 -0.4200  0.0118
 1548TIP3    H226204   3.455   3.658   7.834  1.7075 -0.5559 -0.2701
 1549TIP3   OH226205   4.482   4.711   6.584 -0.6450  0.1133 -0.2655
 1549TIP3    H126206   4.538   4.789   6.585  0.4798 -0.6845 -0.5407
 1549TIP3    H226207   4.526   4.650   6.643 -1.9928  0.0045  0.6362
 1550TIP3   OH226208   6.414   2.919   6.961 -0.2052  0.5760  0.7476
 1550TIP3    H126209   6.473   2.990   6.936  1.3274 -0.5758  1.0207
 1550TIP3    H226210   6.327   2.957   6.953  0.4921  1.8981 -1.0085
 1551TIP3   OH226211   5.653   5.636   6.996  0.3107  0.3588  0.0841
 1551TIP3    H126212   5.575   5.678   6.960  0.4208  0.5335  0.0482
 1551TIP3    H226213   5.697   5.599   6.919  0.5258  0.6985  0.0432
 1552TIP3   OH226214   3.737   5.106   1.823  0.2187  0.1160 -0.0301
 1552TIP3    H126215   3.708   5.095   1.733  1.9906 -2.4570 -0.3305
 1552TIP3    H226216   3.657   5.131   1.871 -1.3247 -1.2558 -1.8080
 1553TIP3   OH226217   5.705   4.435   6.266 -0.1062  0.4008  0.2625
 1553TIP3    H126218   5.629   4.454   6.212  0.1996 -0.6301 -0.5519
 1553TIP3    H226219   5.737   4.521   6.294  0.1956  1.0158 -1.8705
 1554TIP3   OH226220   5.088   3.107   6.280  0.2756  0.1144  0.5159
 1554TIP3    H126221   5.158   3.154   6.325 -0.0749 -0.3255  1.5480
 1554TIP3    H226222   5.015   3.168   6.278 -0.5283 -0.6907  2.7949
 1555TIP3   OH226223   0.190   5.327   7.269 -0.1293  0.8580 -0.5449
 1555TIP3    H126224   0.167   5.287   7.353 -2.0523 -1.2768 -2.0012
 1555TIP3    H226225   0.225   5.413   7.291 -1.9959  0.9208  2.3492
 1556TIP3   OH226226   3.783   5.230   7.337  0.4366  0.1015 -0.0867
 1556TIP3    H126227   3.857   5.229   7.277  0.2048  0.9379 -0.4011
 1556TIP3    H226228   3.729   5.303   7.307 -1.5460 -1.7109 -1.1060
 1557TIP3   OH226229   5.757   0.878   6.350 -0.1713  0.8381  0.4798
 1557TIP3    H126230   5.711   0.946   6.301  0.4505  1.5767  0.8962
 1557TIP3    H226231   5.849   0.889   6.326  0.1130  1.0786  1.6419
 1558TIP3   OH226232   3.132   1.154   0.077 -0.6283 -0.4772 -1.1937
 1558TIP3    H126233   3.208   1.159   0.133 -0.2985 -2.1928 -1.4467
 1558TIP3    H226234   3.085   1.076   0.107 -2.6417  0.9098 -0.6129
 1559TIP3   OH226235   5.891   0.085   8.495  0.2692 -0.1343 -0.3629
 1559TIP3    H126236   5.839   0.165   8.483  0.8444  0.4510  0.9899
 1559TIP3    H226237   5.982   0.113   8.480  0.3311 -0.8977 -1.5107
 1560TIP3   OH226238   5.928   1.909   7.107 -0.0388  0.3149 -0.3661
 1560TIP3    H126239   6.007   1.862   7.132  1.5392  1.5424 -2.7814
 1560TIP3    H226240   5.920   1.979   7.171  1.4971  0.8495 -0.7363
 1561TIP3   OH226241   4.771   4.272   7.309 -0.3638  0.1625 -0.4051
 1561TIP3    H126242   4.843   4.322   7.269 -1.4473  1.4707 -0.7653
 1561TIP3    H226243   4.775   4.186   7.266  1.1283  0.1418 -0.2426
 1562TIP3   OH226244   4.929   3.893   6.801 -0.6758 -0.1709 -0.2570
 1562TIP3    H126245   4.848   3.945   6.793 -2.1789 -2.2457  0.9806
 1562TIP3    H226246   4.974   3.932   6.876 -0.6174  0.8763 -0.8262
 1563TIP3   OH226247   5.623   0.310   8.020 -0.0572  0.1759 -0.2652
 1563TIP3    H126248   5.684   0.276   8.085 -1.7765 -1.8070  0.3642
 1563TIP3    H226249   5.546   0.336   8.070 -1.4138 -1.4075 -1.4690
 1564TIP3   OH226250   4.182   1.583   1.394 -0.0419 -0.3923  0.4404
 1564TIP3    H126251   4.167   1.502   1.344 -0.0093  0.4133 -0.9069
 1564TIP3    H226252   4.278   1.588   1.401 -0.0146 -0.1147 -0.0904
 1565TIP3   OH226253   4.350   0.105   1.527 -0.0988 -0.0385  0.8346
 1565TIP3    H126254   4.377   0.060   1.607  0.3563  0.9671  1.2469
 1565TIP3    H226255   4.360   0.198   1.547 -1.4968  0.2708  0.1476
 1566TIP3   OH226256   6.678   1.181   7.557  0.1534 -0.2934  0.1817
 1566TIP3    H126257   6.692   1.204   7.649  0.2409 -0.7196  0.2740
 1566TIP3    H226258   6.674   1.086   7.556  0.6434 -0.3104 -0.3255
 1567TIP3   OH226259   4.101   2.419   6.201 -0.1334 -0.0791  0.0680
 1567TIP3    H126260   4.077   2.508   6.227 -0.3281 -0.2243  0.3873
 1567TIP3    H226261   4.133   2.428   6.111  0.7957  0.4676  0.4451
 1568TIP3   OH226262   2.363   3.560   6.347 -0.2151  0.4474  0.0717
 1568TIP3    H126263   2.425   3.516   6.288  1.4393  0.4322  1.7872
 1568TIP3    H226264   2.300   3.601   6.288  0.6591 -0.6446 -1.6839
 1569TIP3   OH226265   0.004   7.189   7.079 -0.2839 -0.5526  0.6739
 1569TIP3    H126266  -0.087   7.174   7.103 -0.8931 -0.0948 -1.2227
 1569TIP3    H226267   0.050   7.198   7.162 -1.9074 -1.1292  1.6567
 1570TIP3   OH226268   2.725   3.342   6.679 -0.0330  0.1244  0.3813
 1570TIP3    H126269   2.645   3.343   6.625 -0.5431 -0.6521  1.1243
 1570TIP3    H226270   2.795   3.358   6.616 -0.7116  0.1709 -0.3833
 1571TIP3   OH226271   3.574   4.431   7.692 -0.7689 -0.1227  0.4207
 1571TIP3    H126272   3.635   4.482   7.640 -2.5705  2.7243  0.9703
 1571TIP3    H226273   3.528   4.376   7.629 -0.1230  0.3481 -0.4658
 1572TIP3   OH226274   3.415   1.683   7.747 -0.3382  0.5701 -0.4282
 1572TIP3    H126275   3.361   1.654   7.821 -0.7678 -0.5133 -1.1577
 1572TIP3    H226276   3.502   1.647   7.766 -0.6949 -0.6053 -0.9601
 1573TIP3   OH226277   2.624   1.914   1.226 -0.1017 -0.6322 -0.0675
 1573TIP3    H126278   2.623   1.993   1.172  0.3035 -0.1256  0.6681
 1573TIP3    H226279   2.536   1.876   1.215  0.0666 -0.6909 -1.3034
 1574TIP3   OH226280   3.900   3.786   8.036  0.3238 -0.2281 -0.3397
 1574TIP3    H126281   3.941   3.870   8.016 -1.0696  0.8250  1.0659
 1574TIP3    H226282   3.829   3.778   7.972 -0.6156  0.4886  0.5993
 1575TIP3   OH226283   3.847   5.490   1.314 -0.2016  0.1691 -0.2165
 1575TIP3    H126284   3.866   5.547   1.239 -0.5637 -0.1032 -0.5208
 1575TIP3    H226285   3.928   5.442   1.329 -0.5059 -0.6851 -1.2413
 1576TIP3   OH226286   2.408   2.717   8.158 -0.0558  0.6142 -0.7731
 1576TIP3    H126287   2.390   2.798   8.110 -1.9692  0.9526  0.4841
 1576TIP3    H226288   2.339   2.657   8.131  0.9675 -0.4007 -1.1874
 1577TIP3   OH226289   4.319   1.741   0.875 -0.0610  0.0421  0.0494
 1577TIP3    H126290   4.279   1.826   0.894 -1.3464  0.4198 -3.8737
 1577TIP3    H226291   4.264   1.677   0.921 -0.0127  1.1810  1.7312
 1578TIP3   OH226292   4.077   3.352   6.945  0.3986 -0.6723 -0.0084
 1578TIP3    H126293   4.169   3.379   6.948  0.3955 -0.6580 -0.0456
 1578TIP3    H226294   4.029   3.431   6.967  0.3839 -0.6156 -0.2436
 1579TIP3   OH226295   4.079   3.244   7.463 -0.1896  0.3908 -0.6400
 1579TIP3    H126296   4.029   3.322   7.489 -1.2035 -0.6679  0.7070
 1579TIP3    H226297   4.054   3.229   7.372  0.6367  2.0988 -1.1656
 1580TIP3   OH226298   7.255   3.816   7.020 -0.2040 -0.2420 -0.3709
 1580TIP3    H126299   7.235   3.897   7.068 -0.3083  0.0701 -0.9463
 1580TIP3    H226300   7.202   3.820   6.941  1.0859 -0.0472 -1.2564
 1581TIP3   OH226301   6.208   5.052   7.346  0.1684 -0.0549 -0.1463
 1581TIP3    H126302   6.272   5.011   7.289  1.2148  0.1494  0.8640
 1581TIP3    H226303   6.259   5.087   7.419 -0.9978  0.7821  0.2921
 1582TIP3   OH226304   5.743   6.139   0.691 -0.8607 -0.0627  0.7350
 1582TIP3    H126305   5.820   6.089   0.718 -0.0967 -0.2383 -1.6238
 1582TIP3    H226306   5.693   6.078   0.636 -1.6762  0.6896  0.6167
 1583TIP3   OH226307   4.167   3.148   8.168 -0.6453 -0.5479  0.2421
 1583TIP3    H126308   4.131   3.230   8.136 -0.0210 -0.3634 -0.0064
 1583TIP3    H226309   4.175   3.094   8.089  1.6017  0.1724 -0.0709
 1584TIP3   OH226310   3.546   5.675   6.245 -0.0859  0.9543 -0.4150
 1584TIP3    H126311   3.484   5.608   6.217  0.5747  0.0433  0.2551
 1584TIP3    H226312   3.491   5.749   6.270 -1.0550 -0.4748  1.9009
 1585TIP3   OH226313   3.097   3.747   6.899 -0.3296 -0.5660  0.2778
 1585TIP3    H126314   3.022   3.696   6.868  0.4215  0.1509 -2.8729
 1585TIP3    H226315   3.159   3.681   6.931 -0.3333 -1.5069 -1.5669
 1586TIP3   OH226316   2.581   2.446   0.519  0.4767 -0.4644  0.6051
 1586TIP3    H126317   2.561   2.444   0.612  3.9992 -0.1400  1.4647
 1586TIP3    H226318   2.557   2.534   0.491 -0.8980 -0.6728  1.1357
 1587TIP3   OH226319   4.177   3.013   7.944 -0.1834  0.0468  0.0390
 1587TIP3    H126320   4.156   3.064   7.866  2.5243  1.6815  0.3220
 1587TIP3    H226321   4.263   2.977   7.927 -0.5922 -1.5810  1.2936
 1588TIP3   OH226322   5.741   3.626   6.375  0.3696 -0.4669 -0.2905
 1588TIP3    H126323   5.804   3.573   6.424  0.3350  0.5139  0.8480
 1588TIP3    H226324   5.791   3.660   6.301  0.0797 -3.0318 -1.6988
 1589TIP3   OH226325   1.849   1.812   6.727 -0.1215 -0.4032  0.5693
 1589TIP3    H126326   1.887   1.727   6.702 -0.3065 -0.2785 -0.1491
 1589TIP3    H226327   1.782   1.828   6.661  1.2099  1.2129 -0.4092
 1590TIP3   OH226328   6.899   1.448   6.386 -0.1618 -0.0616  0.0746
 1590TIP3    H126329   6.936   1.399   6.460  0.4726  0.5175  0.1431
 1590TIP3    H226330   6.804   1.438   6.396 -0.0315 -2.4773 -0.7272
 1591TIP3   OH226331   3.451   1.514   6.931  0.2100 -0.3679  0.2988
 1591TIP3    H126332   3.449   1.428   6.890 -2.7620  1.0814 -2.8378
 1591TIP3    H226333   3.517   1.563   6.882  0.3583 -0.1878  0.6728
 1592TIP3   OH226334   3.689   3.005   6.465 -0.3347  0.0314  0.4096
 1592TIP3    H126335   3.597   3.014   6.442 -0.6765 -3.1124  0.2824
 1592TIP3    H226336   3.723   2.940   6.402  1.7384  0.4494  1.0432
 1593TIP3   OH226337   6.019   1.446   6.202 -0.1568 -0.2524 -0.0449
 1593TIP3    H126338   5.992   1.444   6.294  0.0563 -2.0627 -0.0048
 1593TIP3    H226339   6.028   1.354   6.178 -0.8009  0.2074 -2.0696
 1594TIP3   OH226340   5.505   2.440   6.855 -0.3228  0.3354 -0.0665
 1594TIP3    H126341   5.578   2.379   6.845 -1.2075 -0.8774  0.7141
 1594TIP3    H226342   5.537   2.522   6.817  0.6371 -0.8003 -1.8063
 1595TIP3   OH226343   3.997   3.639   5.906  0.7341 -0.3696 -0.2562
 1595TIP3    H126344   3.944   3.681   5.838  1.2215  1.2161  0.3175
 1595TIP3    H226345   4.069   3.701   5.921  2.5184 -2.2565 -0.7041
 1596TIP3   OH226346   3.817   4.386   6.913 -0.2468  0.3029  0.4103
 1596TIP3    H126347   3.905   4.381   6.874 -0.4675  0.1358 -0.0698
 1596TIP3    H226348   3.787   4.474   6.894 -1.1952 -0.4347 -1.6403
 1597TIP3   OH226349   4.707   0.035   7.714  0.0132  0.2546  0.1456
 1597TIP3    H126350   4.703   0.042   7.809  1.1058 -0.9034  0.2850
 1597TIP3    H226351   4.617   0.017   7.687  0.2204 -2.5980  1.2454
 1598TIP3   OH226352   2.966   0.731   7.080 -0.5643  0.1495  0.4461
 1598TIP3    H126353   3.033   0.701   7.142  0.4012  0.7911 -0.2671
 1598TIP3    H226354   2.973   0.670   7.007 -0.2577  0.6676  0.0455
 1599TIP3   OH226355   2.248   1.060   6.933  0.2439  0.2319 -0.4174
 1599TIP3    H126356   2.194   1.137   6.911 -0.2221  0.3781  1.1212
 1599TIP3    H226357   2.195   0.985   6.906  0.5018  0.4320 -1.5038
 1600TIP3   OH226358   3.537   4.019   0.373  0.6546  0.8502  0.2317
 1600TIP3    H126359   3.505   4.108   0.388 -0.0049  0.4774  1.1036
 1600TIP3    H226360   3.544   4.012   0.278 -2.5421  0.7266 -0.0552
 1601TIP3   OH226361   5.996   3.290   6.498 -0.2153 -0.5409 -0.3004
 1601TIP3    H126362   6.007   3.216   6.558 -1.9839 -3.0524 -2.9609
 1601TIP3    H226363   6.070   3.283   6.438  1.7540  2.1815  1.6879
 1602TIP3   OH226364   0.362   2.602   7.068 -0.5526  0.5839 -0.6591
 1602TIP3    H126365   0.372   2.645   6.984  0.4346  0.9290 -0.3768
 1602TIP3    H226366   0.395   2.665   7.132  1.0629 -0.6242 -0.2562
 1603TIP3   OH226367   6.740   3.332   6.849  0.0844  0.0075 -0.8967
 1603TIP3    H126368   6.691   3.412   6.831  0.2408  0.5172  0.7712
 1603TIP3    H226369   6.804   3.325   6.779 -0.8361  0.6080 -1.7938
 1604TIP3   OH226370   0.345   3.830   6.824  0.7519  0.3014  0.0068
 1604TIP3    H126371   0.327   3.919   6.854 -0.9229 -0.4759  1.4563
 1604TIP3    H226372   0.341   3.835   6.729  0.8840  1.8127  0.0662
 1605TIP3   OH226373   0.327   2.109   7.307  0.1333 -0.3603 -0.1750
 1605TIP3    H126374   0.262   2.145   7.247  0.1472 -1.7999 -1.0705
 1605TIP3    H226375   0.397   2.175   7.310 -0.4525  0.2824 -0.7450
 1606TIP3   OH226376   5.123   2.853   6.169  0.0445 -0.2640  0.0386
 1606TIP3    H126377   5.075   2.776   6.197 -0.7000 -0.6519 -2.2321
 1606TIP3    H226378   5.083   2.926   6.218 -2.2218 -0.7065 -1.1211
 1607TIP3   OH226379   4.757   3.739   6.978  0.1877  0.1003  0.0148
 1607TIP3    H126380   4.804   3.666   7.020  0.9917  1.6142  1.8288
 1607TIP3    H226381   4.825   3.788   6.931 -0.1668  0.3042 -0.2872
 1608TIP3   OH226382   7.189   3.524   6.590  0.2054 -0.8054  0.5105
 1608TIP3    H126383   7.213   3.533   6.498  1.6221 -0.4484  0.9104
 1608TIP3    H226384   7.115   3.584   6.601 -0.3642 -1.3019 -0.5299
 1609TIP3   OH226385   5.198   4.752   6.696  0.6009  0.1702 -0.4877
 1609TIP3    H126386   5.115   4.711   6.720  0.3914 -0.0356 -1.5691
 1609TIP3    H226387   5.174   4.841   6.670  0.6898  0.0257 -1.0595
 1610TIP3   OH226388   0.955   2.970   8.015 -0.5078  0.3247  0.6420
 1610TIP3    H126389   0.966   2.994   7.923  3.8400  0.9660  1.2197
 1610TIP3    H226390   0.954   2.874   8.014  1.7557  0.2684  0.0573
 1611TIP3   OH226391   7.113   2.203   7.206  0.4433 -0.2115  0.1408
 1611TIP3    H126392   7.083   2.289   7.234  0.4611  0.4283 -1.7112
 1611TIP3    H226393   7.091   2.144   7.278 -0.8741  1.0963  0.8171
 1612TIP3   OH226394   4.875   7.141   8.038  0.0790 -0.0401 -0.2053
 1612TIP3    H126395   4.949   7.192   8.008 -0.1573 -0.3750 -1.3694
 1612TIP3    H226396   4.842   7.188   8.115  0.6094  0.8742 -0.5405
 1613TIP3   OH226397   3.347   3.099   8.086 -0.6866  0.0721 -0.2489
 1613TIP3    H126398   3.412   3.048   8.133  0.1756  0.0927 -1.4081
 1613TIP3    H226399   3.396   3.146   8.019 -1.8011  0.5495 -0.7520
 1614TIP3   OH226400   4.958   7.284   6.757 -0.0117 -0.1869  0.4117
 1614TIP3    H126401   4.957   7.229   6.679  0.4564 -1.4666  1.3016
 1614TIP3    H226402   4.906   7.235   6.822  1.4815 -0.2058  1.6235
 1615TIP3   OH226403   4.076   2.753   6.866  0.1867  0.7285  0.1717
 1615TIP3    H126404   4.041   2.790   6.785 -1.0713 -1.9592 -0.5815
 1615TIP3    H226405   4.115   2.669   6.839  1.8308  0.8747  1.9879
 1616TIP3   OH226406   6.578   2.796   5.804 -0.3829 -0.2896 -0.2547
 1616TIP3    H126407   6.516   2.853   5.850 -0.0951 -0.0835 -0.1188
 1616TIP3    H226408   6.651   2.786   5.865 -0.9127 -1.7108  0.1721
 1617TIP3   OH226409   6.743   3.711   6.616 -0.5172 -0.0382  0.0194
 1617TIP3    H126410   6.746   3.713   6.520  2.4569 -1.0482  0.0309
 1617TIP3    H226411   6.687   3.636   6.636  1.1290 -1.5956 -1.0001
 1618TIP3   OH226412   1.137   1.457   8.101 -0.2851  0.3023 -0.4285
 1618TIP3    H126413   1.061   1.494   8.146  0.1843  2.8974 -1.6501
 1618TIP3    H226414   1.102   1.382   8.053 -1.7646  0.5089  0.2961
 1619TIP3   OH226415   4.207   1.680   7.006 -0.0488 -0.1155 -0.0092
 1619TIP3    H126416   4.198   1.605   7.064 -0.2081  0.7769  1.1355
 1619TIP3    H226417   4.195   1.756   7.063 -0.0936  0.7736 -1.1886
 1620TIP3   OH226418   5.676   0.298   0.379  0.5771  0.0881 -0.0784
 1620TIP3    H126419   5.744   0.246   0.423 -2.0371 -1.5883  2.1501
 1620TIP3    H226420   5.659   0.370   0.439  0.1226  0.3007 -0.4594
 1621TIP3   OH226421   5.125   3.187   6.716 -0.6649  0.2099 -0.1657
 1621TIP3    H126422   5.150   3.147   6.799 -1.1723 -0.5703 -0.3888
 1621TIP3    H226423   5.208   3.208   6.673 -0.3996  1.5003  0.9637
 1622TIP3   OH226424   6.069   3.838   6.735 -0.3589 -0.3597  0.4700
 1622TIP3    H126425   6.165   3.831   6.738 -0.2226  0.2846 -1.2799
 1622TIP3    H226426   6.038   3.748   6.748  0.5251 -0.6795  0.4030
 1623TIP3   OH226427   6.422   0.746   8.392  0.6280 -0.7720 -0.1233
 1623TIP3    H126428   6.406   0.714   8.480  0.6842 -1.3820 -0.3315
 1623TIP3    H226429   6.347   0.714   8.341  1.8051 -2.4600 -0.8132
 1624TIP3   OH226430   6.187   3.203   6.759 -0.2114  0.0094  0.0445
 1624TIP3    H126431   6.214   3.123   6.714 -2.6452 -0.0520 -1.3950
 1624TIP3    H226432   6.140   3.171   6.837 -1.2720  0.0105 -0.5833
 1625TIP3   OH226433   7.237   2.785   6.560 -0.8573 -0.0809 -0.3175
 1625TIP3    H126434   7.178   2.747   6.625  0.2930 -1.9830 -0.3603
 1625TIP3    H226435   7.182   2.794   6.482 -1.6795  0.2581  0.2844
 1626TIP3   OH226436   6.763   3.048   5.685  0.5151  0.2813 -0.5330
 1626TIP3    H126437   6.705   3.017   5.615 -1.4815  0.0269  1.1770
 1626TIP3    H226438   6.807   2.969   5.716 -3.8186 -0.9096  3.1366
 1627TIP3   OH226439   1.296   4.800   6.732 -0.0794 -0.0381 -0.0592
 1627TIP3    H126440   1.262   4.788   6.643 -2.3900 -2.8927  1.1053
 1627TIP3    H226441   1.371   4.741   6.738 -0.9353 -1.0987  0.3673
 1628TIP3   OH226442   5.416   4.129   6.341  0.2760  0.6008 -0.1725
 1628TIP3    H126443   5.468   4.105   6.264 -0.3938 -1.6012  0.0158
 1628TIP3    H226444   5.469   4.102   6.415 -0.4341 -0.2132  0.0516
 1629TIP3   OH226445   7.094   3.261   6.676 -0.3606 -0.1077  0.1977
 1629TIP3    H126446   7.089   3.356   6.670  0.8589 -0.0599 -0.1417
 1629TIP3    H226447   7.104   3.232   6.585  0.5853 -0.4698  0.4119
 1630TIP3   OH226448   6.675   3.785   6.310  0.3060  0.1152  0.3873
 1630TIP3    H126449   6.586   3.803   6.341 -0.2352  0.3948 -1.2442
 1630TIP3    H226450   6.711   3.872   6.291 -0.0032 -0.1100 -1.3646
 1631TIP3   OH226451   6.889   3.013   6.697  0.5803 -0.0905 -0.2402
 1631TIP3    H126452   6.860   2.963   6.774  1.2284 -0.4351 -0.2188
 1631TIP3    H226453   6.951   3.076   6.732 -0.5971  1.0767 -0.1941
 1632TIP3   OH226454   0.446   5.189   8.058 -0.6904 -0.3468 -0.2354
 1632TIP3    H126455   0.539   5.205   8.042 -0.5677 -1.2094 -0.4069
 1632TIP3    H226456   0.445   5.132   8.135 -1.0865 -0.2721 -0.1854
 1633TIP3   OH226457   0.138   2.941   6.655  0.0434  0.2430  0.5404
 1633TIP3    H126458   0.162   2.922   6.745  0.2604 -2.4405 -0.0484
 1633TIP3    H226459   0.059   2.889   6.640  1.2604 -1.0698 -1.4722
 1634TIP3   OH226460   7.218   3.135   7.294 -0.6296  0.0135  0.0687
 1634TIP3    H126461   7.282   3.148   7.224  0.9622 -2.2247  1.0575
 1634TIP3    H226462   7.201   3.224   7.327  0.3561  0.8523 -1.5859
 1635TIP3   OH226463   6.021   0.802   8.330  0.0589  0.2600 -0.0031
 1635TIP3    H126464   5.992   0.715   8.356 -1.6704  0.5401 -0.9005
 1635TIP3    H226465   6.062   0.789   8.244 -0.2289  0.3187 -0.1527
 1636TIP3   OH226466   4.675   1.668   6.926  0.5385  0.0520 -0.1156
 1636TIP3    H126467   4.676   1.659   6.831 -1.2537 -4.1842  0.1710
 1636TIP3    H226468   4.757   1.626   6.954  0.5701  0.3673  0.2623
 1637TIP3   OH226469   1.283   2.478   8.007  0.2141 -0.4257 -0.7577
 1637TIP3    H126470   1.375   2.475   7.980  0.5995  0.5592  0.4259
 1637TIP3    H226471   1.250   2.390   7.990  1.2658 -0.6815 -1.5406
 1638TIP3   OH226472   6.297   4.714   6.832 -0.1842 -0.4161 -0.2516
 1638TIP3    H126473   6.306   4.619   6.821  0.2860 -0.3679 -0.3004
 1638TIP3    H226474   6.228   4.724   6.897  0.8676 -0.8311  0.9379
 1639TIP3   OH226475   1.788   2.506   7.694 -0.4453 -0.0496 -0.3436
 1639TIP3    H126476   1.750   2.563   7.761 -0.8438  1.4668 -1.8371
 1639TIP3    H226477   1.715   2.486   7.636  0.0158 -0.9488 -0.6102
 1640TIP3   OH226478   6.760   2.555   6.961 -0.2239  0.2565 -0.4084
 1640TIP3    H126479   6.856   2.554   6.958 -0.1932 -1.1145  0.7030
 1640TIP3    H226480   6.736   2.632   6.910  1.4393  0.0449 -1.5757
 1641TIP3   OH226481   4.001   4.086   6.596  0.6904 -0.4438  0.0017
 1641TIP3    H126482   3.954   4.169   6.596  1.6639  0.1161 -0.8513
 1641TIP3    H226483   4.028   4.074   6.687 -0.4003 -0.3740  0.3382
 1642TIP3   OH226484   0.719   4.018   6.446 -0.4192  0.0069  0.0336
 1642TIP3    H126485   0.775   4.032   6.370 -0.4931 -1.4551 -0.2937
 1642TIP3    H226486   0.661   4.095   6.447 -1.2473 -0.5734 -2.1093
 1643TIP3   OH226487   0.608   3.953   6.960 -0.0082 -0.5915 -0.1645
 1643TIP3    H126488   0.602   4.027   7.021 -2.8228 -1.9075  1.2434
 1643TIP3    H226489   0.646   3.991   6.880  0.2549  1.9745  1.1212
 1644TIP3   OH226490   6.418   3.982   6.288 -0.1864  0.1744  0.1053
 1644TIP3    H126491   6.362   3.908   6.264  0.2023 -0.5741  1.4510
 1644TIP3    H226492   6.356   4.052   6.310 -0.5687 -0.2257  0.3128
 1645TIP3   OH226493   5.394   4.628   6.566  0.0926  0.1195 -0.0680
 1645TIP3    H126494   5.370   4.720   6.573 -1.4407 -0.4506  2.6992
 1645TIP3    H226495   5.359   4.600   6.481  1.5145  2.3007 -1.4385
 1646TIP3   OH226496   5.757   3.285   6.774 -0.2589 -0.0071 -0.6517
 1646TIP3    H126497   5.813   3.362   6.770 -0.5104  0.1855 -0.4537
 1646TIP3    H226498   5.709   3.294   6.856 -2.1959  0.9441 -1.8552
 1647TIP3   OH226499   1.557   4.614   7.724  0.4860 -0.0099  0.2780
 1647TIP3    H126500   1.552   4.652   7.812 -0.4073  0.3684  0.0716
 1647TIP3    H226501   1.467   4.588   7.704  0.5544  0.5771 -0.8208
 1648TIP3   OH226502   0.175   1.751   8.425  0.0996  0.6184  0.4915
 1648TIP3    H126503   0.161   1.842   8.401 -0.8318  0.5662  0.8061
 1648TIP3    H226504   0.254   1.725   8.379 -0.8908  0.9168 -1.3993
 1649TIP3   OH226505   4.352   5.111   7.278 -0.3271  1.3629 -0.1158
 1649TIP3    H126506   4.392   5.048   7.337 -1.2746  1.5701  0.7576
 1649TIP3    H226507   4.333   5.187   7.333  0.3003  2.1980 -1.0419
 1650TIP3   OH226508   6.017   2.881   6.425  0.8293  0.0399  0.6485
 1650TIP3    H126509   5.938   2.831   6.442  0.6117  0.1922  0.0983
 1650TIP3    H226510   5.999   2.929   6.344  1.9418 -0.8677 -0.1478
 1651TIP3   OH226511   0.741   1.801   6.473  0.5800 -0.1534 -0.0480
 1651TIP3    H126512   0.734   1.866   6.403  0.5908  0.0891  0.1770
 1651TIP3    H226513   0.662   1.747   6.465 -0.4342  1.1307  1.0295
 1652TIP3   OH226514   7.136   1.374   7.927  0.2803 -0.0090  0.2139
 1652TIP3    H126515   7.122   1.359   7.834 -1.1448 -2.6008  0.7987
 1652TIP3    H226516   7.154   1.468   7.934 -0.3141  0.3479 -2.5564
 1653TIP3   OH226517   6.500   1.451   7.158 -0.4101 -0.2326  0.3531
 1653TIP3    H126518   6.411   1.487   7.153 -0.1333  0.3495 -0.6100
 1653TIP3    H226519   6.501   1.401   7.239 -2.0735 -1.4699 -0.3609
 1654TIP3   OH226520   2.624   1.889   6.814  0.0472  0.2870 -0.1952
 1654TIP3    H126521   2.558   1.908   6.880 -1.0402 -0.6130 -0.9869
 1654TIP3    H226522   2.655   1.801   6.835  1.8013  1.1479  0.8245
 1655TIP3   OH226523   0.232   3.838   6.551 -0.0489  0.3937 -0.2604
 1655TIP3    H126524   0.255   3.803   6.465 -0.8581  1.8357 -1.0916
 1655TIP3    H226525   0.148   3.882   6.537 -0.0353  0.9142  1.1962
 1656TIP3   OH226526   6.546   2.977   6.660 -0.7806  0.9423 -0.4833
 1656TIP3    H126527   6.608   2.923   6.612  0.4020  0.5454  1.4642
 1656TIP3    H226528   6.460   2.955   6.623  0.0233 -0.0112 -1.7724
 1657TIP3   OH226529   0.083   2.958   7.540  0.1335  0.4540  0.4092
 1657TIP3    H126530   0.166   2.969   7.494  0.8343  0.7560  1.7184
 1657TIP3    H226531   0.016   2.976   7.474  1.1303  1.3520 -0.3730
 1658TIP3   OH226532   6.696   2.788   6.523  0.9143  0.0360 -0.0186
 1658TIP3    H126533   6.674   2.751   6.437  1.5133 -0.0161 -0.1496
 1658TIP3    H226534   6.791   2.802   6.520  0.6759  1.7187 -0.0272
 1659TIP3   OH226535   6.798   1.760   6.360 -0.1333  0.2091  0.4613
 1659TIP3    H126536   6.730   1.692   6.353 -0.7693  0.6718  2.0037
 1659TIP3    H226537   6.871   1.726   6.309 -0.9868 -0.9698 -0.0059
 1660TIP3   OH226538   0.270   0.806   1.611 -0.0471 -0.7445  0.4848
 1660TIP3    H126539   0.317   0.872   1.560 -1.4917  0.9452  1.2959
 1660TIP3    H226540   0.210   0.766   1.548  0.7518 -1.2301  0.0189
 1661TIP3   OH226541   6.093   1.078   7.651 -0.4281  0.2379 -0.5673
 1661TIP3    H126542   6.069   1.122   7.732 -1.1885  1.6615 -1.5382
 1661TIP3    H226543   6.170   1.026   7.673 -0.6202  0.6306  1.0475
 1662TIP3   OH226544   5.507   4.034   6.620 -0.0199  0.4391 -0.3034
 1662TIP3    H126545   5.572   3.984   6.570  0.1552 -0.6500  0.9763
 1662TIP3    H226546   5.548   4.120   6.634  0.2882  0.4466 -1.2608
 1663TIP3   OH226547   1.527   0.881   0.350  0.2757 -0.2488  0.0116
 1663TIP3    H126548   1.441   0.863   0.314  0.1895  0.8316 -0.3332
 1663TIP3    H226549   1.509   0.923   0.434  0.4768 -1.1537  0.5210
 1664TIP3   OH226550   5.041   4.406   7.494 -0.1499 -0.7066  0.3929
 1664TIP3    H126551   4.954   4.399   7.535 -0.5262 -1.3972 -0.5194
 1664TIP3    H226552   5.027   4.379   7.404  1.2404 -1.9089  0.5332
 1665TIP3   OH226553   4.417   2.686   7.952  0.1603 -0.4161 -0.2979
 1665TIP3    H126554   4.322   2.690   7.940 -0.0304 -0.4149  1.1404
 1665TIP3    H226555   4.431   2.713   8.042  1.5932  0.1718 -0.6742
 1666TIP3   OH226556   4.718   3.369   7.073 -0.1315  0.1204  0.2621
 1666TIP3    H126557   4.736   3.353   6.981  2.3189 -1.3670  0.9592
 1666TIP3    H226558   4.641   3.315   7.093  1.0910 -1.8201 -0.2044
 1667TIP3   OH226559   4.504   1.116   8.255 -0.1469 -0.5125 -0.5683
 1667TIP3    H126560   4.416   1.089   8.231 -0.0866 -0.0298 -1.3604
 1667TIP3    H226561   4.496   1.209   8.277  0.5471  0.0932 -2.7709
 1668TIP3   OH226562   0.365   2.225   0.749  0.2071 -0.1263 -0.1493
 1668TIP3    H126563   0.381   2.240   0.843  0.1701  0.1985 -0.1940
 1668TIP3    H226564   0.274   2.195   0.745  0.7855 -1.9864  0.1071
 1669TIP3   OH226565   5.716   3.870   6.498  0.0830 -0.2429 -0.9826
 1669TIP3    H126566   5.790   3.897   6.444  0.0635 -0.8390 -1.3141
 1669TIP3    H226567   5.713   3.775   6.489  0.3369 -0.3873  0.4039
 1670TIP3   OH226568   1.393   4.869   6.413  0.9409 -0.0171  0.5650
 1670TIP3    H126569   1.377   4.938   6.477 -2.2696  0.0632 -0.2604
 1670TIP3    H226570   1.381   4.911   6.328 -2.3012 -1.7883  0.0620
 1671TIP3   OH226571   5.978   0.446   7.689  0.1755 -0.2164 -0.3085
 1671TIP3    H126572   5.961   0.497   7.610 -0.1813 -2.3687 -1.6814
 1671TIP3    H226573   5.896   0.448   7.738 -0.6761 -1.5908 -1.6325
 1672TIP3   OH226574   0.622   1.361   7.893 -0.1553 -0.1834  0.1399
 1672TIP3    H126575   0.570   1.439   7.915  0.1191  0.0696 -0.1006
 1672TIP3    H226576   0.559   1.300   7.855  0.1000  1.0115 -2.3407
 1673TIP3   OH226577   5.558   1.810   6.511  0.0196 -0.8045  0.6016
 1673TIP3    H126578   5.630   1.847   6.461 -0.4385  0.5752  0.9302
 1673TIP3    H226579   5.488   1.876   6.505 -0.3252 -0.9668  2.3731
 1674TIP3   OH226580   5.542   4.437   6.710 -0.8115 -0.0116 -0.6586
 1674TIP3    H126581   5.521   4.505   6.646  1.9569  1.7322  0.1767
 1674TIP3    H226582   5.580   4.366   6.658 -0.5608  0.5019 -1.1876
 1675TIP3   OH226583   2.776   5.570   0.862  1.0213 -0.2653 -0.0350
 1675TIP3    H126584   2.852   5.560   0.804  2.1676  0.1396  1.3545
 1675TIP3    H226585   2.704   5.529   0.814  1.6994  0.9460 -2.1617
 1676TIP3   OH226586   5.798   3.074   6.598  0.1507  0.1405  0.1296
 1676TIP3    H126587   5.834   3.009   6.658 -2.0530 -1.0181  0.2448
 1676TIP3    H226588   5.794   3.155   6.648  1.4505  0.0005  0.4729
 1677TIP3   OH226589   6.880   3.437   5.754  0.0756 -0.1782 -0.2367
 1677TIP3    H126590   6.787   3.434   5.736 -0.2785  1.2736  1.1982
 1677TIP3    H226591   6.920   3.463   5.671 -0.8153 -0.6669 -0.8134
 1678TIP3   OH226592   3.273   2.510   8.082 -0.2006 -0.1130  0.0729
 1678TIP3    H126593   3.331   2.445   8.121 -0.8235 -0.5753  0.2261
 1678TIP3    H226594   3.312   2.529   7.997 -0.6300 -1.5274 -0.4547
 1679TIP3   OH226595   0.128   2.781   7.750  0.1776  0.4702 -0.2251
 1679TIP3    H126596   0.107   2.812   7.662  2.4613  0.1832 -0.8957
 1679TIP3    H226597   0.183   2.849   7.788  0.6654 -0.2191  0.3263
 1680TIP3   OH226598   6.634   4.083   6.453  0.5349 -0.7811 -0.5776
 1680TIP3    H126599   6.574   4.064   6.380  2.5849  4.0112 -3.7852
 1680TIP3    H226600   6.709   4.025   6.438 -0.3981 -2.0517 -0.4080
 1681TIP3   OH226601   4.221   4.694   6.603 -0.0759 -0.1074  0.2070
 1681TIP3    H126602   4.315   4.684   6.588 -0.0660  0.6091 -0.2648
 1681TIP3    H226603   4.181   4.620   6.558  0.3732 -1.3583  1.8430
 1682TIP3   OH226604   6.121   3.542   6.722 -0.1632 -0.2810  0.4474
 1682TIP3    H126605   6.208   3.557   6.684 -1.7272  1.0721 -2.7314
 1682TIP3    H226606   6.126   3.453   6.757  2.9301  0.2876  1.6481
 1683TIP3   OH226607   0.613   3.722   6.774  0.0168 -0.2982 -0.2738
 1683TIP3    H126608   0.627   3.724   6.680  0.7982  2.4446 -0.1461
 1683TIP3    H226609   0.535   3.778   6.788  2.6379  3.2417  1.0460
 1684TIP3   OH226610   6.906   1.215   7.408 -0.2102 -0.1480 -0.2244
 1684TIP3    H126611   6.851   1.197   7.484  0.2326  2.9303  0.9029
 1684TIP3    H226612   6.874   1.298   7.374  2.2905  0.5993 -0.8831
 1685TIP3   OH226613   7.285   3.777   6.714 -0.4305  0.0184  0.0627
 1685TIP3    H126614   7.303   3.685   6.730  0.8709  0.1126 -0.7894
 1685TIP3    H226615   7.200   3.778   6.670 -1.3232 -0.6297  1.7350
 1686TIP3   OH226616   6.550   4.994   6.570 -0.2834  0.1758 -0.0924
 1686TIP3    H126617   6.496   4.915   6.578 -3.6942  2.5796  1.6368
 1686TIP3    H226618   6.546   5.015   6.476  1.3061 -2.0726 -0.7106
 1687TIP3   OH226619   6.431   2.978   5.958 -0.0506  0.1569  0.0847
 1687TIP3    H126620   6.440   3.073   5.966  0.9079  0.0507  0.4224
 1687TIP3    H226621   6.474   2.944   6.037 -0.7383 -0.5428  0.1605
 1688TIP3   OH226622   5.944   2.977   6.198 -0.2648 -0.3077  0.0078
 1688TIP3    H126623   5.878   3.024   6.147  0.5196 -0.5195 -1.2311
 1688TIP3    H226624   6.026   3.023   6.180 -0.1809  0.4247  2.1540
 1689TIP3   OH226625   6.442   1.798   7.343 -0.2687  0.0195  0.2594
 1689TIP3    H126626   6.511   1.738   7.315  1.0559  1.1240  1.1152
 1689TIP3    H226627   6.413   1.763   7.427 -1.5543 -1.0748 -0.6069
 1690TIP3   OH226628   6.765   3.230   6.566  0.0163  0.1770  0.4234
 1690TIP3    H126629   6.767   3.184   6.482 -1.6728  0.0813  0.4170
 1690TIP3    H226630   6.799   3.166   6.629 -0.4156 -0.3751  0.0992
 1691TIP3   OH226631   6.515   1.711   6.486  0.4824  0.4078 -0.6259
 1691TIP3    H126632   6.491   1.752   6.569 -1.0210 -0.5338 -0.5634
 1691TIP3    H226633   6.460   1.754   6.421  2.0712  1.5436 -1.2401
 1692TIP3   OH226634   6.441   1.849   6.756  0.7110  0.0663 -0.0731
 1692TIP3    H126635   6.448   1.877   6.847 -0.4243 -0.1410  0.0867
 1692TIP3    H226636   6.460   1.927   6.704 -0.7780  0.7211  0.3546
 1693TIP3   OH226637   0.464   3.219   6.865 -0.7052  0.3477  0.4335
 1693TIP3    H126638   0.487   3.127   6.851 -1.5520  0.0699  0.8506
 1693TIP3    H226639   0.546   3.260   6.894  0.1398  0.1368 -1.5916
 1694TIP3   OH226640   0.101   3.465   7.187 -0.1569  0.6432  0.0959
 1694TIP3    H126641   0.183   3.490   7.143 -0.5382 -1.8264 -2.1895
 1694TIP3    H226642   0.038   3.532   7.160  0.5608  1.2767 -0.0255
 1695TIP3   OH226643   5.377   7.108   8.345 -0.4408  0.2770 -0.8829
 1695TIP3    H126644   5.408   7.018   8.341 -0.5136  0.0495  2.4089
 1695TIP3    H226645   5.456   7.161   8.334  0.2804 -0.2527  1.4757
 1696TIP3   OH226646   5.579   3.061   5.646 -0.4553  0.2463 -0.0864
 1696TIP3    H126647   5.662   3.037   5.686 -1.2935  0.0756  1.6348
 1696TIP3    H226648   5.540   3.123   5.708 -2.0249 -0.4073 -0.3839
 1697TIP3   OH226649   7.292   4.990   7.085 -0.3666 -0.1546  0.3152
 1697TIP3    H126650   7.367   4.962   7.032  1.3012  0.1396  2.4447
 1697TIP3    H226651   7.234   4.914   7.088 -0.6373 -0.0841 -2.1290
 1698TIP3   OH226652   5.645   0.682   7.109  0.2165 -0.1317 -0.3099
 1698TIP3    H126653   5.607   0.692   7.021 -2.4693  0.9275  0.9026
 1698TIP3    H226654   5.662   0.772   7.138  0.2042 -0.4232  0.6147
 1699TIP3   OH226655   5.889   3.533   6.590  0.1800  0.3287  0.2086
 1699TIP3    H126656   5.926   3.457   6.546 -1.2367  0.5115 -1.3433
 1699TIP3    H226657   5.964   3.580   6.626  1.2460 -0.5188 -0.9089
 1700TIP3   OH226658   3.650   4.977   7.227 -0.3144  0.4120 -0.0233
 1700TIP3    H126659   3.596   4.920   7.283  1.2588 -1.9801 -0.8563
 1700TIP3    H226660   3.669   5.053   7.281 -1.0368 -0.6369  1.7532
 1701TIP3   OH226661   0.700   6.057   8.293  0.4822 -0.0151 -0.6280
 1701TIP3    H126662   0.773   6.068   8.231 -0.1392  0.3999 -1.2942
 1701TIP3    H226663   0.742   6.030   8.374  1.2489 -1.1497 -1.3936
 1702TIP3   OH226664   0.828   3.143   0.717 -0.0561  0.1135  0.1961
 1702TIP3    H126665   0.835   3.183   0.804  1.3286  0.8780 -0.2493
 1702TIP3    H226666   0.791   3.212   0.662  0.0938 -0.0028 -0.0535
 1703TIP3   OH226667   3.964   3.958   6.881  0.1433  0.1050 -0.2475
 1703TIP3    H126668   3.909   3.956   6.959  0.1165  0.8719 -0.2525
 1703TIP3    H226669   4.047   3.995   6.910 -0.6640  2.6358 -1.1047
 1704TIP3   OH226670   6.164   0.748   8.116  0.0445 -0.2692 -0.1628
 1704TIP3    H126671   6.200   0.659   8.114  2.1950  0.5477  0.1212
 1704TIP3    H226672   6.170   0.779   8.025  3.0560  0.9468  0.3632
 1705TIP3   OH226673   6.254   4.194   6.316  0.4493 -0.1852 -0.0119
 1705TIP3    H126674   6.293   4.273   6.356  1.3327 -0.2804 -0.6726
 1705TIP3    H226675   6.216   4.225   6.234  0.2875 -0.3429  0.0034
 1706TIP3   OH226676   0.976   1.106   8.203 -0.7541  0.1593 -0.0440
 1706TIP3    H126677   1.040   1.044   8.237 -0.0166  0.1213 -1.4986
 1706TIP3    H226678   1.000   1.189   8.244 -0.0342  0.0585 -0.2509
 1707TIP3   OH226679   6.527   0.411   0.668  0.1950  0.1833 -0.4252
 1707TIP3    H126680   6.440   0.375   0.652  0.5570 -0.8831  0.0273
 1707TIP3    H226681   6.564   0.423   0.580 -0.6364  1.2304 -0.6463
 1708TIP3   OH226682   7.111   2.488   6.963  0.0278 -0.2287  0.3053
 1708TIP3    H126683   7.205   2.480   6.949 -0.0742 -0.3173 -0.3484
 1708TIP3    H226684   7.098   2.465   7.055  0.5859 -0.6493  0.2809
 1709TIP3   OH226685   6.665   0.961   6.649 -0.5057  0.3737  0.5894
 1709TIP3    H126686   6.725   0.958   6.574 -1.7349  2.4240 -0.5064
 1709TIP3    H226687   6.703   1.026   6.707 -1.3541  1.2554  0.1635
 1710TIP3   OH226688   6.673   7.188   6.169 -0.9724 -0.3631  0.6364
 1710TIP3    H126689   6.681   7.099   6.134 -0.3116  0.7343 -2.1374
 1710TIP3    H226690   6.741   7.238   6.124 -1.2165  1.5251  2.2875
 1711TIP3   OH226691   0.440   2.796   6.885  0.2708  0.6873 -0.0034
 1711TIP3    H126692   0.409   2.852   6.814 -1.4658 -0.5823 -0.2822
 1711TIP3    H226693   0.523   2.760   6.854  0.5704  1.8039 -0.5059
 1712TIP3   OH226694   0.362   1.195   7.444  0.2603  0.4169 -0.1214
 1712TIP3    H126695   0.302   1.185   7.370 -0.7813 -1.7280  0.9615
 1712TIP3    H226696   0.421   1.120   7.436  1.3514  1.2350  0.1467
 1713TIP3   OH226697   5.679   3.061   6.359 -0.2464  0.3279  0.1347
 1713TIP3    H126698   5.722   3.074   6.443 -1.4548 -0.5641  0.9063
 1713TIP3    H226699   5.737   3.003   6.310  0.0307  0.1319  0.6950
 1714TIP3   OH226700   0.067   0.252   8.120 -0.1488 -0.3165  0.4721
 1714TIP3    H126701   0.040   0.343   8.132  1.1200 -0.0090  0.9878
 1714TIP3    H226702   0.102   0.225   8.205  1.1702 -0.7129 -0.1843
 1715TIP3   OH226703   1.366   3.205   6.793  0.5802  0.5453  0.0476
 1715TIP3    H126704   1.400   3.167   6.712 -0.2740 -1.2320  0.4919
 1715TIP3    H226705   1.322   3.132   6.837  0.3691  1.6660  1.7463
 1716TIP3   OH226706   0.762   2.589   7.139 -0.4240 -0.1379 -0.6836
 1716TIP3    H126707   0.762   2.556   7.229  0.8998  0.4664 -0.4519
 1716TIP3    H226708   0.756   2.684   7.149  0.9807  0.0113 -1.1937
 1717TIP3   OH226709   0.483   5.466   7.020 -0.4310  0.0338 -0.5002
 1717TIP3    H126710   0.570   5.493   6.991 -0.7650  0.5163 -1.0694
 1717TIP3    H226711   0.423   5.519   6.968 -1.1245 -1.9814 -1.8061
 1718TIP3   OH226712   7.291   1.879   2.126  0.2997 -0.4286  0.2107
 1718TIP3    H126713   7.370   1.836   2.159  0.2873  0.3182  1.2202
 1718TIP3    H226714   7.236   1.891   2.203  0.3348  1.4799 -0.0347
 1719TIP3   OH226715   5.604   7.226   8.067 -0.0080 -0.0817  0.0877
 1719TIP3    H126716   5.540   7.288   8.033 -0.2303  0.7887  2.0445
 1719TIP3    H226717   5.559   7.141   8.066 -0.5530  0.2100 -0.2641
 1720TIP3   OH226718   5.976   1.193   7.927  0.1847 -0.0907  0.0006
 1720TIP3    H126719   5.965   1.284   7.955  0.2152 -0.5040  1.3920
 1720TIP3    H226720   6.008   1.148   8.005 -0.3816 -1.4148 -0.5218
 1721TIP3   OH226721   4.918   1.857   7.065 -0.0960  0.2391 -0.1499
 1721TIP3    H126722   4.916   1.763   7.083  1.6736 -0.2733 -2.4265
 1721TIP3    H226723   5.002   1.886   7.101  0.0350  0.6404 -0.7639
 1722TIP3   OH226724   5.173   3.470   7.031 -0.0317 -0.2545  0.6762
 1722TIP3    H126725   5.201   3.547   6.983 -0.6718 -0.6236 -0.3148
 1722TIP3    H226726   5.226   3.399   6.996 -0.6902 -0.5744  0.3106
 1723TIP3   OH226727   5.958   5.400   7.589 -0.1796  0.0432 -0.1099
 1723TIP3    H126728   5.989   5.353   7.666 -0.6339 -1.5327 -0.8767
 1723TIP3    H226729   5.991   5.350   7.515  0.0236  1.3963 -0.9547
 1724TIP3   OH226730   5.755   1.504   6.616 -0.4287 -0.5312 -0.2476
 1724TIP3    H126731   5.843   1.486   6.584  0.4004  0.4358  1.4058
 1724TIP3    H226732   5.743   1.445   6.690 -1.6350 -1.4935 -1.1964
 1725TIP3   OH226733   1.594   2.733   7.852  0.0694 -0.5558  0.5040
 1725TIP3    H126734   1.664   2.766   7.910 -1.1238 -1.2274  2.3881
 1725TIP3    H226735   1.586   2.641   7.876 -0.1146 -0.9722 -1.1201
 1726TIP3   OH226736   0.301   2.007   6.828 -0.2063  0.1708 -0.1294
 1726TIP3    H126737   0.358   2.057   6.887  0.5063  0.5670 -1.1387
 1726TIP3    H226738   0.322   2.041   6.740 -0.8986 -0.7598 -0.6601
 1727TIP3   OH226739   0.027   1.134   6.697 -0.0968  0.0883  0.0617
 1727TIP3    H126740  -0.007   1.134   6.608  0.6119  2.4655 -0.2587
 1727TIP3    H226741   0.006   1.221   6.730 -2.5400 -1.5823  3.1102
 1728TIP3   OH226742   0.788   3.517   6.125 -0.2850 -0.0454  0.1651
 1728TIP3    H126743   0.716   3.559   6.172 -2.2195 -0.3220 -2.3660
 1728TIP3    H226744   0.749   3.436   6.091  2.9666 -3.3224  3.7723
 1729TIP3   OH226745   1.239   2.846   0.771  0.0196  0.0376 -0.7373
 1729TIP3    H126746   1.221   2.940   0.762 -1.3247  0.0104  1.2839
 1729TIP3    H226747   1.330   2.836   0.743  0.0566  1.8884 -1.3421
 1730TIP3   OH226748   1.820   3.224   7.285 -0.0110  0.2184 -0.3717
 1730TIP3    H126749   1.803   3.299   7.229 -3.5564  0.9639  1.5166
 1730TIP3    H226750   1.790   3.252   7.372  0.7234 -2.5832  0.8543
 1731TIP3   OH226751   6.582   0.476   6.821  0.8614 -0.0582  0.0567
 1731TIP3    H126752   6.564   0.411   6.889  1.9501 -0.4105  0.0153
 1731TIP3    H226753   6.512   0.540   6.831  0.7282 -0.3620  1.1940
 1732TIP3   OH226754   0.322   4.148   6.524 -0.0740 -0.0400  0.6281
 1732TIP3    H126755   0.293   4.058   6.540  1.0002 -0.2751  1.3182
 1732TIP3    H226756   0.352   4.147   6.433 -1.4430 -0.0084  0.1813
 1733TIP3   OH226757   5.913   1.071   6.668  0.3192  0.1112 -0.1555
 1733TIP3    H126758   5.981   1.114   6.616  0.9560 -1.7010 -0.8740
 1733TIP3    H226759   5.951   0.987   6.692 -0.6828  0.1754  1.7160
 1734TIP3   OH226760   4.265   1.856   7.309 -0.3494 -0.0517  0.4834
 1734TIP3    H126761   4.229   1.802   7.379  0.6271 -0.0146  1.0145
 1734TIP3    H226762   4.346   1.811   7.284 -0.5877  0.0424 -0.4867
 1735TIP3   OH226763   6.644   2.289   6.982  0.2423  0.4944  0.2094
 1735TIP3    H126764   6.653   2.384   6.971  0.1851  0.5603  0.6978
 1735TIP3    H226765   6.680   2.252   6.902 -1.5379  1.0001 -0.8449
 1736TIP3   OH226766   7.272   5.262   7.103 -0.0848  0.1829  0.2647
 1736TIP3    H126767   7.340   5.276   7.169 -1.5235 -0.5435  1.9829
 1736TIP3    H226768   7.277   5.168   7.084 -1.0129  0.0028  0.8831
 1737TIP3   OH226769   5.339   7.256   0.086  0.0569 -0.1096 -0.4032
 1737TIP3    H126770   5.413   7.225   0.138 -0.4678 -0.1943  0.2996
 1737TIP3    H226771   5.350   7.214   0.001  0.5638 -0.4937 -0.1501
 1738TIP3   OH226772   4.820   5.845   6.887  0.7188 -0.1787 -0.2599
 1738TIP3    H126773   4.885   5.894   6.937  0.2061 -0.1426  0.3752
 1738TIP3    H226774   4.844   5.753   6.900 -0.4005 -0.2628  1.4626
 1739TIP3   OH226775   5.543   4.762   7.491 -0.0588  0.1248  0.0538
 1739TIP3    H126776   5.568   4.852   7.513 -0.0192  0.5437 -1.6701
 1739TIP3    H226777   5.606   4.736   7.424 -2.1114 -0.0145 -1.8549
 1740TIP3   OH226778   0.993   5.202   0.424  0.4824 -0.3409 -0.4370
 1740TIP3    H126779   1.054   5.253   0.478  0.4290 -0.4001 -0.3202
 1740TIP3    H226780   0.990   5.116   0.466 -0.4092 -0.0519  0.1150
 1741TIP3   OH226781   4.227   5.114   6.827  0.1453 -0.3433  0.6388
 1741TIP3    H126782   4.302   5.131   6.884  1.9547  0.0343 -1.8019
 1741TIP3    H226783   4.265   5.086   6.744 -2.4300 -0.4620 -0.5553
 1742TIP3   OH226784   0.117   3.905   8.487  0.2192 -0.2035 -0.3366
 1742TIP3    H126785   0.123   3.948   8.572  2.3466 -3.3294  1.2252
 1742TIP3    H226786   0.042   3.845   8.495  1.3789 -1.6569 -0.0362
 1743TIP3   OH226787   7.302   3.803   6.160 -0.0450  0.7785 -0.0858
 1743TIP3    H126788   7.234   3.818   6.094 -0.1391  0.9041  0.0405
 1743TIP3    H226789   7.343   3.889   6.172  0.2529  0.6678 -0.2917
 1744TIP3   OH226790   6.413   2.158   6.966 -0.7666 -0.1481  0.1336
 1744TIP3    H126791   6.491   2.207   6.992 -0.4059 -0.2491 -0.7473
 1744TIP3    H226792   6.357   2.223   6.925 -1.1076 -0.0947  0.6834
 1745TIP3   OH226793   7.221   1.998   7.412  0.2040  0.0365  0.6988
 1745TIP3    H126794   7.128   2.012   7.428 -0.0232  1.0877 -1.3866
 1745TIP3    H226795   7.260   2.084   7.423  0.8408 -0.2816  0.9512
 1746TIP3   OH226796   1.322   3.448   7.208  0.6020 -1.1402  0.2080
 1746TIP3    H126797   1.394   3.485   7.157 -0.2207  0.9304  0.5028
 1746TIP3    H226798   1.256   3.517   7.210 -1.0858 -2.7225  0.5918
 1747TIP3   OH226799   3.235   5.658   7.330  0.1288  0.2481  0.2877
 1747TIP3    H126800   3.239   5.608   7.248  1.8952 -0.5830  0.8429
 1747TIP3    H226801   3.161   5.717   7.318 -0.5601 -0.8756 -1.3271
 1748TIP3   OH226802   3.755   4.117   6.378 -0.1036 -0.1426 -0.1123
 1748TIP3    H126803   3.762   4.093   6.285  0.8768  0.4187 -0.1957
 1748TIP3    H226804   3.744   4.212   6.377 -1.8146 -0.3200  0.2924
 1749TIP3   OH226805   0.484   3.611   0.006 -0.5989  0.1758 -0.3703
 1749TIP3    H126806   0.448   3.692  -0.031  0.8143  1.0788  0.1705
 1749TIP3    H226807   0.561   3.593  -0.048 -1.2520 -1.1579 -0.8728
 1750TIP3   OH226808   6.796   0.100   8.411 -0.1391 -0.5151  0.5258
 1750TIP3    H126809   6.875   0.083   8.359  0.8109  1.7364  1.1722
 1750TIP3    H226810   6.739   0.025   8.393  0.0734  0.2824 -3.9258
 1751TIP3   OH226811   6.844   1.467   7.638  0.6301 -0.3503  0.5234
 1751TIP3    H126812   6.812   1.414   7.711  0.4827 -0.9551  0.0238
 1751TIP3    H226813   6.935   1.440   7.626  0.5739 -0.4502  0.3079
 1752TIP3   OH226814   5.037   0.979   6.915 -0.1617  0.1084 -0.0144
 1752TIP3    H126815   5.098   1.003   6.985 -0.7875 -0.8469  0.8813
 1752TIP3    H226816   5.091   0.976   6.836  0.8120 -0.0260  0.6410
 1753TIP3   OH226817   6.150   2.974   6.911 -0.0262  0.9425  0.3392
 1753TIP3    H126818   6.089   2.952   6.981  1.9229 -0.2209  1.7249
 1753TIP3    H226819   6.130   2.912   6.841 -0.9223  1.0586  0.4915
 1754TIP3   OH226820   6.174   2.319   6.212  0.2472  0.1080  0.2490
 1754TIP3    H126821   6.183   2.347   6.121  1.1598  0.9061  0.5780
 1754TIP3    H226822   6.194   2.225   6.210 -0.3088 -0.0035 -0.4577
 1755TIP3   OH226823   7.003   1.697   7.431  0.5033  0.2103  0.0957
 1755TIP3    H126824   6.982   1.719   7.522  1.0651  1.5810 -0.0952
 1755TIP3    H226825   6.962   1.612   7.417 -0.8825  0.6939  1.1589
 1756TIP3   OH226826   5.940   2.570   6.660  0.3474 -0.4248 -0.2306
 1756TIP3    H126827   5.958   2.502   6.724  0.6840  0.0993  0.2384
 1756TIP3    H226828   5.865   2.537   6.611  0.1292 -0.8630  0.3842
 1757TIP3   OH226829   4.002   0.639   7.789  0.1464 -0.1985  0.5081
 1757TIP3    H126830   3.948   0.701   7.838 -1.4688 -0.4258 -0.9095
 1757TIP3    H226831   3.953   0.557   7.791  0.1629 -0.2866 -1.2040
 1758TIP3   OH226832   6.462   0.640   7.253 -0.3375  0.4291  0.4205
 1758TIP3    H126833   6.416   0.607   7.176  0.1784 -0.5911  0.5524
 1758TIP3    H226834   6.431   0.586   7.325 -1.5295  1.9846  1.1121
 1759TIP3   OH226835   0.351   2.171   7.985 -0.1521 -0.0486 -0.2425
 1759TIP3    H126836   0.283   2.182   7.918 -0.0983 -0.9639 -0.4595
 1759TIP3    H226837   0.337   2.082   8.018  0.1299  0.2284  0.6212
 1760TIP3   OH226838   1.913   3.871   7.922 -0.4676  0.3197  0.0717
 1760TIP3    H126839   1.987   3.815   7.945 -1.3888 -0.7263  0.5635
 1760TIP3    H226840   1.877   3.832   7.843 -0.8867  0.4244  0.2086
 1761TIP3   OH226841   2.245   4.387   6.711 -0.4565 -0.1329  0.0638
 1761TIP3    H126842   2.265   4.472   6.749 -1.5627  0.6140 -0.9839
 1761TIP3    H226843   2.160   4.399   6.669  0.9082 -0.7910 -3.0117
 1762TIP3   OH226844   0.939   2.488   7.618  0.0838  0.1180  0.3563
 1762TIP3    H126845   1.017   2.436   7.597  0.9641  0.5219  2.5009
 1762TIP3    H226846   0.875   2.423   7.646  0.1054 -0.0924 -0.0724
 1763TIP3   OH226847   7.016   5.612   0.007  0.7979 -0.6372  0.0116
 1763TIP3    H126848   7.011   5.523  -0.028  1.7532 -1.0950  1.0086
 1763TIP3    H226849   7.079   5.657  -0.049  0.3371 -0.5888 -0.4741
 1764TIP3   OH226850   0.580   2.566   1.107 -0.3946  0.0350 -0.0223
 1764TIP3    H126851   0.631   2.638   1.071  1.2124 -0.3030  1.4915
 1764TIP3    H226852   0.490   2.582   1.077  0.3497  1.3998 -1.5674
 1765TIP3   OH226853   1.617   5.531   7.728  0.2924  0.8531 -0.1941
 1765TIP3    H126854   1.612   5.626   7.719  3.7571  1.0767 -0.3982
 1765TIP3    H226855   1.646   5.500   7.642 -2.3209 -0.6133 -0.6264
 1766TIP3   OH226856   0.072   5.452   8.163 -0.5819 -0.6413  0.0341
 1766TIP3    H126857   0.114   5.413   8.086 -0.9176  1.5338 -1.2880
 1766TIP3    H226858   0.133   5.437   8.235  0.9673 -0.3723 -1.2037
 1767TIP3   OH226859   7.147   4.800   6.551  0.1947  0.5626  0.5834
 1767TIP3    H126860   7.200   4.878   6.566  0.8070  0.7110 -2.0236
 1767TIP3    H226861   7.197   4.750   6.486 -1.1427 -1.0272  0.7504
 1768TIP3   OH226862   0.934   3.835   6.246  0.2465 -0.2000 -0.0923
 1768TIP3    H126863   0.943   3.930   6.243  2.8216 -0.3579  1.8515
 1768TIP3    H226864   0.839   3.820   6.253 -0.0598  2.2704  1.3992
 1769TIP3   OH226865   0.067   3.484   1.336  0.1432 -0.8490 -0.1572
 1769TIP3    H126866   0.092   3.395   1.313  1.5363 -1.1751  2.4410
 1769TIP3    H226867   0.035   3.477   1.426 -1.3000  1.0145 -0.5008
 1770TIP3   OH226868   0.453   5.207   6.630 -0.2384 -0.5294 -0.0993
 1770TIP3    H126869   0.523   5.269   6.610  0.5149 -1.9040 -1.8438
 1770TIP3    H226870   0.374   5.246   6.592 -0.0362  0.0201  0.0404
 1771TIP3   OH226871   0.742   5.538   6.958  0.3201 -0.0285  0.6531
 1771TIP3    H126872   0.726   5.627   6.992 -2.5214  0.4788 -1.8210
 1771TIP3    H226873   0.790   5.553   6.876 -1.0503 -0.6571 -0.2907
 1772TIP3   OH226874   0.618   4.887   1.553 -0.0693 -0.0045 -0.0382
 1772TIP3    H126875   0.671   4.919   1.481 -0.4550 -2.0237 -1.2502
 1772TIP3    H226876   0.676   4.891   1.629  1.0327  0.0584 -0.8715
 1773TIP3   OH226877   3.952   3.702   0.437  0.2507 -0.1157  0.4942
 1773TIP3    H126878   4.029   3.753   0.461  0.0490  0.2222  0.4211
 1773TIP3    H226879   3.895   3.764   0.391 -0.0743 -0.3568  0.5706
 1774TIP3   OH226880   6.670   5.476   0.018  0.0006  0.6972 -0.1090
 1774TIP3    H126881   6.756   5.471  -0.024 -0.9079  0.3715 -1.9697
 1774TIP3    H226882   6.627   5.550  -0.024 -1.0408  0.1838  0.0348
 1775TIP3   OH226883   1.499   5.504   6.995  0.3625  0.3857  0.4730
 1775TIP3    H126884   1.561   5.548   6.937  1.8670  1.8462  3.1040
 1775TIP3    H226885   1.462   5.434   6.942  2.4855  1.0101 -1.9027
 1776TIP3   OH226886   2.572   3.956   6.854 -0.3733 -0.1031  0.0223
 1776TIP3    H126887   2.593   4.047   6.837  1.8902 -0.5384  0.3282
 1776TIP3    H226888   2.486   3.958   6.895 -1.7017  1.6507 -2.7190
 1777TIP3   OH226889   0.138   4.837   0.448 -0.5034 -0.3585 -0.1815
 1777TIP3    H126890   0.162   4.911   0.394 -0.1815 -0.9399 -0.8402
 1777TIP3    H226891   0.220   4.808   0.488 -0.6569 -0.2411  0.2218
 1778TIP3   OH226892   2.381   4.690   8.192  0.0303  0.0729  0.3826
 1778TIP3    H126893   2.447   4.696   8.123  1.2231 -0.8977  1.4197
 1778TIP3    H226894   2.359   4.597   8.195 -0.0566  0.1207  1.2747
 1779TIP3   OH226895   0.507   4.260   6.914 -0.0529 -0.0366  0.1701
 1779TIP3    H126896   0.574   4.267   6.846  0.7130 -0.0908  0.9131
 1779TIP3    H226897   0.540   4.314   6.986 -1.0545  0.3547  0.3475
 1780TIP3   OH226898   1.150   3.134   7.340  0.2468 -0.4369  0.0168
 1780TIP3    H126899   1.229   3.101   7.297  0.1737 -0.7680  0.1360
 1780TIP3    H226900   1.109   3.190   7.274  1.2591  0.7800  0.4013
 1781TIP3   OH226901   0.829   4.167   6.942 -0.4195  0.0980 -0.1718
 1781TIP3    H126902   0.906   4.185   6.888 -0.9296 -0.6325 -1.1681
 1781TIP3    H226903   0.856   4.096   7.000 -0.0037  0.5911  0.2435
 1782TIP3   OH226904   1.824   5.412   6.505 -0.5656 -0.9000 -0.9620
 1782TIP3    H126905   1.846   5.496   6.544  0.8963  0.1134 -3.8262
 1782TIP3    H226906   1.777   5.365   6.574 -0.0488  1.6418  1.1996
 1783TIP3   OH226907   6.714   6.074   7.775 -0.4885 -0.1479 -0.4483
 1783TIP3    H126908   6.797   6.062   7.822 -0.2337  0.2182 -0.8065
 1783TIP3    H226909   6.659   6.124   7.836 -0.5558 -0.6448 -0.0922
 1784TIP3   OH226910   4.109   4.035   7.887  0.2011 -0.2888  0.4443
 1784TIP3    H126911   4.157   3.971   7.835 -0.2377 -1.6750  1.7149
 1784TIP3    H226912   4.120   4.118   7.840  1.7139 -1.0775 -0.6092
 1785TIP3   OH226913   0.593   4.229   6.332 -0.0517 -0.4070  0.3062
 1785TIP3    H126914   0.545   4.290   6.389  0.8634  0.8452 -0.2391
 1785TIP3    H226915   0.555   4.243   6.245 -0.7201 -1.5595  0.4006
 1786TIP3   OH226916   1.866   4.158   0.031  0.0262 -0.0305  0.7692
 1786TIP3    H126917   1.870   4.205   0.115  1.8057  1.0280  0.1206
 1786TIP3    H226918   1.862   4.226  -0.035 -1.5234 -0.8685 -0.0343
 1787TIP3   OH226919   0.110   5.676   6.169 -0.0829 -0.0025  0.1731
 1787TIP3    H126920   0.102   5.691   6.075  0.2506  0.7871  0.2623
 1787TIP3    H226921   0.021   5.680   6.202 -0.1096  0.7234  0.0261
 1788TIP3   OH226922   2.182   5.422   1.428 -0.2546  0.7728 -0.1794
 1788TIP3    H126923   2.110   5.408   1.489 -1.5074 -1.3207 -2.0376
 1788TIP3    H226924   2.258   5.385   1.471 -1.2315 -1.1645 -0.0534
 1789TIP3   OH226925   0.655   6.368   7.232  0.2771 -0.0912 -0.2580
 1789TIP3    H126926   0.679   6.454   7.266 -0.0366  0.5212 -1.5382
 1789TIP3    H226927   0.693   6.366   7.143  0.6300 -1.4305 -0.0957
 1790TIP3   OH226928   1.043   4.838   6.587 -0.6016  0.1119  0.5438
 1790TIP3    H126929   1.064   4.919   6.540  0.2672 -0.6661 -0.3987
 1790TIP3    H226930   0.947   4.839   6.593 -0.6006  1.1767  0.4769
 1791TIP3   OH226931   0.455   4.068   6.038  0.0278 -0.1090 -0.3900
 1791TIP3    H126932   0.487   3.988   5.995 -2.1251 -0.6601 -1.0027
 1791TIP3    H226933   0.433   4.039   6.127  1.4852  0.3429  0.1336
 1792TIP3   OH226934   2.830   3.950   6.795  0.1090  0.0819 -0.5990
 1792TIP3    H126935   2.754   3.942   6.852  0.1975 -2.1755 -0.7124
 1792TIP3    H226936   2.897   3.990   6.849 -0.1365 -1.0393  0.5791
 1793TIP3   OH226937   2.972   5.380   6.552  0.0920  0.1361 -0.2167
 1793TIP3    H126938   3.056   5.399   6.512 -0.4689 -0.2448 -1.5823
 1793TIP3    H226939   2.909   5.433   6.503 -0.7867 -1.3731 -0.7752
 1794TIP3   OH226940   2.423   3.664   7.931  0.4241  0.4015  0.4156
 1794TIP3    H126941   2.364   3.733   7.964  0.5227  0.4367  0.5196
 1794TIP3    H226942   2.376   3.582   7.949  0.8799  0.3684  1.4933
 1795TIP3   OH226943   1.302   4.122   8.322  0.1065  0.1771 -0.5764
 1795TIP3    H126944   1.242   4.047   8.319  2.0330 -1.5102  1.4231
 1795TIP3    H226945   1.383   4.088   8.284  1.8354  0.3941  2.7472
 1796TIP3   OH226946   0.399   3.248   7.479 -0.5134  0.3944  0.3919
 1796TIP3    H126947   0.450   3.327   7.462 -2.1491  1.4375  0.3276
 1796TIP3    H226948   0.387   3.248   7.574  1.1172 -0.8059  0.6208
 1797TIP3   OH226949   0.529   4.424   7.232 -0.5405  0.0630 -0.0612
 1797TIP3    H126950   0.619   4.432   7.202 -0.8527 -0.8086 -1.2648
 1797TIP3    H226951   0.481   4.490   7.183 -0.7965 -0.3853 -0.4179
 1798TIP3   OH226952   1.565   3.812   0.151 -0.7417  0.6848  0.3558
 1798TIP3    H126953   1.522   3.895   0.172  0.1492  2.1012 -3.0313
 1798TIP3    H226954   1.657   3.836   0.138 -0.4403 -0.8725 -0.4793
 1799TIP3   OH226955   2.204   2.375   8.055 -0.0489 -0.3956 -0.4225
 1799TIP3    H126956   2.113   2.351   8.037  0.3511 -0.3485 -2.5815
 1799TIP3    H226957   2.208   2.469   8.034  0.4856 -0.3777 -0.2417
 1800TIP3   OH226958   2.305   4.725   6.652 -0.4444 -0.6256  0.1147
 1800TIP3    H126959   2.287   4.810   6.611  0.7023  0.4223  1.7632
 1800TIP3    H226960   2.391   4.700   6.619  0.7862  0.5451  2.3808
 1801TIP3   OH226961   0.656   3.864   6.163 -0.4156  0.1157  0.2882
 1801TIP3    H126962   0.610   3.816   6.094 -1.3829  1.0632  0.2605
 1801TIP3    H226963   0.709   3.929   6.117  1.1900 -1.1563  0.3083
 1802TIP3   OH226964   1.068   6.496   7.851 -0.0577 -0.2543 -0.0816
 1802TIP3    H126965   1.123   6.501   7.772  0.6598 -2.0434  0.2944
 1802TIP3    H226966   1.061   6.587   7.880  3.1216 -0.0002  0.1165
 1803TIP3   OH226967   0.753   5.792   7.020 -0.0763  0.0226  0.1200
 1803TIP3    H126968   0.762   5.872   6.968  0.9641  0.6155  1.1924
 1803TIP3    H226969   0.840   5.752   7.015 -0.3844 -0.6576  0.2208
 1804TIP3   OH226970   0.381   3.052   7.100 -0.0447  0.4316 -0.8627
 1804TIP3    H126971   0.310   3.098   7.145  0.2592  0.4171 -0.3644
 1804TIP3    H226972   0.380   3.087   7.011 -0.7319  0.3682 -0.8802
 1805TIP3   OH226973   6.841   0.418   6.804  0.8383  0.4733  0.7306
 1805TIP3    H126974   6.877   0.507   6.799 -0.1494  0.7482 -2.2969
 1805TIP3    H226975   6.748   0.431   6.822  0.7187  0.0582  0.4238
 1806TIP3   OH226976   0.801   3.069   7.532  0.4168 -0.0993  0.3989
 1806TIP3    H126977   0.843   3.001   7.480  0.7052 -0.0318  0.5424
 1806TIP3    H226978   0.834   3.055   7.621  0.2886  0.0779  0.4757
 1807TIP3   OH226979   2.137   6.862   6.054 -0.4012  0.0886 -0.2160
 1807TIP3    H126980   2.224   6.896   6.034 -0.9731  0.5023 -2.0245
 1807TIP3    H226981   2.094   6.933   6.102 -0.7735  1.0602 -1.9498
 1808TIP3   OH226982   0.552   5.609   8.443  0.1369 -0.4494 -0.2123
 1808TIP3    H126983   0.556   5.705   8.435 -1.7430 -0.4557 -1.6617
 1808TIP3    H226984   0.499   5.595   8.521 -0.0049 -0.2981 -0.2804
 1809TIP3   OH226985   2.300   4.249   7.308  0.2597 -0.1237  0.4821
 1809TIP3    H126986   2.266   4.307   7.239 -0.0301 -2.6575 -1.6102
 1809TIP3    H226987   2.244   4.266   7.383 -2.5885 -0.7079 -1.4214
 1810TIP3   OH226988   0.534   4.089   7.354 -0.3530  0.5384  0.3344
 1810TIP3    H126989   0.577   4.172   7.335  0.3968  0.5075  1.8322
 1810TIP3    H226990   0.450   4.094   7.308  0.3296  1.4907 -0.8331
 1811TIP3   OH226991   3.342   3.727   7.305 -1.0255 -0.2568 -0.5025
 1811TIP3    H126992   3.371   3.719   7.214  0.5587  1.3347 -0.1581
 1811TIP3    H226993   3.404   3.674   7.355 -0.9482  0.1362 -0.1799
 1812TIP3   OH226994   0.512   5.166   6.877 -0.7815 -0.4837 -0.1485
 1812TIP3    H126995   0.432   5.184   6.927 -1.3004 -1.5011 -0.5894
 1812TIP3    H226996   0.483   5.160   6.786 -0.2663 -1.2213 -0.2672
 1813TIP3   OH226997   1.148   5.951   6.217 -0.5237  0.3462 -0.1185
 1813TIP3    H126998   1.200   5.878   6.183 -2.8340 -1.7857  0.7569
 1813TIP3    H226999   1.058   5.926   6.199 -1.3988  2.6599  0.8923
 1814TIP3   OH227000   0.683   3.289   0.559  0.0261 -0.3919 -0.2317
 1814TIP3    H127001   0.631   3.223   0.514 -2.0865  0.3326  1.1248
 1814TIP3    H227002   0.627   3.366   0.562  0.9860  0.2512  1.6881
 1815TIP3   OH227003   0.169   4.399   6.308  0.6121 -0.0882  0.1323
 1815TIP3    H127004   0.120   4.366   6.232  0.3462 -1.0651  0.7094
 1815TIP3    H227005   0.150   4.492   6.310 -0.8717 -0.3819  0.0818
 1816TIP3   OH227006   1.815   3.518   0.800 -0.4627  0.0443  0.2287
 1816TIP3    H127007   1.768   3.441   0.830 -0.0934 -0.3413 -0.1663
 1816TIP3    H227008   1.898   3.517   0.849 -1.2300  1.2120  1.5790
 1817TIP3   OH227009   0.649   2.927   0.804 -0.1628  0.6617 -0.1214
 1817TIP3    H127010   0.596   2.954   0.879  1.9216  1.6830  1.0117
 1817TIP3    H227011   0.708   3.001   0.788  1.6172 -0.8529 -0.7370
 1818TIP3   OH227012   1.907   4.338   6.637 -0.3737  0.0681 -0.0818
 1818TIP3    H127013   1.919   4.335   6.542  0.0901 -2.1587  0.0085
 1818TIP3    H227014   1.883   4.428   6.656 -0.1957  0.5992 -2.2884
 1819TIP3   OH227015   2.773   3.571   0.960 -0.0008  0.3568  0.2761
 1819TIP3    H127016   2.773   3.500   1.024  1.6461 -0.0294 -0.1514
 1819TIP3    H227017   2.854   3.561   0.911 -0.5019  1.5850 -0.8545
 1820TIP3   OH227018   1.145   4.126   6.515 -0.1755 -0.1077 -0.2032
 1820TIP3    H127019   1.059   4.086   6.500  0.3538 -1.3435 -0.0336
 1820TIP3    H227020   1.204   4.079   6.456  0.6114 -0.1337  0.5943
 1821TIP3   OH227021   0.797   4.376   7.129 -0.6498  0.3887 -0.0095
 1821TIP3    H127022   0.840   4.322   7.063  0.8812 -1.3639  2.3702
 1821TIP3    H227023   0.837   4.351   7.212 -2.0615  3.0112  1.5546
 1822TIP3   OH227024   1.984   3.261   0.542 -0.3109  0.3890  0.0444
 1822TIP3    H127025   2.063   3.263   0.488  0.0393  1.3757  0.5795
 1822TIP3    H227026   1.977   3.350   0.577 -0.4296 -0.2969  1.7701
 1823TIP3   OH227027   7.232   4.436   7.000  0.2478  0.0878  0.3562
 1823TIP3    H127028   7.300   4.431   6.932  1.9119  1.1262  1.8974
 1823TIP3    H227029   7.187   4.352   6.994  0.1191  0.2817 -2.2581
 1824TIP3   OH227030   0.648   5.869   7.291 -0.2591  0.0007 -0.3689
 1824TIP3    H127031   0.655   5.779   7.322  0.6041  0.1382 -0.1595
 1824TIP3    H227032   0.693   5.868   7.206  1.5743  0.6945  0.5808
 1825TIP3   OH227033   0.714   4.966   8.110  0.1435 -0.8268  0.0655
 1825TIP3    H127034   0.802   4.936   8.134  0.6557  1.1059  0.7437
 1825TIP3    H227035   0.682   4.901   8.049  1.7090 -2.0334  0.4975
 1826TIP3   OH227036   1.458   4.708   7.165 -0.1152  0.2987 -0.0378
 1826TIP3    H127037   1.530   4.721   7.103  0.3478 -1.5891  0.0696
 1826TIP3    H227038   1.428   4.796   7.186  1.0069  1.0318 -1.4492
 1827TIP3   OH227039   0.030   4.011   6.443 -0.3439 -0.1948  0.0204
 1827TIP3    H127040  -0.060   3.982   6.433 -0.9852  1.9643 -0.7688
 1827TIP3    H227041   0.062   4.022   6.353 -0.2431  1.8243  0.2830
 1828TIP3   OH227042   1.079   4.395   6.832 -0.0425 -0.1560  0.1058
 1828TIP3    H127043   1.103   4.448   6.908 -0.9287  1.2496 -0.5806
 1828TIP3    H227044   1.087   4.454   6.757 -0.2106 -1.2228 -0.7746
 1829TIP3   OH227045   1.088   4.257   7.555  0.2077  0.4520 -0.1720
 1829TIP3    H127046   1.151   4.222   7.492 -0.1969 -0.0054 -0.3233
 1829TIP3    H227047   1.101   4.204   7.634 -1.7550 -1.3747 -1.0263
 1830TIP3   OH227048   1.124   4.180   7.012  0.1935 -0.8534 -0.3725
 1830TIP3    H127049   1.201   4.124   7.026  1.1179  0.9116  1.9662
 1830TIP3    H227050   1.156   4.253   6.959  0.2152 -0.0055  0.7853
 1831TIP3   OH227051   0.066   7.221   0.461  0.2270 -0.2746  0.2688
 1831TIP3    H127052  -0.003   7.233   0.396  1.5374 -1.0369 -1.2915
 1831TIP3    H227053   0.125   7.158   0.421  2.6027  1.4632  0.9717
 1832TIP3   OH227054   5.906   4.440   6.530 -0.9429  0.0683 -0.0658
 1832TIP3    H127055   5.989   4.468   6.492 -0.1802 -0.4925  1.1463
 1832TIP3    H227056   5.910   4.471   6.621 -1.2626 -1.5353  0.5142
 1833TIP3   OH227057   1.753   3.750   6.992 -0.2009 -0.2797 -0.4945
 1833TIP3    H127058   1.718   3.749   6.903  0.8008  0.0122 -0.8927
 1833TIP3    H227059   1.816   3.678   6.994  1.1203  0.8682 -0.5617
 1834TIP3   OH227060   6.997   5.798   7.252 -0.1920 -0.2086  0.4002
 1834TIP3    H127061   7.036   5.759   7.330 -0.8022 -0.0729  0.7772
 1834TIP3    H227062   7.060   5.865   7.225  0.3562 -0.7343  0.3657
 1835TIP3   OH227063   0.901   3.429   7.148 -0.3681  0.7917 -0.9483
 1835TIP3    H127064   0.844   3.497   7.184 -1.8167 -0.8387 -0.1057
 1835TIP3    H227065   0.844   3.354   7.135  1.2812 -0.3828 -1.5587
 1836TIP3   OH227066   2.591   4.679   6.636  0.6837  0.1599  0.1748
 1836TIP3    H127067   2.609   4.769   6.611  2.4354 -0.0691  0.5637
 1836TIP3    H227068   2.599   4.678   6.731  0.5062 -0.3741  0.1878
 1837TIP3   OH227069   2.629   3.356   7.319 -0.7200 -0.4300 -0.2011
 1837TIP3    H127070   2.700   3.398   7.369 -1.1740 -0.1406  0.2062
 1837TIP3    H227071   2.622   3.408   7.239  0.4058 -1.2459 -0.8512
 1838TIP3   OH227072   1.415   3.743   1.843 -0.3533  0.1522 -0.1898
 1838TIP3    H127073   1.447   3.736   1.933 -1.1678 -0.7083  0.0346
 1838TIP3    H227074   1.456   3.670   1.798 -0.5977  0.0989 -0.3241
 1839TIP3   OH227075   2.174   4.299   6.980  0.5128 -0.0650  0.1040
 1839TIP3    H127076   2.082   4.291   7.007  0.1787 -0.1582 -1.0556
 1839TIP3    H227077   2.204   4.380   7.023 -0.6014  0.8923 -0.8935
 1840TIP3   OH227078   7.010   4.368   0.709 -0.1353 -0.7182  0.2398
 1840TIP3    H127079   7.067   4.441   0.732 -0.0155 -0.8747  0.4450
 1840TIP3    H227080   6.937   4.408   0.662  0.4727 -0.5891 -0.6059
 1841TIP3   OH227081   6.286   6.957   7.626  0.1024  0.0832  0.7999
 1841TIP3    H127082   6.264   7.004   7.545  0.5026  2.9141  2.2473
 1841TIP3    H227083   6.372   6.917   7.608 -1.0652 -1.6871 -1.0791
 1842TIP3   OH227084   2.184   5.750   7.972  0.4539 -0.6339 -0.2066
 1842TIP3    H127085   2.189   5.654   7.977  0.4416 -0.5634  1.5500
 1842TIP3    H227086   2.223   5.771   7.887  0.7169 -2.1776 -0.4977
 1843TIP3   OH227087   1.941   4.562   7.937 -0.0674 -0.4714 -0.1013
 1843TIP3    H127088   2.033   4.571   7.910  0.0617 -0.6591  0.2606
 1843TIP3    H227089   1.935   4.472   7.970  0.5454  0.6633  3.3064
 1844TIP3   OH227090   0.759   6.363   8.189  0.7594 -0.0271 -0.1193
 1844TIP3    H127091   0.756   6.280   8.235  1.3851  0.6773  1.2155
 1844TIP3    H227092   0.832   6.355   8.128 -0.1285 -0.9945 -1.0618
 1845TIP3   OH227093   1.997   5.183   0.877  0.2312  0.6354 -0.5104
 1845TIP3    H127094   1.957   5.133   0.806  2.0917 -0.9635 -0.4737
 1845TIP3    H227095   1.967   5.273   0.863 -0.4829  0.1045 -2.5297
 1846TIP3   OH227096   1.051   4.926   7.384  0.3520 -0.6349 -0.0117
 1846TIP3    H127097   1.019   4.947   7.297 -1.0621  0.0407  0.6447
 1846TIP3    H227098   1.053   5.010   7.430  2.1637 -0.8157  0.2738
 1847TIP3   OH227099   4.035   3.390   8.034  0.1392 -0.7134  0.1502
 1847TIP3    H127100   4.001   3.421   8.118 -0.2376 -5.0591  1.7478
 1847TIP3    H227101   3.986   3.439   7.968 -1.6100  0.7168  2.4537
 1848TIP3   OH227102   0.305   6.069   7.619  0.7970 -0.0141  0.0124
 1848TIP3    H127103   0.280   6.134   7.686  2.2916 -0.0959  0.6610
 1848TIP3    H227104   0.366   6.011   7.664  0.7809 -0.8757 -1.0644
 1849TIP3   OH227105   0.448   0.301   8.086  0.1325 -0.1889  0.4017
 1849TIP3    H127106   0.542   0.316   8.079  0.8134 -4.2387 -0.3540
 1849TIP3    H227107   0.432   0.288   8.179  0.4822 -0.2959  0.4467
 1850TIP3   OH227108   1.122   4.614   7.992  0.0137  0.1558  0.5116
 1850TIP3    H127109   1.057   4.684   7.998 -1.0711 -0.7185 -0.9084
 1850TIP3    H227110   1.110   4.577   7.905  2.5636  0.1134  0.1434
 1851TIP3   OH227111   7.190   5.014   1.406 -0.3266 -0.1375  0.1049
 1851TIP3    H127112   7.222   4.937   1.451  4.0562  1.8576  0.6478
 1851TIP3    H227113   7.176   4.985   1.315  3.2363 -1.1337 -0.1857
 1852TIP3   OH227114   1.163   4.908   8.117 -0.0613  0.0924 -0.2287
 1852TIP3    H127115   1.173   4.979   8.054  0.9960 -0.5714 -0.8355
 1852TIP3    H227116   1.069   4.890   8.119 -0.2424  0.9646 -0.6666
 1853TIP3   OH227117   0.093   3.646   0.842  0.2676 -0.0651 -0.5294
 1853TIP3    H127118   0.020   3.667   0.784  1.0168  0.2908 -1.3674
 1853TIP3    H227119   0.152   3.594   0.787  1.8049  1.7328 -0.6290
 1854TIP3   OH227120   1.485   5.740   7.461  0.3480  0.4830 -0.0517
 1854TIP3    H127121   1.395   5.766   7.476 -0.0638 -0.8926 -0.1431
 1854TIP3    H227122   1.484   5.700   7.374  1.1537  0.9516 -0.2873
 1855TIP3   OH227123   0.047   4.760   7.550  0.4506 -0.3755  0.1705
 1855TIP3    H127124   0.091   4.682   7.518  0.0025 -0.1866 -0.9116
 1855TIP3    H227125  -0.036   4.728   7.587  0.2187 -0.3979 -0.3699
 1856TIP3   OH227126   6.637   6.937   7.864  0.9179  0.3384 -0.8071
 1856TIP3    H127127   6.683   7.019   7.881  1.9013 -0.4164  0.2528
 1856TIP3    H227128   6.651   6.920   7.770  1.3443  0.9797 -0.8582
 1857TIP3   OH227129   2.862   6.199   8.083  0.2498  0.4160  0.4734
 1857TIP3    H127130   2.938   6.211   8.026 -0.1502 -0.2890 -0.2299
 1857TIP3    H227131   2.882   6.119   8.132 -0.0737  0.1717  0.2118
 1858TIP3   OH227132   0.463   4.569   7.467 -0.7253 -0.1343 -0.2770
 1858TIP3    H127133   0.500   4.511   7.400 -1.8001 -1.7358  0.4691
 1858TIP3    H227134   0.534   4.582   7.530 -1.1731 -2.7179  0.8475
 1859TIP3   OH227135   0.224   2.498   0.014  0.2113  0.2107 -0.0277
 1859TIP3    H127136   0.179   2.497  -0.071 -0.3602  1.8737  0.2495
 1859TIP3    H227137   0.252   2.588   0.026  2.5097 -0.5316  0.4200
 1860TIP3   OH227138   1.596   2.468   7.911 -0.0802  0.5305  0.0281
 1860TIP3    H127139   1.590   2.381   7.873  0.0399  0.6311 -0.2196
 1860TIP3    H227140   1.598   2.453   8.006 -2.3120  0.3816  0.0803
 1861TIP3   OH227141   0.722   4.569   6.202 -0.1796  0.5220 -0.2514
 1861TIP3    H127142   0.746   4.641   6.261 -0.6520  0.5745 -0.1216
 1861TIP3    H227143   0.737   4.490   6.254  0.1576  0.5334 -0.3290
 1862TIP3   OH227144   7.087   5.076   6.846 -0.3134 -0.2814  0.8641
 1862TIP3    H127145   7.177   5.045   6.844 -0.3722 -0.3931 -0.8142
 1862TIP3    H227146   7.092   5.163   6.885  0.5308 -0.2162  0.6105
 1863TIP3   OH227147   0.780   6.092   7.402 -0.1766  0.0841  0.1606
 1863TIP3    H127148   0.743   6.017   7.355  2.6204 -1.5935  0.5409
 1863TIP3    H227149   0.837   6.053   7.468  0.5206  2.5517  1.0624
 1864TIP3   OH227150   0.789   3.310   8.015 -0.3929 -0.2294  0.5716
 1864TIP3    H127151   0.720   3.354   8.065  0.3519  0.1639  1.2454
 1864TIP3    H227152   0.750   3.225   7.991 -1.0700 -0.0540  1.0341
 1865TIP3   OH227153   2.340   4.984   8.201 -0.1147  0.0149  0.3557
 1865TIP3    H127154   2.356   4.977   8.295  1.7468 -0.3238  0.0227
 1865TIP3    H227155   2.340   4.894   8.169  1.0663  0.2207 -0.2528
 1866TIP3   OH227156   0.146   4.368   6.819 -0.1948 -0.8639  0.1851
 1866TIP3    H127157   0.147   4.323   6.734  0.6583 -1.5569  0.5653
 1866TIP3    H227158   0.183   4.305   6.880  3.7651  1.3371  0.2394
 1867TIP3   OH227159   0.168   6.720   6.493 -0.4914  0.5964 -0.0797
 1867TIP3    H127160   0.148   6.629   6.513 -0.8692  1.3141  2.9577
 1867TIP3    H227161   0.263   6.724   6.488 -0.4881 -0.0229 -0.5908
 1868TIP3   OH227162   5.594   4.964   7.151 -0.1687  0.3721  0.1998
 1868TIP3    H127163   5.530   4.893   7.155  0.0872  0.1900  1.1966
 1868TIP3    H227164   5.635   4.955   7.065  0.3022 -1.0760  0.5679
 1869TIP3   OH227165   1.731   5.666   7.926  0.6115 -0.8495 -0.3139
 1869TIP3    H127166   1.696   5.608   7.858 -0.0596 -0.6073 -0.1846
 1869TIP3    H227167   1.745   5.749   7.881 -0.8160 -0.3829  0.0626
 1870TIP3   OH227168   2.264   5.805   7.319  0.1576  0.1821 -0.2239
 1870TIP3    H127169   2.323   5.733   7.342  0.7797  0.5367 -0.7051
 1870TIP3    H227170   2.196   5.763   7.267  1.4605  0.2150 -2.0063
 1871TIP3   OH227171   5.057   5.257   1.193  0.2928  0.4947 -0.7001
 1871TIP3    H127172   5.072   5.339   1.145  2.4890  1.4012  1.4044
 1871TIP3    H227173   5.145   5.224   1.211 -0.5699 -1.7579 -0.5666
 1872TIP3   OH227174   6.471   6.139   0.982 -0.0105  0.4392  0.5035
 1872TIP3    H127175   6.561   6.170   0.980  0.1903 -0.1296  0.5304
 1872TIP3    H227176   6.462   6.086   0.903 -0.3442  0.5705  0.4556
 1873TIP3   OH227177   6.861   5.654   0.232 -0.1082 -0.1964 -0.0853
 1873TIP3    H127178   6.917   5.646   0.155 -1.1225 -0.0254 -0.8489
 1873TIP3    H227179   6.807   5.731   0.216 -2.0628 -1.5630 -0.3575
 1874TIP3   OH227180   0.170   4.460   0.930  0.2844 -0.1496 -0.1096
 1874TIP3    H127181   0.175   4.429   1.021  1.0162 -0.0225 -0.1072
 1874TIP3    H227182   0.137   4.385   0.881  0.2848 -0.3477  0.1910
 1875TIP3   OH227183   0.382   2.337   7.126 -0.4805  0.5099 -0.1614
 1875TIP3    H127184   0.305   2.352   7.181 -1.3574 -1.5178 -0.7894
 1875TIP3    H227185   0.399   2.422   7.085 -1.3710  1.3908  1.2535
 1876TIP3   OH227186   1.420   4.977   7.238  0.5940  0.4635 -0.0126
 1876TIP3    H127187   1.452   5.019   7.317  2.8778  1.3560 -1.3677
 1876TIP3    H227188   1.419   5.046   7.172 -1.0556 -0.3193 -0.8453
 1877TIP3   OH227189   1.759   4.194   7.677  0.1998  0.0737 -0.4017
 1877TIP3    H127190   1.713   4.252   7.617 -0.1010 -1.6654 -1.8891
 1877TIP3    H227191   1.811   4.137   7.621  2.0371  0.1919  1.1238
 1878TIP3   OH227192   3.292   2.799   7.537  0.2175 -0.1800 -0.1830
 1878TIP3    H127193   3.222   2.735   7.521 -0.1464  0.4482 -1.1475
 1878TIP3    H227194   3.294   2.810   7.632  0.1429 -1.4738 -0.0273
 1879TIP3   OH227195   0.138   3.346   7.462 -0.3430  0.4666 -0.7688
 1879TIP3    H127196   0.135   3.411   7.391  1.5753  1.2078 -0.2043
 1879TIP3    H227197   0.226   3.308   7.455 -0.1979  0.4480  1.1114
 1880TIP3   OH227198   0.927   4.993   7.102 -0.0745  0.1400  0.9944
 1880TIP3    H127199   0.908   5.085   7.085  1.0912  0.3448  0.7143
 1880TIP3    H227200   0.842   4.950   7.100 -0.5920  1.1492  0.7396
 1881TIP3   OH227201   1.983   5.969   7.737 -0.0451  0.1418 -0.1558
 1881TIP3    H127202   1.924   6.045   7.726 -0.2807 -0.0817 -0.4583
 1881TIP3    H227203   1.992   5.959   7.831  0.2733  0.7695 -0.1132
 1882TIP3   OH227204   1.230   4.389   8.480  0.5555 -0.3755 -0.7232
 1882TIP3    H127205   1.264   4.358   8.564  0.2054 -0.6497 -0.6848
 1882TIP3    H227206   1.209   4.310   8.431 -1.0804 -0.2063 -0.3184
 1883TIP3   OH227207   6.829   6.619   0.640 -0.0275  0.2961 -0.2805
 1883TIP3    H127208   6.747   6.654   0.606 -0.8160 -1.3623 -0.1572
 1883TIP3    H227209   6.804   6.569   0.718  1.0081 -0.6974 -0.5604
 1884TIP3   OH227210   1.258   4.234   6.720  0.6828 -0.8365 -0.5009
 1884TIP3    H127211   1.199   4.299   6.759  2.1297 -0.3342  0.8807
 1884TIP3    H227212   1.214   4.208   6.639 -0.4473  1.0458 -0.5256
 1885TIP3   OH227213   1.494   3.859   6.133 -0.1523 -0.3784 -0.3317
 1885TIP3    H127214   1.587   3.861   6.155 -0.3891  1.2613  0.5911
 1885TIP3    H227215   1.475   3.766   6.118  1.0270 -1.0384  2.0894
 1886TIP3   OH227216   2.290   3.707   0.484 -0.2297 -0.7845  0.0280
 1886TIP3    H127217   2.368   3.738   0.530  0.4055 -0.5459 -1.1840
 1886TIP3    H227218   2.254   3.786   0.444 -0.3990 -1.0943 -0.4352
 1887TIP3   OH227219   1.621   3.775   6.728 -0.0160 -0.3686  0.0401
 1887TIP3    H127220   1.542   3.815   6.764 -0.8064 -1.5050 -0.3945
 1887TIP3    H227221   1.590   3.727   6.652  0.8953 -1.8885  0.6187
 1888TIP3   OH227222   5.616   5.985   0.519  0.1745  0.3274 -0.1956
 1888TIP3    H127223   5.595   5.892   0.520 -3.5214  1.1120 -0.1743
 1888TIP3    H227224   5.637   6.004   0.427  1.9973 -0.6866 -0.0218
 1889TIP3   OH227225   1.192   4.438   7.310  0.1349  0.2419  0.3806
 1889TIP3    H127226   1.172   4.478   7.226 -0.1078 -0.3587  0.1506
 1889TIP3    H227227   1.208   4.346   7.290 -2.3734 -0.4409  1.3078
 1890TIP3   OH227228   0.822   5.633   6.682  0.8355  0.1461  0.0984
 1890TIP3    H127229   0.787   5.655   6.596  0.4737 -1.0832 -0.0856
 1890TIP3    H227230   0.913   5.607   6.665  1.7709  3.0321  0.5341
 1891TIP3   OH227231   0.566   4.339   6.639  0.3190  0.0380 -0.0493
 1891TIP3    H127232   0.517   4.420   6.626 -1.2429 -0.7099  0.9911
 1891TIP3    H227233   0.525   4.277   6.578 -1.3589 -1.1249  2.2050
 1892TIP3   OH227234   6.618   4.401   6.774 -0.1215  0.0885  0.0863
 1892TIP3    H127235   6.623   4.456   6.852  0.4348  0.4180 -0.1760
 1892TIP3    H227236   6.613   4.463   6.701 -1.5712 -0.2225 -0.0863
 1893TIP3   OH227237   1.064   5.650   6.304 -0.2127  0.0954  0.3185
 1893TIP3    H127238   0.989   5.668   6.246 -0.5531  0.0895  0.7567
 1893TIP3    H227239   1.141   5.672   6.251 -0.5824  1.5887  0.3880
 1894TIP3   OH227240   1.350   0.070   7.508 -0.2140  0.0676 -0.0585
 1894TIP3    H127241   1.287   0.125   7.462  2.4996  0.6139 -3.2702
 1894TIP3    H227242   1.412   0.131   7.547  1.1938 -0.5741 -1.2384
 1895TIP3   OH227243   0.972   4.618   7.455 -0.3928 -0.2178 -0.0193
 1895TIP3    H127244   0.987   4.712   7.447  0.0940 -0.3153 -0.2551
 1895TIP3    H227245   1.018   4.580   7.380  0.8073 -0.7880  1.0004
 1896TIP3   OH227246   2.417   5.275   7.761  0.3784  0.1502 -0.5272
 1896TIP3    H127247   2.439   5.187   7.730  2.4369  0.1075  0.9688
 1896TIP3    H227248   2.388   5.321   7.682 -0.6679 -1.8262 -1.3379
 1897TIP3   OH227249   1.535   4.452   6.941  0.3314  0.3759 -0.2303
 1897TIP3    H127250   1.596   4.394   6.896  0.3950  0.5762 -0.3991
 1897TIP3    H227251   1.587   4.527   6.967  0.9567 -1.0266  2.7240
 1898TIP3   OH227252   1.543   3.974   7.535  0.6323 -0.4533 -0.6027
 1898TIP3    H127253   1.581   3.927   7.608  1.9400  0.9217 -0.3800
 1898TIP3    H227254   1.515   4.058   7.571 -0.8923 -0.6911 -1.1747
 1899TIP3   OH227255   1.764   4.031   7.109 -0.3821  0.5168 -0.0311
 1899TIP3    H127256   1.671   4.043   7.129  0.1534  0.5166  2.5062
 1899TIP3    H227257   1.768   3.947   7.063 -1.6291  0.5504 -0.2230
 1900TIP3   OH227258   3.411   6.046   8.478 -0.1220  0.0164  0.1789
 1900TIP3    H127259   3.454   6.106   8.418 -1.0750  0.0080 -0.5237
 1900TIP3    H227260   3.390   6.099   8.555  2.3956 -0.3064  1.1426
 1901TIP3   OH227261   1.344   6.030   7.288 -0.2413 -0.0919  0.1633
 1901TIP3    H127262   1.398   6.057   7.214 -0.5446 -0.7382 -0.2971
 1901TIP3    H227263   1.313   5.943   7.264 -1.1159  0.0913  0.6299
 1902TIP3   OH227264   2.476   4.819   5.931 -0.6982 -0.8181 -0.4296
 1902TIP3    H127265   2.393   4.814   5.979 -0.1209 -1.5585  0.5409
 1902TIP3    H227266   2.516   4.732   5.945  1.4251  0.3728  1.3555
 1903TIP3   OH227267   4.076   4.449   7.545 -0.3032  0.3036 -0.4191
 1903TIP3    H127268   4.062   4.499   7.465  0.7447  3.0708  1.0432
 1903TIP3    H227269   4.170   4.434   7.548 -0.5409 -1.2538 -0.5268
 1904TIP3   OH227270   1.058   4.311   6.291 -0.3413  0.4211 -1.4948
 1904TIP3    H127271   1.150   4.294   6.273  0.3737 -0.8929  2.6963
 1904TIP3    H227272   1.055   4.402   6.322  0.1010 -0.4639  1.2706
 1905TIP3   OH227273   1.712   6.985   7.477 -0.5093  0.6180 -0.1689
 1905TIP3    H127274   1.796   7.024   7.502 -0.1238  0.4949 -1.2516
 1905TIP3    H227275   1.683   6.939   7.556  0.7422  0.1421  0.0323
 1906TIP3   OH227276   1.703   4.255   6.831 -0.1917 -0.4027 -0.5370
 1906TIP3    H127277   1.784   4.249   6.782  0.5491  1.1228  0.4535
 1906TIP3    H227278   1.636   4.218   6.773  0.8719  0.1905 -2.1662
 1907TIP3   OH227279   2.482   5.310   6.317  0.4998 -0.1313  0.2658
 1907TIP3    H127280   2.551   5.326   6.252  1.3427  0.3921  1.2785
 1907TIP3    H227281   2.431   5.391   6.319  0.7091 -0.0067  0.5415
 1908TIP3   OH227282   0.495   4.136   8.384  0.3618 -0.0074  0.1495
 1908TIP3    H127283   0.535   4.198   8.445  0.2226  1.3582 -1.1214
 1908TIP3    H227284   0.528   4.163   8.298 -0.1765 -1.3348 -0.4804
 1909TIP3   OH227285   3.760   2.986   8.444  0.3015 -0.0358 -0.0100
 1909TIP3    H127286   3.804   3.008   8.526 -0.0570  0.4462  0.0531
 1909TIP3    H227287   3.824   2.934   8.396  0.4219 -0.5199  0.6768
 1910TIP3   OH227288   3.703   1.432   6.685 -0.1333  0.0390 -0.0045
 1910TIP3    H127289   3.655   1.515   6.679  0.0815  0.2919  1.7191
 1910TIP3    H227290   3.639   1.366   6.659 -0.8222  0.5766  0.3087
 1911TIP3   OH227291   0.415   3.965   6.285 -0.3392 -0.1873 -0.0639
 1911TIP3    H127292   0.510   3.951   6.284 -0.5119 -1.4203  0.1708
 1911TIP3    H227293   0.378   3.877   6.294 -1.4778  0.4608  1.6345
 1912TIP3   OH227294   0.706   3.302   7.620  0.0659  0.1237  0.4394
 1912TIP3    H127295   0.685   3.276   7.710  0.5548  0.6884  0.7180
 1912TIP3    H227296   0.769   3.236   7.591 -0.3106 -0.2277  0.4034
 1913TIP3   OH227297   1.466   2.682   8.419  0.6529 -0.9292  0.7441
 1913TIP3    H127298   1.529   2.694   8.489  1.5564  0.1996 -0.2382
 1913TIP3    H227299   1.457   2.768   8.379 -0.1617 -1.4546 -0.2493
 1914TIP3   OH227300   1.223   3.572   7.797  0.3993  0.0253  0.4316
 1914TIP3    H127301   1.193   3.499   7.852  1.0153 -0.9389 -0.4739
 1914TIP3    H227302   1.311   3.590   7.828  0.0887  0.6706  0.9352
 1915TIP3   OH227303   0.497   4.169   8.101  0.1407 -0.6070 -0.1061
 1915TIP3    H127304   0.520   4.171   8.008 -1.1543 -0.5400 -0.4321
 1915TIP3    H227305   0.410   4.131   8.104  0.0618 -0.3665  1.0657
 1916TIP3   OH227306   0.538   3.841   0.178  0.2843  0.2417 -0.6749
 1916TIP3    H127307   0.480   3.863   0.106 -0.9499  0.3966  0.3456
 1916TIP3    H227308   0.519   3.750   0.199  0.7138  0.1633 -0.6204
 1917TIP3   OH227309   1.194   3.668   8.131 -0.0197 -0.3246  0.1222
 1917TIP3    H127310   1.203   3.581   8.093 -3.0495 -0.6726  0.1448
 1917TIP3    H227311   1.102   3.690   8.122  0.7524  3.1257 -0.3548
 1918TIP3   OH227312   1.444   0.185   7.229 -0.5527 -0.1860 -0.0603
 1918TIP3    H127313   1.401   0.269   7.246  1.2378  1.0067 -1.1531
 1918TIP3    H227314   1.509   0.177   7.298  0.0198 -0.1295 -0.5850
 1919TIP3   OH227315   0.195   6.280   7.757 -0.1604 -0.0575 -0.2950
 1919TIP3    H127316   0.111   6.320   7.733 -1.5457 -2.8016 -0.1948
 1919TIP3    H227317   0.182   6.248   7.846  0.4889 -1.8402 -0.8281
 1920TIP3   OH227318   0.472   4.952   8.243  0.2731 -0.2544 -0.3328
 1920TIP3    H127319   0.562   4.963   8.210  0.9325 -1.2228  1.0852
 1920TIP3    H227320   0.483   4.917   8.331 -1.5432 -2.4486 -0.9333
 1921TIP3   OH227321   6.534   6.226   7.908  0.1286  0.3560  0.3715
 1921TIP3    H127322   6.449   6.208   7.866  1.0816 -1.6517 -0.7834
 1921TIP3    H227323   6.575   6.292   7.851  0.2978 -0.3820 -0.3682
 1922TIP3   OH227324   6.492   4.165   6.731 -0.5076  0.5166 -0.2458
 1922TIP3    H127325   6.503   4.251   6.771  0.8245 -0.1793  0.9300
 1922TIP3    H227326   6.575   4.149   6.686  0.4261 -1.4059  2.0366
 1923TIP3   OH227327   6.727   5.048   6.811 -0.0634 -0.5409 -0.4509
 1923TIP3    H127328   6.789   5.037   6.740  0.6619  1.2877 -0.1318
 1923TIP3    H227329   6.647   5.006   6.780  1.0300 -2.0993 -1.2404
 1924TIP3   OH227330   0.252   4.953   1.930 -0.0396 -0.0934  0.8653
 1924TIP3    H127331   0.203   5.019   1.882 -1.1182 -1.9253 -0.6036
 1924TIP3    H227332   0.317   4.921   1.868  0.1449 -0.7607  1.3909
 1925TIP3   OH227333   2.226   4.810   1.038 -0.2406 -0.2186  0.4138
 1925TIP3    H127334   2.249   4.902   1.048  0.3948 -0.5922  2.7933
 1925TIP3    H227335   2.299   4.771   0.990 -0.1850  0.3705  0.0158
 1926TIP3   OH227336   0.642   5.150   0.008 -0.3085  0.2235  0.5733
 1926TIP3    H127337   0.712   5.099  -0.033 -0.1464 -0.0774  1.2193
 1926TIP3    H227338   0.600   5.196  -0.065 -1.2199 -1.7629 -0.2036
 1927TIP3   OH227339   7.102   5.212   7.681 -0.2156 -0.1413 -0.1369
 1927TIP3    H127340   7.028   5.152   7.688  0.1077 -0.4620  0.5903
 1927TIP3    H227341   7.092   5.252   7.595 -2.7530  1.8437  1.0323
 1928TIP3   OH227342   0.702   6.118   6.324 -0.5236 -0.2506  0.5532
 1928TIP3    H127343   0.659   6.200   6.346 -0.1557 -0.6370  2.8446
 1928TIP3    H227344   0.714   6.122   6.229  1.2942  3.2385  0.8497
 1929TIP3   OH227345   3.158   4.734   7.087  0.3828  0.3992 -0.2393
 1929TIP3    H127346   3.235   4.682   7.111  0.7735 -0.6951 -3.5889
 1929TIP3    H227347   3.091   4.669   7.066 -0.5297  1.3164 -0.1989
 1930TIP3   OH227348   1.070   5.189   7.440 -0.5066  0.5103 -0.1710
 1930TIP3    H127349   1.120   5.216   7.363 -0.6268  2.5043  0.4299
 1930TIP3    H227350   1.093   5.253   7.508  0.2952 -1.7264  1.7446
 1931TIP3   OH227351   1.477   5.193   7.097 -0.0229  0.2831 -0.0146
 1931TIP3    H127352   1.506   5.267   7.151 -1.9722  1.2322 -0.2401
 1931TIP3    H227353   1.475   5.227   7.008 -0.7792 -0.0756 -0.1405
 1932TIP3   OH227354   2.452   5.182   6.537  0.1819 -0.6160 -0.2440
 1932TIP3    H127355   2.366   5.141   6.532  0.0936 -0.5846  0.9670
 1932TIP3    H227356   2.464   5.222   6.450 -0.8707 -0.9020 -0.5296
 1933TIP3   OH227357   1.412   4.519   6.064 -0.2356 -0.3161  0.0710
 1933TIP3    H127358   1.500   4.482   6.056  0.0647 -0.2402  2.4817
 1933TIP3    H227359   1.361   4.451   6.109 -1.3398 -0.2308 -1.0115
 1934TIP3   OH227360   2.459   4.088   7.474 -0.3118  0.0239 -0.0752
 1934TIP3    H127361   2.426   4.156   7.415 -0.1156 -0.5225 -0.8185
 1934TIP3    H227362   2.450   4.126   7.562 -0.6829  0.8061 -0.4482
 1935TIP3   OH227363   3.800   3.205   0.835  0.2981  0.2583 -0.3405
 1935TIP3    H127364   3.824   3.119   0.870  2.5372  1.5349  1.3777
 1935TIP3    H227365   3.708   3.215   0.857  0.1759 -1.4498 -0.0078
 1936TIP3   OH227366   1.204   3.807   6.374  0.5065 -0.5355  0.2107
 1936TIP3    H127367   1.178   3.730   6.424 -2.0705 -1.8673 -3.0149
 1936TIP3    H227368   1.123   3.840   6.336  1.9061  2.4369 -0.3446
 1937TIP3   OH227369   7.198   4.637   6.304 -0.2273 -0.7370  0.2812
 1937TIP3    H127370   7.280   4.684   6.287  0.0178 -0.2558  2.6039
 1937TIP3    H227371   7.164   4.616   6.218  2.8443 -1.8288 -0.7115
 1938TIP3   OH227372   1.541   6.177   6.008 -0.0650  0.1827 -0.5769
 1938TIP3    H127373   1.551   6.097   5.956  0.7514  0.2816 -0.5828
 1938TIP3    H227374   1.452   6.172   6.043 -0.3591 -0.2527 -1.3665
 1939TIP3   OH227375   2.874   5.118   6.189 -0.5176  0.3442 -0.4287
 1939TIP3    H127376   2.970   5.124   6.187 -0.4264 -0.4081  1.0585
 1939TIP3    H227377   2.855   5.034   6.147 -0.3451 -0.8238  1.7478
 1940TIP3   OH227378   0.121   5.116   0.568 -0.6665 -0.1752  0.6568
 1940TIP3    H127379   0.199   5.165   0.593  0.0901 -1.3304  0.5943
 1940TIP3    H227380   0.052   5.182   0.562  0.2751  0.8347  0.8376
 1941TIP3   OH227381   0.363   3.263   0.539  0.3634 -0.5787  0.1429
 1941TIP3    H127382   0.402   3.341   0.499 -0.3944 -1.5661 -2.6155
 1941TIP3    H227383   0.434   3.200   0.544  0.4061 -0.5329  0.1184
 1942TIP3   OH227384   6.632   5.424   7.900 -0.0841 -0.3548 -0.4154
 1942TIP3    H127385   6.637   5.459   7.810 -0.9976  0.8773 -0.0069
 1942TIP3    H227386   6.703   5.360   7.905 -0.5770 -1.0771 -2.3013
 1943TIP3   OH227387   4.974   4.593   6.726  0.5568 -0.2258 -0.1947
 1943TIP3    H127388   4.962   4.514   6.779  0.9599 -0.7545 -0.8842
 1943TIP3    H227389   4.972   4.561   6.636 -1.1856  0.7915 -0.5502
 1944TIP3   OH227390   3.737   5.302   6.810 -0.1504  0.1717 -0.1299
 1944TIP3    H127391   3.673   5.261   6.869 -1.6810  0.0027 -1.8799
 1944TIP3    H227392   3.802   5.233   6.795 -0.0732  0.0152  0.8664
 1945TIP3   OH227393   1.522   5.874   8.060  0.0914 -0.3910 -0.0513
 1945TIP3    H127394   1.431   5.883   8.089 -0.5217 -1.6944 -1.4521
 1945TIP3    H227395   1.569   5.944   8.106 -1.7764  0.8599  0.0467
 1946TIP3   OH227396   2.839   5.007   6.430  0.2624 -0.0413 -0.7621
 1946TIP3    H127397   2.933   4.994   6.438  0.0386 -1.4172 -0.1934
 1946TIP3    H227398   2.829   5.069   6.358  1.6623  1.2031  0.0966
 1947TIP3   OH227399   1.121   4.076   7.821 -0.0080  0.0027 -0.3069
 1947TIP3    H127400   1.217   4.076   7.820  0.0470  0.5873  1.9240
 1947TIP3    H227401   1.098   4.009   7.886 -1.1113  0.4057 -0.2701
 1948TIP3   OH227402   0.944   5.243   7.765 -0.4327  0.6069  0.0636
 1948TIP3    H127403   1.005   5.312   7.737  1.1866  0.0338  2.0696
 1948TIP3    H227404   0.948   5.178   7.694 -0.6653  1.7557 -1.0256
 1949TIP3   OH227405   0.982   5.494   7.261  0.2546 -0.1000 -0.1200
 1949TIP3    H127406   1.006   5.447   7.180 -1.1769  0.1002 -0.6719
 1949TIP3    H227407   1.057   5.481   7.319  0.2443 -2.3592 -0.5719
 1950TIP3   OH227408   2.971   5.131   6.668 -0.4575  0.2282  0.2108
 1950TIP3    H127409   2.971   5.216   6.623 -0.0893  1.7455  2.9488
 1950TIP3    H227410   2.889   5.090   6.642 -0.6408  1.4309 -1.1507
 1951TIP3   OH227411   2.806   5.981   7.623  0.0729 -0.3411  0.1386
 1951TIP3    H127412   2.895   6.015   7.615 -0.5373  0.4930 -4.3284
 1951TIP3    H227413   2.758   6.050   7.670  0.9635  0.8741 -0.7148
 1952TIP3   OH227414   3.513   3.846   6.700  0.7876  0.1487  0.3221
 1952TIP3    H127415   3.542   3.887   6.782  0.4323  0.6315  0.2083
 1952TIP3    H227416   3.418   3.858   6.700  0.9679  1.7360 -1.0060
 1953TIP3   OH227417   2.870   4.537   6.842  0.1495  0.2985 -0.0332
 1953TIP3    H127418   2.781   4.546   6.810  0.8971  3.6806 -1.3753
 1953TIP3    H227419   2.867   4.570   6.932  0.2916  1.5834 -0.5005
 1954TIP3   OH227420   2.548   3.408   7.575  0.1079 -0.2870  0.0020
 1954TIP3    H127421   2.583   3.407   7.486 -0.9536  0.7963 -0.4414
 1954TIP3    H227422   2.485   3.336   7.577  1.2165 -1.2753  0.3510
 1955TIP3   OH227423   1.412   3.860   8.070 -0.4789  0.3509  0.3976
 1955TIP3    H127424   1.343   3.799   8.096 -0.8285  0.7856  0.5075
 1955TIP3    H227425   1.413   3.926   8.140 -0.7312  0.9731 -0.1824
 1956TIP3   OH227426   2.301   4.217   7.681  0.4245 -0.2619 -0.1595
 1956TIP3    H127427   2.259   4.146   7.730 -0.1848  0.2032 -0.0071
 1956TIP3    H227428   2.228   4.266   7.642  0.8434  0.2929 -0.2521
 1957TIP3   OH227429   3.354   4.310   0.628  0.8398 -0.3343  0.1388
 1957TIP3    H127430   3.436   4.332   0.671  0.1643 -1.2996  1.9522
 1957TIP3    H227431   3.302   4.389   0.632  1.9682  0.5594 -1.7930
 1958TIP3   OH227432   4.043   4.335   7.146  0.5558  0.7691 -0.5957
 1958TIP3    H127433   4.120   4.321   7.091  0.9077  0.7838 -0.1146
 1958TIP3    H227434   3.970   4.340   7.085  0.6769 -1.1716 -0.9242
 1959TIP3   OH227435   4.204   3.408   6.592 -0.2414  0.5986  0.1494
 1959TIP3    H127436   4.126   3.371   6.549  0.3980 -1.3560  0.6225
 1959TIP3    H227437   4.278   3.367   6.547  0.4980  1.3602  0.6598
 1960TIP3   OH227438   4.326   3.810   6.983 -0.5224 -0.3310 -0.8589
 1960TIP3    H127439   4.250   3.755   6.964 -0.2332 -1.2311  0.5094
 1960TIP3    H227440   4.400   3.763   6.946 -0.4481 -0.1817 -0.8995
 1961TIP3   OH227441   3.927   3.288   7.171 -0.4526 -0.2848 -0.3294
 1961TIP3    H127442   3.845   3.239   7.166 -0.9442  0.4914  0.1370
 1961TIP3    H227443   3.975   3.261   7.092 -1.5466 -0.0263 -1.0913
 1962TIP3   OH227444   4.081   3.122   6.818  0.0360  0.4982 -0.3419
 1962TIP3    H127445   4.094   3.210   6.852 -2.0323  1.1345 -1.1623
 1962TIP3    H227446   4.032   3.133   6.737  1.0319 -1.3163 -1.2435
 1963TIP3   OH227447   3.686   4.218   8.116  0.0901  0.0026  0.5454
 1963TIP3    H127448   3.669   4.312   8.112 -1.2842 -0.3202 -1.4013
 1963TIP3    H227449   3.758   4.204   8.055 -0.5814 -0.3876 -0.1678
 1964TIP3   OH227450   2.306   6.493   7.512 -0.5997  0.4236 -0.6494
 1964TIP3    H127451   2.320   6.415   7.566 -2.4094  3.0212  3.8399
 1964TIP3    H227452   2.253   6.461   7.439  0.7445 -2.9858 -0.2484
 1965TIP3   OH227453   2.022   4.786   0.809 -1.0198  0.2500  0.1421
 1965TIP3    H127454   1.961   4.799   0.882 -0.7189 -0.8786  0.6040
 1965TIP3    H227455   2.091   4.730   0.845  0.2066  1.3699 -0.4235
 1966TIP3   OH227456   2.869   3.766   6.260 -0.3154  0.2242  0.0513
 1966TIP3    H127457   2.871   3.835   6.326 -0.3626  1.8180 -1.5857
 1966TIP3    H227458   2.799   3.792   6.200  0.5013 -0.5944 -1.2878
 1967TIP3   OH227459   2.396   2.648   7.623  0.2916 -0.2658  0.1550
 1967TIP3    H127460   2.362   2.706   7.555 -0.8560 -0.5254  0.4936
 1967TIP3    H227461   2.339   2.663   7.698  1.6363  0.1257  1.1203
 1968TIP3   OH227462   2.553   4.230   6.829  0.0696 -0.4076  0.0341
 1968TIP3    H127463   2.598   4.249   6.911 -1.2741 -0.6263  0.8474
 1968TIP3    H227464   2.587   4.295   6.767  0.5481  0.2373  0.9651
 1969TIP3   OH227465   3.162   4.263   6.769 -0.3728 -0.3304  0.1470
 1969TIP3    H127466   3.233   4.245   6.706  0.1635  0.6855  0.4531
 1969TIP3    H227467   3.132   4.351   6.746 -2.0157 -1.0301 -0.4313
 1970TIP3   OH227468   4.159   3.791   7.480 -0.1606  0.3065  0.4056
 1970TIP3    H127469   4.224   3.766   7.415  0.3654  1.2041  0.5949
 1970TIP3    H227470   4.076   3.758   7.444  0.4325 -1.1728  0.3513
 1971TIP3   OH227471   3.182   4.309   7.246 -0.1465  0.0825  0.2811
 1971TIP3    H127472   3.163   4.219   7.271 -0.0223 -0.2014 -0.6177
 1971TIP3    H227473   3.198   4.355   7.329  1.5183 -1.1228  0.6518
 1972TIP3   OH227474   2.813   4.647   7.120 -0.4779  0.1600 -0.1209
 1972TIP3    H127475   2.850   4.735   7.128 -0.9056  0.2037  1.8507
 1972TIP3    H227476   2.834   4.605   7.203 -1.3712 -1.1662 -0.5472
 1973TIP3   OH227477   3.558   5.114   6.913 -0.2500  0.1542  0.2535
 1973TIP3    H127478   3.606   5.106   6.995 -0.4378 -0.8818  0.2655
 1973TIP3    H227479   3.467   5.123   6.939 -0.2237  0.6844  0.1792
 1974TIP3   OH227480   2.645   5.602   6.192 -0.1529  0.5205  0.5947
 1974TIP3    H127481   2.559   5.636   6.214 -0.9745 -0.5214 -0.9387
 1974TIP3    H227482   2.630   5.511   6.166  1.2043  0.7395 -1.0442
 1975TIP3   OH227483   2.925   5.831   6.278 -0.1958  0.8099  0.1805
 1975TIP3    H127484   2.884   5.901   6.228 -0.7238  1.3877  1.3934
 1975TIP3    H227485   2.996   5.875   6.326 -1.0570  0.6974  1.5896
 1976TIP3   OH227486   1.426   4.864   8.234  0.0220 -0.4425  0.5958
 1976TIP3    H127487   1.436   4.939   8.175  2.0426 -0.6678  0.6391
 1976TIP3    H227488   1.406   4.903   8.319 -1.8838 -0.0833  0.0235
 1977TIP3   OH227489   3.962   4.067   7.238 -0.4408  0.0340 -0.1818
 1977TIP3    H127490   3.957   4.161   7.256 -3.1653  0.1200 -1.1177
 1977TIP3    H227491   4.051   4.054   7.204  0.6585  1.9002  1.8143
 1978TIP3   OH227492   2.012   6.661   7.160 -0.3747 -0.3798  0.0748
 1978TIP3    H127493   2.087   6.721   7.159  0.0465 -0.9125 -0.3554
 1978TIP3    H227494   1.943   6.710   7.206  0.0765  0.2983  0.0396
 1979TIP3   OH227495   2.142   7.161   0.665  0.5319  0.1305  0.1909
 1979TIP3    H127496   2.170   7.166   0.573  2.6974  0.1283  0.8429
 1979TIP3    H227497   2.144   7.252   0.695  1.2274 -0.0468  0.6645
 1980TIP3   OH227498   3.748   6.537   6.268 -0.1554  0.3110  0.1652
 1980TIP3    H127499   3.818   6.494   6.220  0.4606  1.7693 -0.2651
 1980TIP3    H227500   3.668   6.512   6.222  0.3732  1.1334 -1.2255
 1981TIP3   OH227501   2.555   5.839   7.207  0.2504 -0.0744 -0.2062
 1981TIP3    H127502   2.461   5.850   7.224  0.2506  0.0615 -0.2978
 1981TIP3    H227503   2.559   5.800   7.120  0.2313 -1.2093  0.2866
 1982TIP3   OH227504   2.590   6.675   6.906 -0.3107  0.1485  0.0060
 1982TIP3    H127505   2.595   6.708   6.816 -0.3340  0.8095  0.2507
 1982TIP3    H227506   2.553   6.747   6.957 -0.7663 -0.4014  0.4578
 1983TIP3   OH227507   1.633   5.420   1.387  0.2907  0.1256  0.3422
 1983TIP3    H127508   1.651   5.331   1.358  1.3552  0.9804 -1.6917
 1983TIP3    H227509   1.538   5.424   1.399  0.2783 -1.3586  0.7806
 1984TIP3   OH227510   0.926   4.577   5.992 -0.4546  0.2513 -0.3428
 1984TIP3    H127511   0.936   4.665   6.029  0.3706 -0.2473  0.6138
 1984TIP3    H227512   0.882   4.527   6.061  0.8965 -0.6247 -0.1120
 1985TIP3   OH227513   3.108   6.821   6.968  0.3560  0.2546 -0.0789
 1985TIP3    H127514   3.074   6.736   6.996 -2.8971  1.7785  0.8322
 1985TIP3    H227515   3.192   6.830   7.014  0.3357 -2.1069  0.4466
 1986TIP3   OH227516   3.324   4.125   6.548 -0.4347  0.1234  0.0764
 1986TIP3    H127517   3.311   4.127   6.453  2.0832 -0.8002 -0.3109
 1986TIP3    H227518   3.274   4.049   6.577 -0.2796 -0.2616 -0.6517
 1987TIP3   OH227519   1.673   2.828   6.983 -0.0897  0.6706  0.4091
 1987TIP3    H127520   1.600   2.831   7.044 -1.6101 -0.2561 -1.3203
 1987TIP3    H227521   1.638   2.864   6.901  1.7515  1.3905 -0.1111
 1988TIP3   OH227522   2.215   4.520   7.806  0.1042  0.2785 -0.2763
 1988TIP3    H127523   2.258   4.576   7.742  0.4695  0.3314  0.0118
 1988TIP3    H227524   2.259   4.436   7.797 -0.7969 -0.1127 -1.0720
 1989TIP3   OH227525   2.530   4.747   8.475 -0.7562  0.4870  0.2685
 1989TIP3    H127526   2.588   4.709   8.409  0.7819  2.2126  0.5965
 1989TIP3    H227527   2.469   4.676   8.497 -1.3651 -0.0861 -3.0405
 1990TIP3   OH227528   2.034   0.922   7.943  0.5994 -0.0085 -0.5609
 1990TIP3    H127529   2.068   0.956   8.026 -2.2616  0.7310  0.3840
 1990TIP3    H227530   2.097   0.950   7.877  2.0992  0.7615  1.1797
 1991TIP3   OH227531   3.160   5.658   6.463 -0.2522  1.2441  0.0003
 1991TIP3    H127532   3.219   5.723   6.426  0.8695  0.1174 -0.2211
 1991TIP3    H227533   3.122   5.701   6.540  1.1101  1.8626  0.3381
 1992TIP3   OH227534   2.999   6.861   6.616  0.0507  0.2357  0.3800
 1992TIP3    H127535   2.944   6.818   6.550 -0.6070  2.5229 -0.6591
 1992TIP3    H227536   3.062   6.912   6.564 -0.7374  2.3923  1.4678
 1993TIP3   OH227537   4.091   4.956   7.323 -1.2416 -0.7240 -0.2026
 1993TIP3    H127538   4.032   4.958   7.248  0.0980  0.2318 -1.2533
 1993TIP3    H227539   4.170   5.001   7.293 -0.5497 -0.6363  1.6645
 1994TIP3   OH227540   2.301   3.984   6.911 -0.0777  0.1640 -0.1576
 1994TIP3    H127541   2.244   3.907   6.908 -1.5940  1.3118 -2.0616
 1994TIP3    H227542   2.307   4.005   7.004 -2.3889 -0.2986  0.1288
 1995TIP3   OH227543   4.012   4.865   6.628 -0.0552 -0.1330 -0.3722
 1995TIP3    H127544   3.998   4.877   6.534 -2.3764  2.1000  0.2090
 1995TIP3    H227545   4.084   4.801   6.634  1.0850  0.7748 -3.6436
 1996TIP3   OH227546   1.977   5.037   7.283 -0.1085 -0.2874  0.4472
 1996TIP3    H127547   1.943   5.063   7.197 -0.0102 -0.2925  0.4057
 1996TIP3    H227548   1.989   4.942   7.277  0.7273 -0.1703  0.1634
 1997TIP3   OH227549   2.175   5.350   7.335  0.3423 -0.2953  0.3730
 1997TIP3    H127550   2.168   5.398   7.253  1.9134  0.1486  0.4791
 1997TIP3    H227551   2.269   5.352   7.356  0.1498 -1.6302  1.4361
 1998TIP3   OH227552   1.769   3.310   6.859 -0.5530  0.0142  0.4539
 1998TIP3    H127553   1.848   3.364   6.870 -1.2020  0.8603  0.9988
 1998TIP3    H227554   1.700   3.373   6.839 -1.0849 -0.7379 -0.0968
 1999TIP3   OH227555   1.731   7.263   6.671 -0.3980 -0.1063 -0.1719
 1999TIP3    H127556   1.826   7.274   6.679 -0.3513 -1.1304  0.8056
 1999TIP3    H227557   1.711   7.292   6.582  0.9845 -0.8517 -0.7486
 2000TIP3   OH227558   1.747   3.855   6.320 -0.0800 -0.2768  0.0197
 2000TIP3    H127559   1.684   3.927   6.312  0.9274  0.6125 -0.0232
 2000TIP3    H227560   1.832   3.897   6.311  0.5804 -1.2546  1.6310
 2001TIP3   OH227561   0.598   3.093   7.346 -0.6377 -0.7457 -0.0856
 2001TIP3    H127562   0.537   3.132   7.409 -1.3058 -1.4705 -0.2787
 2001TIP3    H227563   0.673   3.066   7.399 -0.2578  0.5996  0.0816
 2002TIP3   OH227564   2.718   5.211   0.780 -0.2230 -0.7654 -0.2711
 2002TIP3    H127565   2.672   5.289   0.750  0.6130 -0.1982 -0.1028
 2002TIP3    H227566   2.733   5.227   0.873 -0.9879 -1.6035 -0.0007
 2003TIP3   OH227567   3.495   4.730   7.741 -0.3058 -0.0719 -0.0495
 2003TIP3    H127568   3.430   4.787   7.782 -1.1056 -0.0360 -1.3522
 2003TIP3    H227569   3.488   4.648   7.790 -0.9345  0.1132  0.1816
 2004TIP3   OH227570   2.513   4.980   6.160  0.4087 -0.0527  0.7860
 2004TIP3    H127571   2.514   4.936   6.075 -0.0193  0.7310  0.3645
 2004TIP3    H227572   2.471   5.065   6.142  2.2492  0.9954  1.3580
 2005TIP3   OH227573   1.765   3.335   7.560  0.4286 -0.1666  0.2257
 2005TIP3    H127574   1.852   3.362   7.590  0.5227  0.1856 -0.3604
 2005TIP3    H227575   1.719   3.417   7.543  0.4108 -0.3675 -0.6952
 2006TIP3   OH227576   2.497   4.251   6.167  0.4155 -0.2290 -0.1483
 2006TIP3    H127577   2.439   4.175   6.159 -1.5327  1.2580 -0.7500
 2006TIP3    H227578   2.578   4.224   6.125 -0.0548 -2.1474  0.1196
 2007TIP3   OH227579   2.126   4.109   7.891 -0.1262 -0.3464 -0.1329
 2007TIP3    H127580   2.060   4.177   7.906  0.0752 -0.6818  2.3920
 2007TIP3    H227581   2.076   4.028   7.882 -0.2188 -0.2052 -0.9361
 2008TIP3   OH227582   0.858   3.536   7.562 -0.2032 -0.3201 -0.2790
 2008TIP3    H127583   0.854   3.546   7.658 -0.5158  1.2264 -0.4434
 2008TIP3    H227584   0.846   3.442   7.548 -1.5275 -0.3863  1.1269
 2009TIP3   OH227585   1.726   4.713   7.541 -0.2393 -0.0703 -0.2391
 2009TIP3    H127586   1.648   4.680   7.586 -0.9061  1.2962 -0.3790
 2009TIP3    H227587   1.788   4.732   7.611 -1.3445  2.2377  0.1493
 2010TIP3   OH227588   3.294   4.558   6.444 -0.8217  0.2250  0.2854
 2010TIP3    H127589   3.229   4.538   6.512 -1.2028  2.7437  0.7099
 2010TIP3    H227590   3.371   4.588   6.492 -1.2942  2.5894 -0.3548
 2011TIP3   OH227591   2.497   3.695   0.183  0.1002 -0.1442 -0.0069
 2011TIP3    H127592   2.483   3.778   0.137 -0.2036  0.2674  0.8194
 2011TIP3    H227593   2.413   3.677   0.225  0.6297 -0.0959  1.0668
 2012TIP3   OH227594   4.974   5.225   0.893 -0.6451  0.0817 -0.1559
 2012TIP3    H127595   5.015   5.311   0.887 -0.3917 -0.0207  0.0872
 2012TIP3    H227596   4.887   5.242   0.929  0.0458  0.0630  1.5614
 2013TIP3   OH227597   3.752   2.613   6.656 -0.1043  0.0597  0.2391
 2013TIP3    H127598   3.815   2.685   6.656  0.8069 -0.7238  0.1116
 2013TIP3    H227599   3.757   2.576   6.744 -0.3510 -0.0381  0.2126
 2014TIP3   OH227600   2.347   3.064   6.896 -0.0675 -0.0017  0.3169
 2014TIP3    H127601   2.392   2.986   6.864 -1.6570  0.5458 -3.4933
 2014TIP3    H227602   2.263   3.031   6.929 -0.7415  0.0886 -1.2974
 2015TIP3   OH227603   0.246   3.533   0.625  0.3277 -0.2799  0.0189
 2015TIP3    H127604   0.258   3.613   0.574 -0.1648 -0.9327 -1.1245
 2015TIP3    H227605   0.208   3.471   0.564 -2.5911 -0.3292  1.7991
 2016TIP3   OH227606   3.051   4.489   7.092 -0.1481 -0.3353  0.5353
 2016TIP3    H127607   3.012   4.432   7.026 -0.5270  0.3274  0.1805
 2016TIP3    H227608   3.112   4.432   7.140 -0.6511 -1.0733  0.3046
 2017TIP3   OH227609   3.732   5.687   6.575 -0.5996 -0.0379  0.5856
 2017TIP3    H127610   3.770   5.759   6.625 -1.9345  1.5591 -0.6494
 2017TIP3    H227611   3.796   5.670   6.506  0.1031 -0.6133  1.3627
 2018TIP3   OH227612   3.861   5.874   6.748 -0.1253  0.1243 -0.1621
 2018TIP3    H127613   3.944   5.827   6.735  0.2539  0.4249  1.1180
 2018TIP3    H227614   3.879   5.934   6.820 -1.1023  1.0730 -0.7025
 2019TIP3   OH227615   2.711   3.518   0.104  1.2313 -0.4309  0.0056
 2019TIP3    H127616   2.640   3.579   0.125 -0.2813 -1.6593 -1.4309
 2019TIP3    H227617   2.747   3.551   0.022  1.4616 -0.5466  0.0605
 2020TIP3   OH227618   2.575   5.717   6.728 -0.2053 -0.1885  0.3147
 2020TIP3    H127619   2.635   5.643   6.739 -1.0232 -1.0606 -0.9801
 2020TIP3    H227620   2.631   5.791   6.705  0.4211 -0.8808 -0.3806
 2021TIP3   OH227621   2.745   4.336   1.201 -0.5828  0.2280  0.3943
 2021TIP3    H127622   2.651   4.340   1.186 -0.6609  1.3039  1.0709
 2021TIP3    H227623   2.755   4.357   1.294  0.2236 -1.3768  0.6852
 2022TIP3   OH227624   2.425   6.850   6.362  0.6911 -0.4552 -0.6190
 2022TIP3    H127625   2.413   6.909   6.287  0.0319  1.1174  0.6966
 2022TIP3    H227626   2.386   6.767   6.333  1.7416 -0.3204 -2.5430
 2023TIP3   OH227627   2.135   4.608   0.184  0.3219  1.0152 -0.5179
 2023TIP3    H127628   2.209   4.595   0.243  0.3958 -0.5973 -0.9494
 2023TIP3    H227629   2.174   4.625   0.098  0.2046  0.2997 -0.7178
 2024TIP3   OH227630   2.522   2.250   7.578 -0.1449 -0.2253  0.1730
 2024TIP3    H127631   2.427   2.261   7.591 -0.3224 -0.9272 -0.4531
 2024TIP3    H227632   2.560   2.334   7.601 -1.1588  0.8252 -1.8302
 2025TIP3   OH227633   3.270   4.148   1.764 -0.0125 -0.2416 -0.0488
 2025TIP3    H127634   3.351   4.191   1.792 -0.7343  0.0867  1.6165
 2025TIP3    H227635   3.251   4.184   1.677 -0.4700  2.6336  1.1991
 2026TIP3   OH227636   2.140   6.019   7.441  0.0162 -0.4279  0.3094
 2026TIP3    H127637   2.216   5.976   7.401 -1.6946 -1.7914 -1.5839
 2026TIP3    H227638   2.120   5.966   7.518  0.2436 -0.7787  0.1287
 2027TIP3   OH227639   3.572   5.631   8.236  1.1123 -0.5211 -0.2519
 2027TIP3    H127640   3.592   5.637   8.143  0.1427  1.1587 -0.3848
 2027TIP3    H227641   3.646   5.673   8.280 -1.2126  4.3465 -0.6601
 2028TIP3   OH227642   2.865   6.515   6.535 -0.1853  0.5296 -0.5178
 2028TIP3    H127643   2.781   6.536   6.494 -0.2748 -1.5027 -1.4549
 2028TIP3    H227644   2.927   6.508   6.462 -0.1583 -2.2496 -0.2850
 2029TIP3   OH227645   3.574   5.443   7.324  0.0449 -0.7976  0.0002
 2029TIP3    H127646   3.493   5.391   7.329 -0.4553  0.0076  0.2341
 2029TIP3    H227647   3.582   5.465   7.231  0.3150 -1.3753 -0.1187
 2030TIP3   OH227648   2.642   4.396   6.631  0.3599 -0.2444 -0.2589
 2030TIP3    H127649   2.648   4.332   6.560 -0.1976 -0.6637  0.0650
 2030TIP3    H227650   2.636   4.481   6.587 -3.5012 -0.7417 -0.8303
 2031TIP3   OH227651   2.331   3.887   6.404  0.3558 -0.3016 -0.0891
 2031TIP3    H127652   2.394   3.847   6.464  0.6872  1.4729  0.7679
 2031TIP3    H227653   2.254   3.831   6.409  0.5924 -0.4960  1.5770
 2032TIP3   OH227654   2.294   6.363   0.312  0.4129 -0.5958 -0.8299
 2032TIP3    H127655   2.385   6.389   0.324 -0.2969  1.4110  0.4006
 2032TIP3    H227656   2.284   6.354   0.217  1.6705 -0.0075 -1.0294
 2033TIP3   OH227657   4.849   5.956   0.454 -0.0577 -0.1188  1.0741
 2033TIP3    H127658   4.820   5.881   0.403 -0.3426 -0.4570  1.7287
 2033TIP3    H227659   4.824   6.032   0.402 -0.6270 -0.4518  0.8596
 2034TIP3   OH227660   2.842   6.315   8.342  0.2102 -0.1643  0.6087
 2034TIP3    H127661   2.830   6.267   8.260 -1.0287 -0.7408  1.1214
 2034TIP3    H227662   2.895   6.391   8.318 -0.9698  0.1917 -0.9204
 2035TIP3   OH227663   3.062   5.659   6.081 -0.0622  0.4695 -0.6213
 2035TIP3    H127664   2.978   5.643   6.038 -0.1241  1.0707 -0.7298
 2035TIP3    H227665   3.042   5.723   6.149 -0.1882 -1.3248  1.0713
 2036TIP3   OH227666   2.890   3.266   0.657 -0.2533 -0.0794  0.0733
 2036TIP3    H127667   2.851   3.198   0.713 -1.9039  0.5895 -0.2439
 2036TIP3    H227668   2.958   3.305   0.712  0.4509 -1.7147  0.4065
 2037TIP3   OH227669   3.007   6.629   7.272 -0.5847 -0.0867 -0.0349
 2037TIP3    H127670   2.916   6.653   7.254 -0.8937 -2.3156 -1.6262
 2037TIP3    H227671   3.003   6.538   7.302  1.2698 -0.8360 -1.9415
 2038TIP3   OH227672   1.674   6.098   6.865 -0.0568  0.0854  0.1012
 2038TIP3    H127673   1.724   6.174   6.834  0.2106 -0.3045 -0.4255
 2038TIP3    H227674   1.741   6.032   6.881 -0.0211  0.7675  2.9780
 2039TIP3   OH227675   3.344   5.547   6.086 -0.2375  0.9266  0.1180
 2039TIP3    H127676   3.378   5.588   6.006 -0.0611 -0.7574 -0.7030
 2039TIP3    H227677   3.259   5.588   6.100 -1.6844 -0.8821 -2.7128
 2040TIP3   OH227678   3.903   4.942   6.305 -0.1577 -0.2125 -0.1514
 2040TIP3    H127679   3.963   4.868   6.296  1.3777  0.9713  0.1098
 2040TIP3    H227680   3.944   5.013   6.256 -1.3520  0.6316  0.0338
 2041TIP3   OH227681   2.473   6.125   6.406 -0.1852 -0.2779  0.1713
 2041TIP3    H127682   2.451   6.039   6.372  0.0919  0.4062 -1.8168
 2041TIP3    H227683   2.563   6.116   6.437 -0.1310 -0.6750 -0.1014
 2042TIP3   OH227684   2.100   5.203   6.700 -0.0314  0.0775  0.0037
 2042TIP3    H127685   2.062   5.290   6.706  0.6394  0.5049 -1.6021
 2042TIP3    H227686   2.089   5.165   6.788  0.5055  2.1073  0.9553
 2043TIP3   OH227687   2.415   4.664   7.206 -0.1127  0.0128  0.4035
 2043TIP3    H127688   2.489   4.633   7.257  0.2580 -0.4213 -0.3916
 2043TIP3    H227689   2.415   4.759   7.219  0.4756 -0.0087  0.5437
 2044TIP3   OH227690   2.769   6.351   6.184 -0.0353 -0.0798  0.6622
 2044TIP3    H127691   2.819   6.283   6.229 -0.4149 -0.3196  0.7226
 2044TIP3    H227692   2.805   6.351   6.095 -1.1296 -1.4774  0.2026
 2045TIP3   OH227693   2.576   3.451   8.125  0.4426  1.1284 -0.9257
 2045TIP3    H127694   2.652   3.428   8.073  0.0231  2.4750 -2.1659
 2045TIP3    H227695   2.578   3.547   8.130  0.9766  1.0076  2.2939
 2046TIP3   OH227696   4.485   5.825   6.125  0.1270  0.1238  0.1918
 2046TIP3    H127697   4.454   5.735   6.139  0.2269 -0.0497 -0.7179
 2046TIP3    H227698   4.432   5.858   6.053 -0.3341  1.0101  0.9343
 2047TIP3   OH227699   3.161   6.476   7.073 -0.4355  0.1812  0.6959
 2047TIP3    H127700   3.148   6.382   7.085 -0.9192  0.4133  2.0625
 2047TIP3    H227701   3.111   6.516   7.143  1.2592  1.3898  1.2488
 2048TIP3   OH227702   0.741   4.588   7.564  0.0111  0.2259 -0.2599
 2048TIP3    H127703   0.743   4.679   7.594  1.3084 -0.3399  1.4549
 2048TIP3    H227704   0.813   4.583   7.501 -2.1802  1.1976 -2.9441
 2049TIP3   OH227705   2.281   2.831   7.457 -0.1466  0.1020 -0.3466
 2049TIP3    H127706   2.313   2.863   7.373 -0.5755 -0.4391 -0.7146
 2049TIP3    H227707   2.221   2.899   7.487 -0.0520  0.2588 -0.5102
 2050TIP3   OH227708   0.991   6.110   6.414 -0.1690 -0.0958 -0.1071
 2050TIP3    H127709   0.995   6.205   6.400  0.9462 -0.3557 -1.6763
 2050TIP3    H227710   0.908   6.084   6.373 -0.8685  0.3102  1.0380
 2051TIP3   OH227711   1.421   4.674   0.838  0.3080 -0.5141 -0.5166
 2051TIP3    H127712   1.398   4.590   0.877 -0.9912 -0.7893 -1.8621
 2051TIP3    H227713   1.515   4.684   0.856  0.3035 -1.8873  0.3026
 2052TIP3   OH227714   0.493   4.140   7.623 -0.1813 -0.0910  0.0784
 2052TIP3    H127715   0.547   4.219   7.633 -2.1228  1.1782  0.8757
 2052TIP3    H227716   0.513   4.108   7.535  0.2942  1.5638 -0.4374
 2053TIP3   OH227717   4.779   5.537   8.088 -0.4227  0.1734 -0.0791
 2053TIP3    H127718   4.821   5.608   8.137  2.4737 -0.8770 -0.9113
 2053TIP3    H227719   4.818   5.457   8.123 -0.1542 -0.7337 -2.3267
 2054TIP3   OH227720   2.807   6.911   7.060 -0.3790 -0.0722  0.7699
 2054TIP3    H127721   2.847   6.917   7.147 -0.2560  3.3733  0.5533
 2054TIP3    H227722   2.732   6.970   7.064  0.9455  1.9349 -2.1156
 2055TIP3   OH227723   2.309   4.254   8.066  0.1800  0.3749 -1.1233
 2055TIP3    H127724   2.300   4.226   8.157 -0.5035  1.3371 -0.8921
 2055TIP3    H227725   2.248   4.198   8.017  1.3059 -0.8521 -1.1457
 2056TIP3   OH227726   3.134   4.068   7.344 -0.4448  0.5965 -0.2899
 2056TIP3    H127727   3.082   3.999   7.385 -1.1374 -0.3676 -2.7360
 2056TIP3    H227728   3.225   4.043   7.362 -0.6697 -1.3333 -1.6785
 2057TIP3   OH227729   1.926   5.616   6.726 -0.3200  0.2176  0.3158
 2057TIP3    H127730   1.915   5.703   6.688 -2.1493 -0.0614  0.1568
 2057TIP3    H227731   2.006   5.622   6.779 -0.1352  1.8220 -0.1366
 2058TIP3   OH227732   1.467   5.340   7.365  0.0315 -0.2900 -0.3086
 2058TIP3    H127733   1.398   5.293   7.412 -0.1903  0.3578  0.0146
 2058TIP3    H227734   1.543   5.334   7.423 -0.4537  1.1809  0.5133
 2059TIP3   OH227735   7.100   2.918   1.850 -0.3531  0.0009 -0.3184
 2059TIP3    H127736   7.140   2.884   1.930  0.6026  0.3024 -0.6628
 2059TIP3    H227737   7.006   2.923   1.870 -0.3385 -1.5234  0.2065
 2060TIP3   OH227738   2.237   4.838   6.137  0.0211 -0.5239 -0.1026
 2060TIP3    H127739   2.241   4.933   6.137  1.6637 -0.5590  1.1387
 2060TIP3    H227740   2.178   4.816   6.210 -2.1353 -0.4468 -1.7780
 2061TIP3   OH227741   2.007   6.692   7.764 -0.6212 -0.0823 -0.3995
 2061TIP3    H127742   2.013   6.686   7.669  0.5070 -0.1030 -0.3345
 2061TIP3    H227743   1.950   6.767   7.780  0.2492  0.7391 -1.0917
 2062TIP3   OH227744   3.087   6.769   6.290 -0.1746 -0.9096  0.0544
 2062TIP3    H127745   3.082   6.733   6.202  1.8287 -0.3489 -0.3008
 2062TIP3    H227746   3.153   6.838   6.285  0.6798 -1.5269  2.2167
 2063TIP3   OH227747   0.883   2.428   0.323  0.4912 -0.1786 -0.3442
 2063TIP3    H127748   0.887   2.472   0.238 -0.9966 -0.7648 -0.7260
 2063TIP3    H227749   0.892   2.499   0.387  0.3334  0.4215 -0.9783
 2064TIP3   OH227750   1.905   2.847   0.030 -0.1639  0.0343 -0.3745
 2064TIP3    H127751   1.988   2.890   0.011  0.6885 -1.0014  0.8535
 2064TIP3    H227752   1.899   2.849   0.126 -1.6146  0.2016 -0.4568
 2065TIP3   OH227753   3.282   3.528   6.910  0.2158  0.8053 -0.7015
 2065TIP3    H127754   3.329   3.552   6.830  1.4232 -1.6116 -0.7591
 2065TIP3    H227755   3.257   3.436   6.897 -2.3642  1.2951  0.3881
 2066TIP3   OH227756   2.148   4.239   0.410 -0.2970 -0.3567  0.0273
 2066TIP3    H127757   2.199   4.309   0.453  1.4543 -2.5160  1.6029
 2066TIP3    H227758   2.070   4.230   0.464  1.1199 -1.9395  1.8731
 2067TIP3   OH227759   4.657   4.649   0.085  0.3744 -0.3561  0.0830
 2067TIP3    H127760   4.650   4.744   0.084  0.0669 -0.3621  1.0746
 2067TIP3    H227761   4.654   4.626   0.178 -2.9907 -1.5869 -0.2695
 2068TIP3   OH227762   1.989   3.505   7.589 -0.1652 -0.0411  0.1666
 2068TIP3    H127763   2.041   3.562   7.645  0.4390 -2.7191  2.4515
 2068TIP3    H227764   2.021   3.523   7.500  1.2786  1.7829  1.0278
 2069TIP3   OH227765   2.017   2.210   0.790 -0.1620  0.5994 -0.3112
 2069TIP3    H127766   1.950   2.190   0.725 -2.1298 -1.0761  2.0910
 2069TIP3    H227767   1.984   2.169   0.871  1.7115  3.3671  1.9571
 2070TIP3   OH227768   4.737   2.688   6.872  0.0985 -0.5084  0.3746
 2070TIP3    H127769   4.722   2.778   6.901 -0.5378 -0.6233  0.4182
 2070TIP3    H227770   4.651   2.659   6.841 -0.5043 -2.2954  3.6012
 2071TIP3   OH227771   2.549   4.758   7.675 -0.0093  0.3092 -0.1876
 2071TIP3    H127772   2.586   4.793   7.594  0.3349 -1.4939 -0.8211
 2071TIP3    H227773   2.460   4.732   7.651 -0.4215  1.1585  0.3989
 2072TIP3   OH227774   2.771   4.841   0.627 -0.0542 -0.1899  0.2236
 2072TIP3    H127775   2.712   4.780   0.582  1.1487 -1.8033  0.7723
 2072TIP3    H227776   2.736   4.846   0.716  0.2985 -0.7149  0.3964
 2073TIP3   OH227777   2.451   4.022   7.158  0.0234 -1.0923 -0.1090
 2073TIP3    H127778   2.546   4.022   7.150  0.1339 -0.2319  1.0143
 2073TIP3    H227779   2.433   4.082   7.231 -1.2847 -2.5582  0.8200
 2074TIP3   OH227780   3.227   0.602   0.191  0.4221  0.1661 -0.5498
 2074TIP3    H127781   3.260   0.688   0.218  1.1652 -0.7546  1.6568
 2074TIP3    H227782   3.205   0.558   0.274 -0.4505 -1.5702 -1.6717
 2075TIP3   OH227783   3.222   3.169   8.310 -0.0874  0.0354 -0.3002
 2075TIP3    H127784   3.285   3.234   8.341  0.3300 -0.5496  0.0611
 2075TIP3    H227785   3.259   3.138   8.227  0.2552 -0.5402  0.0709
 2076TIP3   OH227786   2.086   5.560   6.356  0.1998 -0.4968 -0.1499
 2076TIP3    H127787   2.013   5.500   6.374  1.1958 -0.9725  2.6163
 2076TIP3    H227788   2.048   5.629   6.303 -1.8848 -1.5939 -0.1418
 2077TIP3   OH227789   2.528   3.926   6.047  0.7583 -0.3397 -0.3917
 2077TIP3    H127790   2.597   3.953   6.109 -0.7734 -2.6752  2.4897
 2077TIP3    H227791   2.448   3.962   6.084  0.0846  0.2263 -2.3662
 2078TIP3   OH227792   2.344   6.310   7.132 -0.6411  0.0727  0.5618
 2078TIP3    H127793   2.289   6.293   7.056 -1.0073  3.0715  0.0916
 2078TIP3    H227794   2.423   6.351   7.096 -0.8569  1.6010  1.7621
 2079TIP3   OH227795   3.694   4.953   6.508 -0.1300 -1.1660  0.2506
 2079TIP3    H127796   3.666   5.042   6.488 -0.2699 -1.5623 -1.4370
 2079TIP3    H227797   3.779   4.944   6.464 -0.7835 -2.3100 -0.8220
 2080TIP3   OH227798   5.652   4.256   7.224  0.4391  0.1927 -0.0660
 2080TIP3    H127799   5.678   4.340   7.184  0.8424  0.2817  0.3745
 2080TIP3    H227800   5.653   4.274   7.318  3.0970 -1.0035  0.1881
 2081TIP3   OH227801   4.052   3.863   0.674 -0.0898 -0.6500  0.5184
 2081TIP3    H127802   3.994   3.835   0.745  0.0108 -1.9983  0.0896
 2081TIP3    H227803   4.138   3.871   0.714  0.0355 -1.7594  0.4811
 2082TIP3   OH227804   4.035   5.482   8.223  0.1934 -0.1427  0.1735
 2082TIP3    H127805   4.072   5.487   8.135  2.3570  0.1903  1.0678
 2082TIP3    H227806   3.941   5.475   8.209  0.4788  0.2377 -2.1568
 2083TIP3   OH227807   3.639   5.995   6.904  0.4852  0.5934 -0.5301
 2083TIP3    H127808   3.668   6.055   6.836  1.7956  0.9807  0.3438
 2083TIP3    H227809   3.673   5.910   6.878  1.3488  0.8190 -0.1544
 2084TIP3   OH227810   2.998   2.871   8.048  0.0554 -0.3559  0.2533
 2084TIP3    H127811   3.036   2.889   7.962 -1.3675 -1.4538 -0.6350
 2084TIP3    H227812   2.911   2.912   8.044 -1.4216 -3.3724 -0.1500
 2085TIP3   OH227813   4.959   5.682   8.243  0.0633 -0.4681  0.2591
 2085TIP3    H127814   5.040   5.638   8.267  1.0552  0.9232 -0.5090
 2085TIP3    H227815   4.984   5.743   8.173 -1.6592 -0.1306 -0.0825
 2086TIP3   OH227816   2.798   6.084   0.024  0.5546 -0.4721 -0.0756
 2086TIP3    H127817   2.779   6.140  -0.052 -0.5679 -0.5233  0.1632
 2086TIP3    H227818   2.804   6.145   0.097  0.1831 -0.5723  0.0393
 2087TIP3   OH227819   2.360   5.573   6.361  0.3527  0.1040 -0.4228
 2087TIP3    H127820   2.407   5.557   6.443 -0.6418  0.7965  0.2895
 2087TIP3    H227821   2.268   5.557   6.382 -0.2160  2.7024 -0.7234
 2088TIP3   OH227822   3.382   6.842   7.037 -0.4797 -0.2626  0.0614
 2088TIP3    H127823   3.374   6.838   7.132  1.2527 -2.5140  0.1646
 2088TIP3    H227824   3.411   6.932   7.019 -1.5641  0.4103  1.5708
 2089TIP3   OH227825   2.363   3.726   7.033  0.3935  0.6912  0.0405
 2089TIP3    H127826   2.453   3.704   7.011  0.2192 -0.5058  0.4939
 2089TIP3    H227827   2.370   3.790   7.104  0.8747  0.3561  0.2900
 2090TIP3   OH227828   2.123   3.922   7.631 -0.1741  0.1376 -0.1129
 2090TIP3    H127829   2.194   3.899   7.570  0.0590  0.4432  0.0450
 2090TIP3    H227830   2.043   3.905   7.581  0.0073 -0.3392 -0.2456
 2091TIP3   OH227831   3.836   6.678   7.383  0.0424  0.1735  0.8543
 2091TIP3    H127832   3.741   6.673   7.393  0.1787 -0.2230  2.0024
 2091TIP3    H227833   3.871   6.632   7.459  1.1608  0.4411  0.5164
 2092TIP3   OH227834   4.247   6.485   7.404  0.4403  0.6736 -0.2486
 2092TIP3    H127835   4.343   6.492   7.398  0.2953  1.7459 -1.5578
 2092TIP3    H227836   4.227   6.400   7.364  0.8548  0.3705  0.1806
 2093TIP3   OH227837   2.677   4.377   7.038 -0.3637  0.3020  0.4894
 2093TIP3    H127838   2.666   4.409   7.128 -0.3273 -0.4271  0.7620
 2093TIP3    H227839   2.768   4.348   7.034 -0.2597  0.6829  0.0965
 2094TIP3   OH227840   1.954   3.536   8.076 -0.7378  0.2049 -0.3915
 2094TIP3    H127841   1.897   3.554   8.151 -0.7563 -1.5478  0.0328
 2094TIP3    H227842   2.028   3.595   8.088 -0.3827 -0.5608  1.4238
 2095TIP3   OH227843   2.651   5.000   8.442  0.0326  0.2766 -0.2277
 2095TIP3    H127844   2.578   4.938   8.448 -0.1986  0.5855  0.2601
 2095TIP3    H227845   2.723   4.958   8.488  0.0814  0.0837 -0.4800
 2096TIP3   OH227846   2.796   4.734   6.380 -0.4848 -0.1913  0.3480
 2096TIP3    H127847   2.711   4.732   6.335 -0.2022 -0.1790 -0.1970
 2096TIP3    H227848   2.812   4.826   6.398  0.6307  0.1078 -1.9328
 2097TIP3   OH227849   2.916   4.879   6.846  0.6931 -0.3170  0.4435
 2097TIP3    H127850   2.893   4.791   6.815 -0.9227  0.6750 -1.2678
 2097TIP3    H227851   2.983   4.909   6.786  0.1626  0.2041  0.1083
 2098TIP3   OH227852   3.010   5.100   7.627  0.8450 -0.8389 -0.1627
 2098TIP3    H127853   3.075   5.049   7.676  1.9582 -0.2837 -1.0149
 2098TIP3    H227854   2.987   5.044   7.553  0.5526 -0.9251 -0.0071
 2099TIP3   OH227855   3.152   7.052   0.187  0.3812  0.4641 -0.1022
 2099TIP3    H127856   3.071   7.050   0.238  1.3924  2.3969  1.6755
 2099TIP3    H227857   3.140   7.124   0.126 -0.0540 -0.6047 -1.2944
 2100TIP3   OH227858   2.068   4.109   6.734  0.3677 -0.2583  0.6521
 2100TIP3    H127859   2.011   4.032   6.735 -1.0624  0.7582 -0.2237
 2100TIP3    H227860   2.016   4.177   6.692  1.8797  0.9926  0.7354
 2101TIP3   OH227861   3.938   6.008   0.547  0.2189  0.1259 -0.6243
 2101TIP3    H127862   3.857   5.957   0.549  1.1625 -1.3546  2.7377
 2101TIP3    H227863   3.909   6.098   0.561 -0.9700 -0.1838 -0.9842
 2102TIP3   OH227864   0.707   4.327   7.625  0.0484 -0.0614 -0.3419
 2102TIP3    H127865   0.755   4.315   7.708 -1.4291 -0.5366  0.4538
 2102TIP3    H227866   0.715   4.420   7.606  0.4639  0.0379  0.2886
 2103TIP3   OH227867   3.095   5.447   8.477  0.1458  0.3977 -0.1099
 2103TIP3    H127868   3.159   5.477   8.412  1.1981 -0.4402  0.5152
 2103TIP3    H227869   3.133   5.472   8.561 -1.5710  2.1527  0.1860
 2104TIP3   OH227870   2.011   5.443   8.276  0.0694 -0.7755  0.8206
 2104TIP3    H127871   2.009   5.383   8.350 -0.0333 -0.9787  0.6560
 2104TIP3    H227872   2.084   5.412   8.222 -0.0016 -0.7717  0.7208
 2105TIP3   OH227873   2.119   7.093   7.332  0.0319 -0.4629  0.2950
 2105TIP3    H127874   2.113   7.036   7.255  2.5993 -1.1720  0.5636
 2105TIP3    H227875   2.208   7.079   7.365  0.3243  2.8219  1.0463
 2106TIP3   OH227876   4.508   6.031   0.473  0.1069  0.6094 -0.0349
 2106TIP3    H127877   4.529   6.065   0.560  0.1594  1.9333 -0.5624
 2106TIP3    H227878   4.432   6.082   0.444  0.5633  0.7022 -1.0841
 2107TIP3   OH227879   1.523   3.567   1.150 -0.1774 -0.6595  0.1820
 2107TIP3    H127880   1.586   3.560   1.079 -0.1623  1.4973 -0.0354
 2107TIP3    H227881   1.451   3.509   1.124  1.6191 -3.0406  0.3728
 2108TIP3   OH227882   2.171   5.257   8.003 -0.1366 -0.3205  0.3960
 2108TIP3    H127883   2.168   5.325   7.935  0.6717  0.0088  0.6828
 2108TIP3    H227884   2.252   5.274   8.051 -0.7607 -0.4783  1.5274
 2109TIP3   OH227885   2.283   5.289   7.005  0.7739 -0.2933 -0.3258
 2109TIP3    H127886   2.355   5.226   7.001  0.9788 -0.2046  1.3369
 2109TIP3    H227887   2.302   5.340   7.084 -1.5856 -0.8350  0.6054
 2110TIP3   OH227888   2.299   3.422   8.087  0.2474 -0.3180 -0.2788
 2110TIP3    H127889   2.390   3.414   8.116 -0.4488 -0.5583  1.9090
 2110TIP3    H227890   2.272   3.509   8.117  0.2847  0.5419 -2.5761
 2111TIP3   OH227891   1.749   6.151   6.288  0.2016 -0.2490  0.2267
 2111TIP3    H127892   1.734   6.211   6.362 -0.5321 -1.3428  0.9862
 2111TIP3    H227893   1.689   6.182   6.220 -0.8915 -0.6996  0.9683
 2112TIP3   OH227894   0.773   5.223   6.811 -0.1895  0.3154 -0.0217
 2112TIP3    H127895   0.688   5.208   6.852  0.0808 -0.3473  0.2903
 2112TIP3    H227896   0.753   5.277   6.735 -0.5116  2.9329  1.8538
 2113TIP3   OH227897   2.114   6.450   1.224  0.4987  0.2658 -0.0366
 2113TIP3    H127898   2.043   6.386   1.227  1.0598 -0.3240  0.7404
 2113TIP3    H227899   2.186   6.405   1.180  1.1111  0.1313  1.0765
 2114TIP3   OH227900   2.075   6.421   6.235  0.0913  0.5758  0.4067
 2114TIP3    H127901   2.167   6.396   6.244  0.5881  2.2839  0.3090
 2114TIP3    H227902   2.026   6.341   6.253  1.5490  0.0162  1.9653
 2115TIP3   OH227903   1.723   5.169   7.974  0.1047  0.0510  0.0513
 2115TIP3    H127904   1.747   5.156   7.882  0.2052  1.0878 -0.0716
 2115TIP3    H227905   1.791   5.123   8.023  0.4021  0.0277 -0.3797
 2116TIP3   OH227906   2.934   4.254   6.969  0.3430 -0.0881 -0.8020
 2116TIP3    H127907   2.977   4.244   6.884  0.5827 -0.2350 -0.6650
 2116TIP3    H227908   2.954   4.172   7.015  1.4861  0.6036 -0.0421
 2117TIP3   OH227909   1.019   4.050   0.369  0.0406  0.1183 -0.0565
 2117TIP3    H127910   0.979   3.992   0.434 -1.9794  0.9340 -0.5068
 2117TIP3    H227911   1.058   3.992   0.304  1.1525 -0.7042  1.3214
 2118TIP3   OH227912   3.366   2.092   6.619 -0.8075 -0.5280 -0.3427
 2118TIP3    H127913   3.311   2.078   6.541  0.1289 -1.4858 -0.8348
 2118TIP3    H227914   3.308   2.137   6.680 -1.1605  1.5002 -2.0934
 2119TIP3   OH227915   1.663   4.402   6.099 -0.2722 -0.1533  0.4198
 2119TIP3    H127916   1.609   4.329   6.128  1.1940 -1.1105  0.7701
 2119TIP3    H227917   1.753   4.372   6.112  0.3418  1.6980  0.5205
 2120TIP3   OH227918   3.203   5.899   6.886 -0.1614 -0.0341 -0.5658
 2120TIP3    H127919   3.218   5.974   6.829 -0.1099  0.2875 -0.1340
 2120TIP3    H227920   3.285   5.889   6.934 -0.8475  0.9104  0.8514
 2121TIP3   OH227921   2.560   3.126   7.154  0.3551 -0.5361 -0.3303
 2121TIP3    H127922   2.642   3.079   7.139  0.7124  0.4049 -1.3960
 2121TIP3    H227923   2.586   3.204   7.203  0.2443  0.2693 -1.5398
 2122TIP3   OH227924   2.205   3.698   6.175  0.7142  0.0938  0.0449
 2122TIP3    H127925   2.193   3.742   6.090 -0.9936 -3.2648 -1.5285
 2122TIP3    H227926   2.120   3.708   6.219  0.7997 -0.3092  0.3027
 2123TIP3   OH227927   1.792   5.376   6.192 -0.2130  0.0393 -0.6973
 2123TIP3    H127928   1.821   5.368   6.283 -1.2539 -0.6385 -0.4244
 2123TIP3    H227929   1.806   5.289   6.155 -0.9692 -0.0207 -0.8379
 2124TIP3   OH227930   2.662   6.091   6.919  0.0790 -0.1690  0.0929
 2124TIP3    H127931   2.622   6.130   6.841  1.8925  0.4158 -0.5724
 2124TIP3    H227932   2.722   6.158   6.951  0.1452 -0.8283  1.3692
 2125TIP3   OH227933   5.296   6.967   7.627  0.3696  0.2348 -0.3697
 2125TIP3    H127934   5.269   6.977   7.535  2.8064  2.1065 -0.9313
 2125TIP3    H227935   5.342   6.883   7.629  0.1893  0.1206 -0.8328
 2126TIP3   OH227936   1.752   2.661   6.643 -0.0449 -0.1449  0.5785
 2126TIP3    H127937   1.697   2.721   6.593 -1.1780  0.8007  2.8665
 2126TIP3    H227938   1.736   2.575   6.603  1.0752  0.9186 -2.2816
 2127TIP3   OH227939   3.914   3.489   7.552 -0.5248  0.0102 -0.1436
 2127TIP3    H127940   3.922   3.558   7.487 -1.1305 -0.2148 -0.4572
 2127TIP3    H227941   3.826   3.454   7.541 -0.4515 -0.3858  0.4416
 2128TIP3   OH227942   1.449   5.740   6.817  0.2043  0.0405  0.6173
 2128TIP3    H127943   1.517   5.795   6.855 -0.7200  1.6855 -0.0378
 2128TIP3    H227944   1.368   5.766   6.861 -0.4492  0.1108 -0.5773
 2129TIP3   OH227945   1.426   4.155   6.992 -0.3570  0.4339 -0.1785
 2129TIP3    H127946   1.454   4.128   7.080  3.6920  0.7624 -1.2293
 2129TIP3    H227947   1.443   4.249   6.990  0.7834  0.2262 -1.6489
 2130TIP3   OH227948   3.115   3.793   7.445 -0.3439  0.0540  0.2881
 2130TIP3    H127949   3.133   3.734   7.518  0.2423  0.8464  0.7948
 2130TIP3    H227950   3.178   3.769   7.378  0.3702  0.5709  0.7671
 2131TIP3   OH227951   4.417   5.358   6.025 -0.0915 -0.2133  0.6132
 2131TIP3    H127952   4.510   5.377   6.037 -0.1892 -0.2075  1.3511
 2131TIP3    H227953   4.374   5.443   6.032 -0.0053  0.0181 -1.3026
 2132TIP3   OH227954   4.110   2.572   6.666 -0.3019  0.2138  0.0780
 2132TIP3    H127955   4.082   2.637   6.601 -0.1739 -0.4831 -0.6911
 2132TIP3    H227956   4.182   2.526   6.623  0.7642  0.7141  1.2942
 2133TIP3   OH227957   4.734   5.230   8.283  0.1603 -0.4818  0.1110
 2133TIP3    H127958   4.719   5.286   8.359  0.3939  1.4789 -1.2398
 2133TIP3    H227959   4.647   5.219   8.244  0.1965 -0.5607  0.0505
 2134TIP3   OH227960   6.040   5.966   0.978 -0.0580 -0.4171 -0.4384
 2134TIP3    H127961   6.033   6.058   0.952 -1.2366 -0.1799  0.6402
 2134TIP3    H227962   6.074   5.921   0.901  0.3585  0.9016 -1.0255
 2135TIP3   OH227963   5.533   5.779   6.627 -0.1782 -0.0350  0.4999
 2135TIP3    H127964   5.570   5.716   6.565  0.1413  0.1543  0.4955
 2135TIP3    H227965   5.607   5.836   6.650 -0.8909  1.5204 -0.9727
 2136TIP3   OH227966   3.912   4.338   0.888 -0.7095 -0.0922  0.3324
 2136TIP3    H127967   3.936   4.270   0.826 -0.6988  1.6353 -1.6228
 2136TIP3    H227968   3.832   4.306   0.930 -0.3893 -1.5359 -0.1405
 2137TIP3   OH227969   5.661   5.427   7.215  0.7329 -0.5149 -0.5624
 2137TIP3    H127970   5.641   5.490   7.146 -0.2615 -1.5351 -1.2272
 2137TIP3    H227971   5.701   5.353   7.169  4.2968  0.6406  0.5016
 2138TIP3   OH227972   4.609   5.022   6.557  0.2876 -0.2469 -0.6997
 2138TIP3    H127973   4.683   5.083   6.559  0.3215 -0.2478 -1.5662
 2138TIP3    H227974   4.609   4.981   6.643  1.3907 -0.3626 -0.7506
 2139TIP3   OH227975   0.109   6.464   7.483  0.0415  0.2847  0.0638
 2139TIP3    H127976   0.085   6.372   7.490  0.0114  0.2974  0.1293
 2139TIP3    H227977   0.194   6.470   7.527  1.7823 -0.3795 -3.0208
 2140TIP3   OH227978   4.087   4.569   7.297  0.4046 -0.4303 -0.3904
 2140TIP3    H127979   4.074   4.645   7.241 -1.9632 -0.8642 -0.4616
 2140TIP3    H227980   4.094   4.495   7.237  3.1919 -0.2539 -0.3473
 2141TIP3   OH227981   4.160   3.686   6.566 -0.1740 -0.0674  0.4207
 2141TIP3    H127982   4.154   3.597   6.600  2.4506 -0.4567 -0.0081
 2141TIP3    H227983   4.241   3.720   6.603  1.1443  0.5876 -2.8834
 2142TIP3   OH227984   4.530   4.531   7.624  0.0118 -0.1212  0.0311
 2142TIP3    H127985   4.519   4.621   7.593 -0.4431 -0.3426 -0.4672
 2142TIP3    H227986   4.494   4.531   7.713  1.2972  0.5117  0.5439
 2143TIP3   OH227987   2.852   7.263   7.052 -0.6699  0.2473 -0.3172
 2143TIP3    H127988   2.785   7.197   7.034  0.0690 -0.4864 -0.4417
 2143TIP3    H227989   2.838   7.287   7.144 -0.0958 -1.0902  0.1377
 2144TIP3   OH227990   5.272   4.960   7.343 -0.6045  0.3046 -0.2892
 2144TIP3    H127991   5.327   4.900   7.292 -0.7338 -0.0655  0.0026
 2144TIP3    H227992   5.326   4.984   7.419 -0.5614  0.5422 -0.3948
 2145TIP3   OH227993   5.649   4.787   6.642  0.0464 -0.4281  0.0133
 2145TIP3    H127994   5.563   4.825   6.623  0.4077  0.1249 -0.5466
 2145TIP3    H227995   5.687   4.769   6.555  1.0136  0.5074  0.2398
 2146TIP3   OH227996   4.268   3.946   7.679 -0.3749  0.0580  0.1185
 2146TIP3    H127997   4.350   3.898   7.686  0.0125  0.6991  0.0010
 2146TIP3    H227998   4.216   3.895   7.617 -0.5302 -0.9896  1.1062
 2147TIP3   OH227999   4.086   6.279   7.847 -0.4395  0.3191 -0.3485
 2147TIP3    H128000   4.154   6.314   7.790  0.2471 -0.9609 -0.3571
 2147TIP3    H228001   4.014   6.256   7.789 -0.2752  0.2765 -0.5340
 2148TIP3   OH228002   2.902   3.287   7.044 -0.1679  0.4044 -0.0827
 2148TIP3    H128003   2.949   3.206   7.064  1.0816  1.6388  2.2161
 2148TIP3    H228004   2.941   3.319   6.962 -0.1008 -0.8706 -0.5473
 2149TIP3   OH228005   3.295   5.380   0.542 -0.5436 -0.7685 -0.2320
 2149TIP3    H128006   3.333   5.464   0.568  1.6736 -1.2866 -1.6492
 2149TIP3    H228007   3.323   5.320   0.611  0.6320 -0.9952 -0.8927
 2150TIP3   OH228008   2.858   3.760   6.591 -0.0052  0.0999  0.3857
 2150TIP3    H128009   2.915   3.795   6.522 -1.7001 -2.6518 -2.5723
 2150TIP3    H228010   2.805   3.834   6.619  0.7628  1.3127 -1.2720
 2151TIP3   OH228011   3.628   2.279   7.796  0.0171 -0.1292 -0.0041
 2151TIP3    H128012   3.681   2.230   7.732 -0.0401  0.7520 -0.7415
 2151TIP3    H228013   3.598   2.213   7.857  1.0828 -0.8146 -0.1977
 2152TIP3   OH228014   2.648   3.387   7.008  0.1416  0.4310  0.1099
 2152TIP3    H128015   2.666   3.479   7.025  1.5434 -0.0204  1.2687
 2152TIP3    H228016   2.735   3.345   7.009 -0.4229 -0.7949 -0.9953
 2153TIP3   OH228017   4.118   4.644   7.967 -0.2227  0.0898  0.6445
 2153TIP3    H128018   4.139   4.723   7.916  0.7742 -0.9617 -0.5875
 2153TIP3    H228019   4.199   4.594   7.968 -0.8818 -0.9758  1.3472
 2154TIP3   OH228020   3.924   5.022   0.384  0.1360 -0.2224 -0.1821
 2154TIP3    H128021   4.002   5.010   0.330  0.3109 -0.2012  0.0642
 2154TIP3    H228022   3.913   5.117   0.391 -1.2070 -0.2073 -2.0700
 2155TIP3   OH228023   3.384   4.094   8.445 -0.1993  0.6722  0.6272
 2155TIP3    H128024   3.381   4.186   8.419  0.1252  0.1484 -1.3940
 2155TIP3    H228025   3.326   4.050   8.383 -1.9034 -0.2283  2.8227
 2156TIP3   OH228026   4.340   4.268   7.094 -1.0835  0.0206  0.6025
 2156TIP3    H128027   4.330   4.363   7.085  1.7194  0.0823 -3.1688
 2156TIP3    H228028   4.414   4.257   7.153 -0.0598  0.2232 -0.6416
 2157TIP3   OH228029   3.823   5.568   7.413  0.0330 -0.3621 -0.3142
 2157TIP3    H128030   3.848   5.536   7.499 -0.4212  0.7939  0.2492
 2157TIP3    H228031   3.740   5.523   7.394  1.1045 -2.1221 -1.0229
 2158TIP3   OH228032   0.451   3.492   1.053 -0.5745 -0.7002 -0.3657
 2158TIP3    H128033   0.420   3.551   0.984  0.1994  0.8914  0.6143
 2158TIP3    H228034   0.529   3.451   1.017  0.8305  1.4359  0.1768
 2159TIP3   OH228035   4.310   6.184   0.359  0.5806  0.0106  0.2119
 2159TIP3    H128036   4.249   6.150   0.294 -0.3612  0.5862  0.7770
 2159TIP3    H228037   4.282   6.274   0.374  1.4696  0.2314  0.6085
 2160TIP3   OH228038   4.352   4.210   7.756  0.6119 -0.1500  0.0219
 2160TIP3    H128039   4.333   4.117   7.745 -0.7972  0.1390  0.0091
 2160TIP3    H228040   4.314   4.252   7.679  1.5422  0.4079 -0.1460
 2161TIP3   OH228041   3.488   6.782   0.339 -0.6924 -0.3861 -0.2767
 2161TIP3    H128042   3.424   6.814   0.275 -0.1191  1.0642 -0.1401
 2161TIP3    H228043   3.501   6.856   0.399  0.4745 -0.9554  0.1889
 2162TIP3   OH228044   3.073   4.829   8.382 -0.1913 -0.4301 -0.3046
 2162TIP3    H128045   3.070   4.734   8.394  2.5487 -0.5411 -0.1584
 2162TIP3    H228046   3.006   4.863   8.442 -0.5831 -2.2130  0.2927
 2163TIP3   OH228047   3.590   4.375   7.374  0.2409  0.3332  0.6470
 2163TIP3    H128048   3.542   4.458   7.366 -0.0203  0.1716  0.5096
 2163TIP3    H228049   3.607   4.348   7.284 -0.8831 -0.4514  0.6598
 2164TIP3   OH228050   4.210   4.132   5.885  0.1849  0.0477 -0.0186
 2164TIP3    H128051   4.290   4.183   5.883 -0.6284  1.3230 -1.3083
 2164TIP3    H228052   4.235   4.048   5.924  1.7689  1.0321  1.1169
 2165TIP3   OH228053   6.281   5.021   6.850  0.3007  0.6250  0.2770
 2165TIP3    H128054   6.189   5.012   6.875 -0.1473 -2.1049 -2.1328
 2165TIP3    H228055   6.317   4.932   6.860  2.3920  1.4124  0.0377
 2166TIP3   OH228056   3.406   5.641   6.833  0.0793  0.2914 -0.3676
 2166TIP3    H128057   3.454   5.691   6.899 -1.3493  0.8099  0.2929
 2166TIP3    H228058   3.432   5.681   6.749  0.8517  0.5107 -0.0280
 2167TIP3   OH228059   1.592   5.692   0.949 -0.1848 -0.8136  0.1894
 2167TIP3    H128060   1.590   5.786   0.966 -0.4810 -1.0295  1.3676
 2167TIP3    H228061   1.510   5.673   0.904 -1.4372 -0.9793  2.4960
 2168TIP3   OH228062   5.189   5.494   6.363 -0.1123  0.2511  0.1542
 2168TIP3    H128063   5.211   5.541   6.282  3.6437 -1.9882 -0.2352
 2168TIP3    H228064   5.167   5.406   6.334 -2.3562  0.3726  1.3352
 2169TIP3   OH228065   5.976   5.890   8.446 -0.6078 -0.0750  0.0389
 2169TIP3    H128066   5.898   5.927   8.405 -0.8803 -0.1041  0.5259
 2169TIP3    H228067   6.038   5.880   8.374 -1.3405 -0.8288 -0.5053
 2170TIP3   OH228068   2.750   3.694   7.081  0.2343 -0.3523 -0.2694
 2170TIP3    H128069   2.793   3.661   7.002  1.9161  0.5038  0.2592
 2170TIP3    H228070   2.823   3.718   7.139 -0.9642 -1.2261  1.6464
 2171TIP3   OH228071   2.628   3.919   8.064 -1.0322 -0.0937 -0.2481
 2171TIP3    H128072   2.585   3.858   8.124 -2.5064  1.9275  0.8086
 2171TIP3    H228073   2.558   3.952   8.008  0.1484 -1.1410 -2.4265
 2172TIP3   OH228074   3.097   3.483   0.387  0.8563  0.1132 -1.1442
 2172TIP3    H128075   3.159   3.421   0.425 -0.9854  0.0428  1.9127
 2172TIP3    H228076   3.116   3.566   0.431 -1.9285 -0.1838  0.7467
 2173TIP3   OH228077   7.218   4.603   0.207 -0.9265  0.0194 -0.3756
 2173TIP3    H128078   7.182   4.684   0.242  0.4680  1.3366 -1.9088
 2173TIP3    H228079   7.274   4.630   0.134 -0.0052 -2.2729 -0.5868
 2174TIP3   OH228080   4.164   5.366   7.257  0.1477 -0.0566  0.1376
 2174TIP3    H128081   4.165   5.439   7.195  0.9192 -1.2848 -1.3415
 2174TIP3    H228082   4.246   5.375   7.306  0.9439 -0.7270 -1.0333
 2175TIP3   OH228083   3.516   3.952   7.843  0.1792 -0.5612 -0.1846
 2175TIP3    H128084   3.523   3.932   7.750 -0.4508  2.5489 -0.9625
 2175TIP3    H228085   3.446   4.017   7.849 -0.0368 -0.9550  2.5162
 2176TIP3   OH228086   6.835   6.227   7.092 -0.0748  0.4663  0.3486
 2176TIP3    H128087   6.777   6.302   7.085 -0.0877  0.4398  0.1896
 2176TIP3    H228088   6.791   6.168   7.153 -0.2136  0.4484  0.2307
 2177TIP3   OH228089   5.440   4.943   6.583  0.0420  0.3470  0.0257
 2177TIP3    H128090   5.348   4.945   6.555 -0.5150  1.3924  1.9150
 2177TIP3    H228091   5.473   5.031   6.564  0.1390  0.5319  1.0371
 2178TIP3   OH228092   6.363   5.739   8.487 -0.6938 -0.1621 -0.0540
 2178TIP3    H128093   6.331   5.671   8.547  0.8692 -0.8920 -0.0261
 2178TIP3    H228094   6.337   5.821   8.528 -0.3655 -0.6793  1.2126
 2179TIP3   OH228095   4.330   4.940   8.274  0.7070 -0.0439  0.1543
 2179TIP3    H128096   4.363   4.929   8.363  0.6877 -3.2718 -0.1654
 2179TIP3    H228097   4.287   4.856   8.254 -3.1109  2.1487 -1.3507
 2180TIP3   OH228098   0.480   6.251   6.427  0.7181  0.1355 -0.7079
 2180TIP3    H128099   0.445   6.205   6.351 -0.9164  1.0643 -0.5392
 2180TIP3    H228100   0.468   6.344   6.408 -1.6434  0.3483  1.5387
 2181TIP3   OH228101   3.952   2.846   6.658 -0.4599  0.2358  0.5682
 2181TIP3    H128102   3.919   2.935   6.666 -1.9173 -0.1247 -1.1435
 2181TIP3    H228103   3.980   2.839   6.567 -0.1183 -0.9672  0.7582
 2182TIP3   OH228104   3.169   3.768   0.975 -0.1282 -0.3592  0.1620
 2182TIP3    H128105   3.110   3.800   0.907 -1.0508 -1.8707  0.2449
 2182TIP3    H228106   3.213   3.847   1.008 -1.2745  0.6316 -0.6694
 2183TIP3   OH228107   5.935   6.499   8.320  0.4855  0.5723  0.2415
 2183TIP3    H128108   5.853   6.450   8.326  1.2827 -0.9181 -0.7053
 2183TIP3    H228109   5.950   6.531   8.409 -1.5840  1.6578  0.2323
 2184TIP3   OH228110   2.057   5.535   7.538  0.1886 -0.3659 -0.8008
 2184TIP3    H128111   2.116   5.488   7.479  1.4196  0.4100 -0.2225
 2184TIP3    H228112   2.089   5.513   7.626 -0.2260  0.2867 -0.4851
 2185TIP3   OH228113   3.439   5.872   7.031 -0.1598  0.5574  0.6594
 2185TIP3    H128114   3.512   5.924   6.999  0.6821 -0.3857  1.0211
 2185TIP3    H228115   3.430   5.899   7.123 -0.6116  1.0545  0.4710
 2186TIP3   OH228116   3.291   5.148   7.070  0.4425 -0.5858  0.2962
 2186TIP3    H128117   3.295   5.054   7.055  0.5063 -0.4222 -0.7549
 2186TIP3    H228118   3.239   5.182   6.997  0.9619  0.2685  0.3131
 2187TIP3   OH228119   4.414   4.546   8.294 -0.1796 -0.1924 -1.1475
 2187TIP3    H128120   4.481   4.595   8.341  0.4209 -0.4500 -1.7400
 2187TIP3    H228121   4.344   4.610   8.280  0.0352  0.1374 -0.7338
 2188TIP3   OH228122   3.869   4.520   8.042 -0.0164  0.2562  0.3807
 2188TIP3    H128123   3.948   4.567   8.016 -0.7703  0.8160 -0.9992
 2188TIP3    H228124   3.875   4.435   7.999 -1.1236  1.0718 -1.4574
 2189TIP3   OH228125   1.672   5.393   0.588 -0.0013 -0.5008 -0.2952
 2189TIP3    H128126   1.676   5.469   0.531  1.0549 -1.3105 -1.3253
 2189TIP3    H228127   1.757   5.392   0.632  0.1512 -1.3246 -0.6041
 2190TIP3   OH228128   5.022   4.313   7.216  0.3312  0.3683 -0.4052
 2190TIP3    H128129   5.041   4.237   7.161 -2.0972  1.0126 -2.2491
 2190TIP3    H228130   5.069   4.385   7.174  2.2367  0.0281  1.0662
 2191TIP3   OH228131   3.148   4.512   6.691 -0.0350  0.4480  0.2365
 2191TIP3    H128132   3.120   4.571   6.621 -0.7751 -2.3052 -1.8777
 2191TIP3    H228133   3.077   4.516   6.756  0.0912  2.1369  0.2689
 2192TIP3   OH228134   3.809   2.956   7.260 -0.3943 -0.3285  0.0531
 2192TIP3    H128135   3.852   2.940   7.176  0.4745 -0.4611  0.5132
 2192TIP3    H228136   3.871   2.923   7.325 -0.3184  1.3256  0.8398
 2193TIP3   OH228137   2.350   4.984   0.006 -0.4628 -0.7713  0.1363
 2193TIP3    H128138   2.347   4.888   0.005 -1.5522 -0.7600  1.1089
 2193TIP3    H228139   2.340   5.007   0.098 -1.7889  0.3096 -0.2539
 2194TIP3   OH228140   3.043   4.720   6.552  0.9185 -0.1834  0.2055
 2194TIP3    H128141   3.077   4.793   6.500  1.1090 -0.4969 -0.1040
 2194TIP3    H228142   2.967   4.689   6.503  0.7046 -0.0554  0.4498
 2195TIP3   OH228143   0.857   3.369   8.367 -0.2372 -0.1732  0.3003
 2195TIP3    H128144   0.856   3.461   8.396 -0.2836 -0.5500  1.5255
 2195TIP3    H228145   0.905   3.371   8.284 -0.6793  1.0326  0.0679
 2196TIP3   OH228146   4.800   6.393   6.305  0.0448 -0.6281  0.1343
 2196TIP3    H128147   4.872   6.376   6.243  0.6943  0.7916  0.4661
 2196TIP3    H228148   4.773   6.307   6.334  0.9116 -1.2403 -0.8096
 2197TIP3   OH228149   3.576   4.664   0.913 -0.0857  0.6472  0.0696
 2197TIP3    H128150   3.499   4.721   0.916  0.3367  1.2493 -0.5206
 2197TIP3    H228151   3.650   4.724   0.917  0.3963  0.2978 -2.6872
 2198TIP3   OH228152   2.574   4.512   7.810  0.1126 -0.5001  0.3297
 2198TIP3    H128153   2.598   4.599   7.778 -0.2912 -0.4684  0.1105
 2198TIP3    H228154   2.554   4.524   7.902 -0.9341 -0.1749  0.0591
 2199TIP3   OH228155   3.915   2.535   7.210  0.1869  0.2739  0.5194
 2199TIP3    H128156   3.876   2.449   7.191 -1.3591  0.7287  1.5620
 2199TIP3    H228157   3.897   2.550   7.303 -1.4355  2.6493 -0.1318
 2200TIP3   OH228158   3.382   2.363   6.420  0.1774  0.2936  0.0952
 2200TIP3    H128159   3.332   2.289   6.454 -0.4077 -0.6518 -2.7065
 2200TIP3    H228160   3.439   2.389   6.492 -1.6490 -1.0322  2.0759
 2201TIP3   OH228161   3.357   3.139   7.205 -0.0820 -0.1577  1.1004
 2201TIP3    H128162   3.338   3.220   7.159 -0.2002 -0.3536  0.8060
 2201TIP3    H228163   3.288   3.079   7.179  0.0383 -0.3731  1.2719
 2202TIP3   OH228164   1.790   5.280   8.463 -0.6069 -0.6178  0.9278
 2202TIP3    H128165   1.830   5.255   8.546 -0.5291  2.8477  2.0234
 2202TIP3    H228166   1.801   5.375   8.458  0.0949 -0.8187 -3.4560
 2203TIP3   OH228167   6.899   5.404   8.377 -0.1286 -0.5490 -0.6391
 2203TIP3    H128168   6.921   5.324   8.329  1.6405  0.0064 -0.7738
 2203TIP3    H228169   6.892   5.471   8.309  0.8399 -0.0825 -0.2818
 2204TIP3   OH228170   3.232   5.960   8.059 -0.4541  0.3246 -0.0372
 2204TIP3    H128171   3.306   5.990   8.006 -0.5058 -0.9926 -0.8716
 2204TIP3    H228172   3.272   5.927   8.139 -0.0522 -1.1213 -0.8135
 2205TIP3   OH228173   5.168   5.980   7.620  0.0567  0.6030  0.5657
 2205TIP3    H128174   5.197   5.973   7.529 -0.8257 -0.5771  0.3630
 2205TIP3    H228175   5.225   5.919   7.668 -1.2269 -0.7585  0.3723
 2206TIP3   OH228176   3.426   4.586   7.117 -0.1059 -0.2314 -0.3296
 2206TIP3    H128177   3.486   4.517   7.088  1.3980  0.5854  0.7689
 2206TIP3    H228178   3.480   4.664   7.124 -1.1792  0.4183  1.1853
 2207TIP3   OH228179   6.356   5.794   0.580 -0.4576 -0.2127  0.4847
 2207TIP3    H128180   6.392   5.867   0.530  2.2764 -0.7156  1.6031
 2207TIP3    H228181   6.344   5.725   0.515  0.2718  0.0977  0.0024
 2208TIP3   OH228182   4.786   4.315   7.590  0.0867  0.1091 -0.0824
 2208TIP3    H128183   4.762   4.310   7.497 -0.3173 -1.1217  0.0697
 2208TIP3    H228184   4.732   4.386   7.625 -0.2448  0.1455 -0.6590
 2209TIP3   OH228185   3.503   4.651   6.620 -0.3653  0.7761  0.6978
 2209TIP3    H128186   3.474   4.742   6.612 -1.3124  0.3727 -0.6481
 2209TIP3    H228187   3.593   4.651   6.588 -0.6205  1.0994 -0.0265
 2210TIP3   OH228188   4.211   3.370   8.456 -0.1599 -0.3128 -0.1016
 2210TIP3    H128189   4.217   3.340   8.546  2.7985 -0.3256 -0.2677
 2210TIP3    H228190   4.278   3.320   8.409 -0.4196  0.9857 -1.9177
 2211TIP3   OH228191   3.278   5.137   6.498 -0.7296 -0.2508 -0.2071
 2211TIP3    H128192   3.339   5.161   6.430  3.4867 -3.9967  1.9782
 2211TIP3    H228193   3.279   5.210   6.559 -0.9789  1.1151 -1.8215
 2212TIP3   OH228194   4.758   5.369   7.083  0.2091 -0.5907  0.0450
 2212TIP3    H128195   4.735   5.461   7.087  0.4478 -0.5125 -0.4107
 2212TIP3    H228196   4.740   5.343   6.993  0.1432 -0.9895  0.1703
 2213TIP3   OH228197   3.710   6.708   7.057 -0.1555 -0.8299 -0.3292
 2213TIP3    H128198   3.684   6.798   7.037  0.4243 -0.9656 -1.7476
 2213TIP3    H228199   3.634   6.670   7.099 -0.5799  0.1852 -0.1634
 2214TIP3   OH228200   4.237   5.014   6.318 -0.4498 -0.0376 -0.0281
 2214TIP3    H128201   4.199   5.084   6.265  0.0358 -0.3940 -0.8721
 2214TIP3    H228202   4.175   4.942   6.312 -0.6579  0.1127  0.3375
 2215TIP3   OH228203   7.167   5.656   0.403 -0.8834  0.1952  0.0539
 2215TIP3    H128204   7.108   5.685   0.472  0.1172 -1.2839  1.5772
 2215TIP3    H228205   7.186   5.565   0.425  1.1769  0.3550 -0.9763
 2216TIP3   OH228206   6.976   0.474   7.653 -0.0676  0.3929 -0.4293
 2216TIP3    H128207   6.951   0.392   7.696  1.2046  0.0861 -0.2827
 2216TIP3    H228208   7.048   0.451   7.595 -0.5598  1.1663 -1.3781
 2217TIP3   OH228209   3.377   3.453   0.511 -0.0812 -0.2782 -0.3418
 2217TIP3    H128210   3.392   3.547   0.516 -2.1485  0.1329 -1.2583
 2217TIP3    H228211   3.410   3.428   0.425  0.0964 -0.3119 -0.2633
 2218TIP3   OH228212   5.139   4.484   6.006 -0.2578 -0.0672 -0.0842
 2218TIP3    H128213   5.197   4.549   5.967 -0.4907 -0.0230 -0.3564
 2218TIP3    H228214   5.076   4.534   6.057 -0.1246 -0.1083  0.1171
 2219TIP3   OH228215   3.242   5.591   7.049 -0.0629  0.3687  0.4163
 2219TIP3    H128216   3.261   5.510   7.001  0.1955  0.6851 -0.0104
 2219TIP3    H228217   3.306   5.654   7.018 -1.6559  1.3953 -0.9003
 2220TIP3   OH228218   4.453   5.163   6.227  0.3285  0.1381  0.1831
 2220TIP3    H128219   4.419   5.207   6.149  0.6747 -0.9202 -0.5800
 2220TIP3    H228220   4.379   5.111   6.259  0.6663 -0.6754 -0.3661
 2221TIP3   OH228221   1.455   6.077   7.848 -0.0938 -0.2975 -0.0159
 2221TIP3    H128222   1.484   6.028   7.925  0.4400 -0.6116 -0.4150
 2221TIP3    H228223   1.523   6.143   7.835 -0.9003  0.6874  0.6311
 2222TIP3   OH228224   4.324   3.406   6.845 -0.3102  0.8704  0.1183
 2222TIP3    H128225   4.286   3.406   6.757 -0.4577  1.8268  0.1729
 2222TIP3    H228226   4.337   3.499   6.865  1.0267  0.6046  0.5447
 2223TIP3   OH228227   4.615   5.490   6.294  0.1483 -0.0674  0.2164
 2223TIP3    H128228   4.535   5.542   6.279  0.4438  0.2669 -0.2139
 2223TIP3    H228229   4.655   5.483   6.208  0.7183 -0.0155  0.4754
 2224TIP3   OH228230   2.657   2.547   0.067 -0.4204 -0.2142  0.7553
 2224TIP3    H128231   2.569   2.580   0.049 -0.3346  0.8948  2.2537
 2224TIP3    H228232   2.715   2.616   0.035 -0.1070 -0.7117  0.2448
 2225TIP3   OH228233   3.312   4.821   7.959  0.4627 -0.2429  0.3216
 2225TIP3    H128234   3.320   4.836   8.053 -1.0595 -0.9432  0.5629
 2225TIP3    H228235   3.264   4.739   7.951 -0.1299  0.2262 -1.0660
 2226TIP3   OH228236   3.585   2.741   0.208 -0.2492 -0.1791  0.5032
 2226TIP3    H128237   3.563   2.817   0.263  1.2204  0.8463 -0.3144
 2226TIP3    H228238   3.660   2.701   0.252 -0.9291 -1.0951  0.8519
 2227TIP3   OH228239   4.432   4.290   5.899  0.1661 -0.1984  0.2296
 2227TIP3    H128240   4.522   4.287   5.929  0.3349  0.5234 -0.1970
 2227TIP3    H228241   4.415   4.382   5.881 -0.3691 -0.4340 -0.5322
 2228TIP3   OH228242   5.569   4.110   6.125  0.3198  0.2712 -0.2490
 2228TIP3    H128243   5.640   4.046   6.114  2.2177  1.7650  2.7236
 2228TIP3    H228244   5.581   4.172   6.053  1.5469  0.0253 -0.2661
 2229TIP3   OH228245   4.945   6.306   0.080  0.0870  0.8496 -0.0720
 2229TIP3    H128246   4.980   6.260   0.004 -1.2987 -1.3312  0.5746
 2229TIP3    H228247   4.891   6.376   0.043 -0.1806  0.1146 -1.0928
 2230TIP3   OH228248   5.464   2.733   7.001 -0.0508  0.1617 -0.1075
 2230TIP3    H128249   5.428   2.818   7.026 -1.0179 -0.4877  0.7812
 2230TIP3    H228250   5.484   2.741   6.908  0.3416  1.5203  0.0791
 2231TIP3   OH228251   3.931   4.691   6.878  0.0977 -0.0305  0.5897
 2231TIP3    H128252   3.951   4.701   6.785 -0.4883 -2.2797  0.1961
 2231TIP3    H228253   3.867   4.760   6.896 -0.4589 -0.1239 -0.8965
 2232TIP3   OH228254   6.813   5.204   7.864  0.8583 -0.0213 -0.4272
 2232TIP3    H128255   6.815   5.129   7.923 -0.8108  0.8515  0.7939
 2232TIP3    H228256   6.832   5.167   7.778  0.9436 -1.6961  0.2916
 2233TIP3   OH228257   5.603   5.891   7.571  0.0371  0.1495  0.2411
 2233TIP3    H128258   5.548   5.906   7.494  1.7147  0.3333 -0.9298
 2233TIP3    H228259   5.684   5.853   7.536  0.4011 -0.7564  2.0135
 2234TIP3   OH228260   3.543   5.796   0.720 -0.1111  0.5718  0.0695
 2234TIP3    H128261   3.624   5.817   0.766 -0.8838  1.0297  1.2751
 2234TIP3    H228262   3.523   5.875   0.669  0.6834  0.1096 -0.9680
 2235TIP3   OH228263   5.259   4.366   6.366 -0.3276  0.2563  0.1743
 2235TIP3    H128264   5.274   4.425   6.293  0.3384  0.9637  0.8649
 2235TIP3    H228265   5.326   4.298   6.357 -1.7497 -0.9903 -1.2072
 2236TIP3   OH228266   2.570   6.370   0.277 -0.2156 -0.4777 -0.5145
 2236TIP3    H128267   2.571   6.416   0.193  0.5107 -0.6602 -0.6098
 2236TIP3    H228268   2.661   6.347   0.292 -0.3026 -0.2115  0.4561
 2237TIP3   OH228269   3.482   3.318   6.585 -0.7108 -0.2389 -0.4671
 2237TIP3    H128270   3.548   3.249   6.585 -1.5849 -1.0751  0.3510
 2237TIP3    H228271   3.472   3.341   6.492 -0.6458 -1.4206 -0.7696
 2238TIP3   OH228272   6.491   5.286   6.595 -0.4474 -0.0751 -0.2508
 2238TIP3    H128273   6.477   5.191   6.595  3.4111 -0.7633 -2.1109
 2238TIP3    H228274   6.564   5.299   6.655 -0.4281  1.6328 -0.6301
 2239TIP3   OH228275   2.932   5.066   0.673  0.2659 -0.5321  0.4279
 2239TIP3    H128276   2.891   4.985   0.643  1.4502 -0.7674 -0.5777
 2239TIP3    H228277   2.868   5.104   0.733 -0.2496 -2.2725  1.0138
 2240TIP3   OH228278   2.770   3.959   7.809 -0.1806 -0.1961 -0.3908
 2240TIP3    H128279   2.696   3.975   7.749  1.6197  3.1620 -1.8362
 2240TIP3    H228280   2.729   3.952   7.895 -2.3613 -0.3073 -1.3840
 2241TIP3   OH228281   4.946   6.413   7.119 -0.1106  0.2922 -0.1226
 2241TIP3    H128282   4.860   6.408   7.076 -0.4191  0.4096  0.4807
 2241TIP3    H228283   5.007   6.380   7.053 -0.6905 -0.3541 -0.3473
 2242TIP3   OH228284   2.644   2.956   0.309 -0.2562 -0.1144 -0.0969
 2242TIP3    H128285   2.679   3.010   0.239 -0.0940 -2.0476 -1.5352
 2242TIP3    H228286   2.696   2.875   0.306 -0.2721 -0.2416  2.2221
 2243TIP3   OH228287   2.793   3.133   6.475  0.2600 -0.6345  0.4168
 2243TIP3    H128288   2.819   3.095   6.559 -0.6664 -1.1254  0.4782
 2243TIP3    H228289   2.854   3.207   6.463  0.9121 -1.0487  1.1295
 2244TIP3   OH228290   5.362   4.531   7.185 -0.2239  0.0818 -0.5441
 2244TIP3    H128291   5.368   4.457   7.247  0.2179  0.1048 -0.5580
 2244TIP3    H228292   5.369   4.490   7.099 -0.6229  0.0735 -0.5754
 2245TIP3   OH228293   3.675   4.866   6.832  0.7417  0.2441 -0.0026
 2245TIP3    H128294   3.632   4.948   6.858  1.7430  0.2411  1.7846
 2245TIP3    H228295   3.649   4.853   6.741 -3.0926  0.1687  1.0285
 2246TIP3   OH228296   1.058   4.815   7.699 -0.0320 -0.2365 -0.3673
 2246TIP3    H128297   1.100   4.814   7.613 -2.7512 -0.3483 -1.7467
 2246TIP3    H228298   1.038   4.724   7.717  2.7767 -0.5118  1.5707
 2247TIP3   OH228299   4.253   0.933   7.636 -0.3247  0.0459  0.5064
 2247TIP3    H128300   4.297   1.003   7.684  2.2276 -0.7126 -0.6110
 2247TIP3    H228301   4.189   0.978   7.581  1.3637  1.5279 -0.2840
 2248TIP3   OH228302   3.732   4.894   7.962  0.8183  0.4169 -0.1255
 2248TIP3    H128303   3.759   4.878   7.872 -0.5760  1.3003 -0.7258
 2248TIP3    H228304   3.639   4.919   7.955  0.4450 -0.3874  1.6303
 2249TIP3   OH228305   4.508   3.186   7.178 -0.1214 -0.0660 -0.1642
 2249TIP3    H128306   4.491   3.186   7.084  1.8711 -0.4296 -0.5352
 2249TIP3    H228307   4.527   3.095   7.199 -0.5513  0.0189  0.5910
 2250TIP3   OH228308   2.952   4.010   0.158 -0.1348 -0.2948 -0.0267
 2250TIP3    H128309   2.999   3.948   0.101  0.7818  1.0919 -0.8343
 2250TIP3    H228310   2.864   4.015   0.120 -0.0039 -0.5794 -0.3785
 2251TIP3   OH228311   4.208   4.035   7.113 -0.7358  0.4407 -0.4653
 2251TIP3    H128312   4.254   3.974   7.056  0.3871 -0.5658  1.4593
 2251TIP3    H228313   4.257   4.117   7.106 -0.1536  0.1001 -0.3564
 2252TIP3   OH228314   4.519   5.397   0.099  0.0734  0.4522  0.2189
 2252TIP3    H128315   4.598   5.432   0.058  0.2454 -2.3559 -2.0218
 2252TIP3    H228316   4.460   5.378   0.026 -1.9758  0.8302  1.7311
 2253TIP3   OH228317   1.989   4.393   0.200  0.0729 -0.0355 -0.8908
 2253TIP3    H128318   2.042   4.473   0.201  1.3240 -0.8299  1.3936
 2253TIP3    H228319   2.008   4.352   0.284 -0.9577 -2.4811 -1.8216
 2254TIP3   OH228320   4.281   4.693   0.103 -0.4821 -0.1341 -0.0098
 2254TIP3    H128321   4.329   4.698   0.185 -0.3487  0.8763 -0.1397
 2254TIP3    H228322   4.331   4.750   0.043 -0.0332 -1.6037 -1.0573
 2255TIP3   OH228323   4.135   5.727   6.767 -0.4139  0.1487 -0.0725
 2255TIP3    H128324   4.214   5.672   6.770 -0.0805  0.4527 -2.0319
 2255TIP3    H228325   4.063   5.666   6.781  0.1928 -0.0448  2.3041
 2256TIP3   OH228326   3.467   5.749   6.587  0.1081  0.5440  0.2505
 2256TIP3    H128327   3.557   5.726   6.567  0.0566  0.7653 -0.2687
 2256TIP3    H228328   3.434   5.787   6.505 -0.6190 -0.0499  0.2654
 2257TIP3   OH228329   3.948   6.034   7.416 -0.2032 -0.6908  0.1593
 2257TIP3    H128330   3.989   5.957   7.455 -0.9794 -1.4373 -0.4783
 2257TIP3    H228331   3.854   6.016   7.421 -0.3954  0.2695  0.1166
 2258TIP3   OH228332   6.396   4.428   6.355  0.1588 -0.4767 -0.1350
 2258TIP3    H128333   6.451   4.503   6.376  1.1818 -1.1415 -0.3609
 2258TIP3    H228334   6.320   4.436   6.413  0.6372  0.3015  0.3891
 2259TIP3   OH228335   4.363   5.839   0.161 -0.2829 -0.0904  0.5636
 2259TIP3    H128336   4.360   5.880   0.075 -1.0315  1.3798  1.2674
 2259TIP3    H228337   4.445   5.871   0.199 -1.3644  1.5794  1.5081
 2260TIP3   OH228338   4.949   4.602   6.173 -0.9148  0.1509 -0.3377
 2260TIP3    H128339   4.935   4.695   6.192  1.5206  0.6471 -0.8518
 2260TIP3    H228340   4.988   4.566   6.253  1.4388  0.3755 -1.3500
 2261TIP3   OH228341   5.274   5.561   6.603 -0.1080 -0.4998 -0.1939
 2261TIP3    H128342   5.363   5.577   6.571 -0.5063  0.6999 -0.7786
 2261TIP3    H228343   5.224   5.540   6.524 -0.7631  0.8661 -0.1637
 2262TIP3   OH228344   4.937   5.513   6.868  0.3730 -0.4451 -0.3832
 2262TIP3    H128345   5.026   5.545   6.852  0.1187  1.0159  0.9577
 2262TIP3    H228346   4.947   5.419   6.883  1.7035 -0.2755 -0.1586
 2263TIP3   OH228347   4.346   4.780   7.843 -0.0838 -0.1661 -0.5306
 2263TIP3    H128348   4.410   4.725   7.888 -0.0510  1.8181  1.9578
 2263TIP3    H228349   4.398   4.848   7.801 -0.3670 -0.1238 -0.8134
 2264TIP3   OH228350   6.082   5.317   5.775 -0.0839  0.0802  0.2595
 2264TIP3    H128351   6.132   5.236   5.764  0.5472  0.4656  0.2352
 2264TIP3    H228352   6.149   5.384   5.791 -0.5866  0.6333  0.0663
 2265TIP3   OH228353   4.899   4.861   6.268 -0.3251  0.2263  0.1904
 2265TIP3    H128354   4.946   4.944   6.273  0.4491 -0.2414  0.6813
 2265TIP3    H228355   4.870   4.845   6.358 -1.4726  0.5315 -0.1137
 2266TIP3   OH228356   3.676   5.963   0.425 -0.0184 -0.1927  0.5391
 2266TIP3    H128357   3.608   5.944   0.360  0.5997 -0.4387 -0.0418
 2266TIP3    H228358   3.720   6.041   0.392  0.3491 -0.3651  0.6142
 2267TIP3   OH228359   6.771   4.080   1.109  0.1724 -0.1967 -0.2123
 2267TIP3    H128360   6.826   4.149   1.070 -2.4953  1.2738 -1.4828
 2267TIP3    H228361   6.728   4.039   1.035 -0.4689 -1.3302  0.7791
 2268TIP3   OH228362   3.017   4.627   1.319  0.3649 -0.4064  0.3673
 2268TIP3    H128363   3.111   4.637   1.306  0.3562  1.1286  1.4355
 2268TIP3    H228364   2.982   4.605   1.232  1.6735 -0.7758 -0.0653
 2269TIP3   OH228365   6.207   5.207   6.022 -0.1305 -0.2721  0.4796
 2269TIP3    H128366   6.207   5.148   5.947  0.3114 -1.3437  1.3250
 2269TIP3    H228367   6.294   5.199   6.059 -1.3651 -2.2542  3.0787
 2270TIP3   OH228368   5.306   4.328   7.500 -0.2230  0.4021 -0.0058
 2270TIP3    H128369   5.320   4.243   7.543 -0.3154  0.5924  0.3960
 2270TIP3    H228370   5.221   4.357   7.531  0.2832  1.1515  0.6898
 2271TIP3   OH228371   5.489   5.936   7.823 -0.3326  0.1031  0.7631
 2271TIP3    H128372   5.412   5.880   7.816  0.0248 -0.4700  1.4281
 2271TIP3    H228373   5.535   5.925   7.740  0.3798 -1.5409  1.3625
 2272TIP3   OH228374   5.714   5.762   7.966 -0.4115  0.8775 -0.0556
 2272TIP3    H128375   5.649   5.827   7.940  0.9152  2.0581 -0.4719
 2272TIP3    H228376   5.688   5.735   8.054 -0.9114  2.0484  0.1588
 2273TIP3   OH228377   4.943   4.907   0.497 -0.3438 -0.3303 -0.1927
 2273TIP3    H128378   4.936   4.819   0.462 -0.6289 -0.8573  1.1762
 2273TIP3    H228379   4.975   4.895   0.587 -0.6921  0.9343  0.1101
 2274TIP3   OH228380   5.566   4.710   5.949  0.4148 -0.4159 -0.0261
 2274TIP3    H128381   5.521   4.745   6.026  1.9669 -0.5246  0.9477
 2274TIP3    H228382   5.621   4.782   5.918 -0.9300 -0.0443 -1.6459
 2275TIP3   OH228383   3.272   3.238   6.748 -0.5898 -0.0837  0.1583
 2275TIP3    H128384   3.270   3.146   6.721  1.3289 -0.0880  0.0004
 2275TIP3    H228385   3.342   3.277   6.697  0.7063  0.7467  2.4911
 2276TIP3   OH228386   2.546   3.224   1.393 -0.6479  0.4398 -0.1329
 2276TIP3    H128387   2.477   3.255   1.452 -1.4301 -0.5550 -0.5234
 2276TIP3    H228388   2.625   3.222   1.447 -0.7483  2.3291  0.1168
 2277TIP3   OH228389   3.331   6.862   0.093  0.2532  0.0827  0.1463
 2277TIP3    H128390   3.275   6.925   0.138  0.0684 -0.7846  1.1573
 2277TIP3    H228391   3.293   6.777   0.113 -0.1539 -0.3064 -2.1162
 2278TIP3   OH228392   1.923   5.932   6.936  0.1702  0.4024 -0.1503
 2278TIP3    H128393   1.995   5.873   6.914  1.0589  1.5115 -0.3018
 2278TIP3    H228394   1.945   5.964   7.024 -2.2805 -2.4057  1.5405
 2279TIP3   OH228395   5.768   5.582   7.666  0.3683  0.6091 -0.0291
 2279TIP3    H128396   5.786   5.643   7.595  2.4000  0.7666  0.5971
 2279TIP3    H228397   5.824   5.507   7.647 -3.1563 -1.7594 -1.5930
 2280TIP3   OH228398   2.571   2.660   7.032 -0.6539 -0.1002  0.1212
 2280TIP3    H128399   2.497   2.655   7.092 -1.4061  0.6046 -0.7442
 2280TIP3    H228400   2.537   2.704   6.955  0.1107 -1.6674 -1.1405
 2281TIP3   OH228401   3.122   4.097   8.303  0.5703  0.7423 -0.0560
 2281TIP3    H128402   3.092   4.186   8.322  0.8816  0.5626  1.3536
 2281TIP3    H228403   3.052   4.059   8.250  0.1199  1.6031 -0.0955
 2282TIP3   OH228404   3.026   3.869   8.437 -0.1282  0.5843 -0.1962
 2282TIP3    H128405   3.068   3.946   8.399 -0.7629  1.1781  0.3068
 2282TIP3    H228406   3.096   3.803   8.441  0.6242  1.4018  0.1487
 2283TIP3   OH228407   3.955   5.750   6.423 -0.1846 -0.4735 -0.1864
 2283TIP3    H128408   3.950   5.843   6.400  0.6368 -0.0460  1.2818
 2283TIP3    H228409   4.038   5.721   6.383 -1.0394 -0.8976 -1.6923
 2284TIP3   OH228410   4.290   6.016   6.936  0.3010 -0.0887 -0.8578
 2284TIP3    H128411   4.315   6.019   7.028  0.1383  0.7494 -0.8341
 2284TIP3    H228412   4.326   5.934   6.904  0.3585 -0.3876 -0.0446
 2285TIP3   OH228413   5.668   3.402   7.018 -0.1586  0.3810  0.1372
 2285TIP3    H128414   5.671   3.492   6.987  0.1454  0.5476  0.6404
 2285TIP3    H228415   5.727   3.400   7.093 -0.3605 -0.1750  0.2892
 2286TIP3   OH228416   3.663   4.660   8.207  0.1000  0.4884 -0.7524
 2286TIP3    H128417   3.688   4.659   8.115 -0.7255  1.2339 -0.9935
 2286TIP3    H228418   3.652   4.568   8.230 -1.7073  0.3722 -1.9768
 2287TIP3   OH228419   5.821   6.470   7.574 -0.0550 -0.7362  0.1291
 2287TIP3    H128420   5.822   6.408   7.647  1.1443  0.2755  0.9860
 2287TIP3    H228421   5.810   6.555   7.615 -0.1922 -0.2391 -0.9317
 2288TIP3   OH228422   0.321   5.820   6.293 -0.1320  0.0016 -0.0553
 2288TIP3    H128423   0.247   5.802   6.236  0.4768  2.5459 -1.7200
 2288TIP3    H228424   0.376   5.742   6.287 -0.6020 -0.1838 -2.0893
 2289TIP3   OH228425   5.798   5.126   7.369 -0.3457 -0.1723 -0.5524
 2289TIP3    H128426   5.813   5.047   7.317 -0.6712 -0.9223  0.4677
 2289TIP3    H228427   5.713   5.159   7.338  0.2064  0.2845 -1.5999
 2290TIP3   OH228428   0.172   4.530   7.477  0.5502 -0.2420 -0.0781
 2290TIP3    H128429   0.165   4.453   7.533  2.1781 -0.2186  0.1656
 2290TIP3    H228430   0.264   4.554   7.479  0.4219  0.5109 -1.7735
 2291TIP3   OH228431   2.428   5.450   6.584 -0.0313  0.5935 -0.4613
 2291TIP3    H128432   2.427   5.356   6.599  0.8323  0.4638 -1.2069
 2291TIP3    H228433   2.518   5.477   6.604  0.0170  1.0818 -1.3265
 2292TIP3   OH228434   4.778   5.007   7.149  0.1967 -0.3324  0.0751
 2292TIP3    H128435   4.818   5.050   7.073  0.9917  1.3849  1.4427
 2292TIP3    H228436   4.684   5.020   7.137  0.3082 -0.2048 -0.6863
 2293TIP3   OH228437   3.606   3.365   7.055  0.5688  0.4198 -0.1968
 2293TIP3    H128438   3.661   3.349   6.979 -1.2491 -0.2104 -1.4060
 2293TIP3    H228439   3.629   3.296   7.117  0.8039 -0.1126 -0.8773
 2294TIP3   OH228440   3.821   4.301   6.608  0.0158  0.4348 -0.5617
 2294TIP3    H128441   3.767   4.232   6.570  0.7857 -0.6795  0.3202
 2294TIP3    H228442   3.787   4.311   6.697  0.3536  0.7083 -0.4634
 2295TIP3   OH228443   4.819   4.733   6.903 -0.4068  0.6555 -0.1450
 2295TIP3    H128444   4.872   4.804   6.938  1.1137 -0.8405  0.6643
 2295TIP3    H228445   4.881   4.679   6.854 -0.4110 -2.8740  3.4411
 2296TIP3   OH228446   5.653   4.702   6.353  0.4850  0.2636 -0.1276
 2296TIP3    H128447   5.562   4.678   6.369  0.6636  0.5842  1.4494
 2296TIP3    H228448   5.649   4.786   6.308  0.0206  1.1349  1.5024
 2297TIP3   OH228449   3.500   6.173   7.394  0.2579 -0.2453 -0.4137
 2297TIP3    H128450   3.458   6.210   7.316 -0.3626  0.9785  0.4879
 2297TIP3    H228451   3.585   6.217   7.398  0.0207  0.1818 -0.0334
 2298TIP3   OH228452   2.584   3.433   6.252 -0.4348  0.4377 -0.0986
 2298TIP3    H128453   2.665   3.445   6.301 -0.3827  0.8461 -0.2831
 2298TIP3    H228454   2.580   3.508   6.193 -2.5743  2.2090  2.1830
 2299TIP3   OH228455   4.049   4.988   7.052  0.2213 -0.3802  0.4358
 2299TIP3    H128456   4.083   4.997   6.963 -0.8566 -2.0601 -0.1632
 2299TIP3    H228457   4.004   5.071   7.069  2.3518  0.8351  0.2687
 2300TIP3   OH228458   0.930   6.287   7.275 -0.3094 -0.4110  0.2111
 2300TIP3    H128459   1.010   6.241   7.302 -0.6579 -0.2786  1.5205
 2300TIP3    H228460   0.862   6.251   7.332 -1.4431 -1.4096 -1.7323
 2301TIP3   OH228461   4.729   4.067   6.899  0.1498 -0.2245 -0.2009
 2301TIP3    H128462   4.728   4.059   6.995  0.0043 -3.6176 -0.4278
 2301TIP3    H228463   4.639   4.085   6.875 -0.1700 -1.2502  0.1958
 2302TIP3   OH228464   4.299   5.969   5.982 -0.0146  0.4842  0.1498
 2302TIP3    H128465   4.226   5.929   6.029  0.4630 -0.6649 -0.0624
 2302TIP3    H228466   4.322   6.046   6.034 -2.1218  1.5335 -0.4202
 2303TIP3   OH228467   4.931   5.888   6.514 -0.3749 -0.5880 -0.3964
 2303TIP3    H128468   4.871   5.816   6.538  0.5161 -0.4076  2.6363
 2303TIP3    H228469   4.932   5.887   6.419 -0.9772 -4.1488 -0.4637
 2304TIP3   OH228470   5.728   2.059   6.854 -0.4493 -0.1589 -0.1862
 2304TIP3    H128471   5.793   2.016   6.798 -0.4927 -0.3041 -0.1247
 2304TIP3    H228472   5.697   1.990   6.913 -1.1629 -0.2626 -0.6677
 2305TIP3   OH228473   3.419   1.202   6.290  0.4568  0.1826 -0.9042
 2305TIP3    H128474   3.326   1.208   6.270  0.0988 -2.8644 -0.3489
 2305TIP3    H228475   3.463   1.211   6.205 -0.4502 -0.5743 -1.4548
 2306TIP3   OH228476   2.288   5.095   1.036  0.5213  0.3247 -0.2924
 2306TIP3    H128477   2.372   5.130   1.066  0.5354 -1.0493  1.3761
 2306TIP3    H228478   2.227   5.167   1.049  1.1345  0.7862  0.1005
 2307TIP3   OH228479   4.208   6.071   0.045 -0.1848 -0.1202  0.4965
 2307TIP3    H128480   4.212   6.026  -0.040  0.0318 -1.8920  1.4053
 2307TIP3    H228481   4.144   6.021   0.095  0.3112  0.3895  1.6664
 2308TIP3   OH228482   6.528   6.052   7.553  0.0804 -0.5237 -0.8382
 2308TIP3    H128483   6.463   6.054   7.624  0.5147 -1.9967 -0.3656
 2308TIP3    H228484   6.567   6.139   7.554 -0.7623 -0.1336 -0.0592
 2309TIP3   OH228485   0.089   4.639   6.793  0.3696 -0.5096 -0.1368
 2309TIP3    H128486   0.109   4.545   6.792  0.8963 -0.4171  0.7599
 2309TIP3    H228487   0.145   4.676   6.725  0.7865 -0.7369  0.0774
 2310TIP3   OH228488   0.494   4.512   0.056  0.9831  0.1520  0.9058
 2310TIP3    H128489   0.546   4.431   0.054  0.1663 -0.3540 -0.8752
 2310TIP3    H228490   0.551   4.578   0.018  1.7807  0.5184  2.6839
 2311TIP3   OH228491   3.861   4.772   7.194 -0.3277  0.4606  0.6903
 2311TIP3    H128492   3.832   4.707   7.131  0.2809 -0.7808  1.6794
 2311TIP3    H228493   3.786   4.832   7.202 -0.9684 -0.2185 -0.0702
 2312TIP3   OH228494   0.407   3.820   1.032 -0.1447 -0.6862  1.1752
 2312TIP3    H128495   0.475   3.753   1.027 -0.7821 -1.3013  0.5072
 2312TIP3    H228496   0.335   3.778   1.080 -0.9264 -0.8394 -0.0997
 2313TIP3   OH228497   4.403   3.937   7.358 -0.0633 -0.1088 -0.2882
 2313TIP3    H128498   4.347   4.013   7.342  1.8062  1.5182  0.7051
 2313TIP3    H228499   4.349   3.862   7.334 -1.5283  1.5819 -2.5297
 2314TIP3   OH228500   5.665   4.271   6.553 -0.0923  0.7059 -0.0890
 2314TIP3    H128501   5.616   4.313   6.482  1.1278  0.8149 -0.8907
 2314TIP3    H228502   5.756   4.293   6.535  0.3358 -0.2091  0.8956
 2315TIP3   OH228503   5.883   4.869   6.135  0.3927  0.0242 -0.3461
 2315TIP3    H128504   5.820   4.891   6.203  0.3609 -1.7438  0.2220
 2315TIP3    H228505   5.839   4.889   6.053 -0.1959  0.5635  0.0985
 2316TIP3   OH228506   4.857   6.091   7.238 -0.0276  0.6285  0.0465
 2316TIP3    H128507   4.916   6.110   7.165  0.9869  1.4425  1.0540
 2316TIP3    H228508   4.909   6.112   7.316 -0.6672 -1.3842  1.0455
 2317TIP3   OH228509   1.518   5.291   8.412 -0.6065  0.6025 -0.2921
 2317TIP3    H128510   1.507   5.311   8.319 -0.9845 -3.8932 -1.3536
 2317TIP3    H228511   1.612   5.271   8.421 -1.1878 -2.5246 -0.5925
 2318TIP3   OH228512   0.018   4.990   6.593  0.2998 -0.1980  0.0946
 2318TIP3    H128513   0.030   5.070   6.644  0.9028 -0.0683 -0.2414
 2318TIP3    H228514   0.096   4.985   6.538 -1.0678  0.5068 -1.9773
 2319TIP3   OH228515   5.148   4.933   6.487  0.2159  0.6290 -0.4537
 2319TIP3    H128516   5.167   4.969   6.400 -0.8754 -0.6161 -1.2308
 2319TIP3    H228517   5.061   4.965   6.508 -0.1204 -0.2631 -0.4634
 2320TIP3   OH228518   5.929   2.745   6.934  1.0668  0.0800  0.3170
 2320TIP3    H128519   5.919   2.672   6.873  0.0845  0.4051  0.0888
 2320TIP3    H228520   5.863   2.730   7.001  1.5818  0.1841  0.8586
 2321TIP3   OH228521   5.037   6.480   7.937 -0.4633  0.3092  0.1155
 2321TIP3    H128522   5.059   6.447   8.024  1.7242  1.5447  0.0434
 2321TIP3    H228523   5.062   6.409   7.878 -0.1954  0.2279  0.3289
 2322TIP3   OH228524   6.714   4.892   7.047  0.0409  0.3683  0.1876
 2322TIP3    H128525   6.795   4.899   7.097 -0.5131  0.8461  1.0468
 2322TIP3    H228526   6.721   4.958   6.978  0.6083  0.0382 -0.0679
 2323TIP3   OH228527   5.802   6.728   8.358 -0.0363 -0.0516  0.5854
 2323TIP3    H128528   5.829   6.682   8.437  1.3628 -0.4900 -0.1285
 2323TIP3    H228529   5.858   6.692   8.289 -0.0292  1.5778 -0.2779
 2324TIP3   OH228530   0.233   5.046   6.124  0.2309 -0.2467 -0.0299
 2324TIP3    H128531   0.163   5.105   6.150  0.9123  0.1373  0.9617
 2324TIP3    H228532   0.299   5.055   6.193  1.3102 -0.5095 -1.0113
 2325TIP3   OH228533   5.016   5.271   6.940  0.5620 -0.6444  0.1235
 2325TIP3    H128534   5.051   5.298   7.025 -0.1551 -0.4387  0.3583
 2325TIP3    H228535   5.093   5.248   6.888  1.0689  0.1262  0.5193
 2326TIP3   OH228536   6.542   5.681   6.852 -0.9354  0.6061  0.3074
 2326TIP3    H128537   6.605   5.753   6.855 -1.0841  0.7921 -0.6889
 2326TIP3    H228538   6.463   5.715   6.894  0.4383 -0.4913  3.9654
 2327TIP3   OH228539   3.403   5.993   7.848 -0.5796  0.1210 -0.1085
 2327TIP3    H128540   3.400   6.033   7.761  0.0139 -0.6796 -0.5047
 2327TIP3    H228541   3.494   5.964   7.858 -0.6161  0.3190  0.8307
 2328TIP3   OH228542   0.218   5.326   7.977 -0.1957 -0.4761 -0.0862
 2328TIP3    H128543   0.229   5.366   7.890  0.4466  0.3797  0.3916
 2328TIP3    H228544   0.306   5.303   8.004 -0.4860 -1.5256 -0.0203
 2329TIP3   OH228545   5.332   5.188   6.510 -0.5477  0.2358 -0.5099
 2329TIP3    H128546   5.273   5.230   6.449 -0.5155  1.4725  0.2864
 2329TIP3    H228547   5.414   5.175   6.461 -0.8498  0.2725 -1.0208
 2330TIP3   OH228548   1.671   6.286   7.841 -0.0735 -0.1674  0.5018
 2330TIP3    H128549   1.627   6.371   7.835 -0.9876 -0.7209 -0.8491
 2330TIP3    H228550   1.764   6.307   7.843 -0.3627  0.9982  2.8925
 2331TIP3   OH228551   6.698   5.324   7.385 -0.6881  0.0343 -0.3292
 2331TIP3    H128552   6.717   5.357   7.472  0.0003  1.1859 -0.9018
 2331TIP3    H228553   6.768   5.261   7.367 -0.0686  0.7770 -0.5625
 2332TIP3   OH228554   6.904   3.184   5.854  0.1923  0.4843 -0.0549
 2332TIP3    H128555   6.853   3.139   5.787  3.4050 -0.8017 -1.7429
 2332TIP3    H228556   6.887   3.277   5.839 -0.8920  0.1118 -1.1679
 2333TIP3   OH228557   0.299   4.378   7.969  0.0743  0.4157 -0.0780
 2333TIP3    H128558   0.272   4.288   7.983 -2.2175  1.2676  1.1302
 2333TIP3    H228559   0.265   4.426   8.044 -1.0811  2.7603 -2.0232
 2334TIP3   OH228560   6.771   6.654   6.875 -0.2423 -0.1280 -0.1384
 2334TIP3    H128561   6.701   6.705   6.917  0.5864  1.2142 -0.3575
 2334TIP3    H228562   6.744   6.646   6.784  0.9421  2.3512 -0.7539
 2335TIP3   OH228563   0.685   4.766   7.236  0.0766 -0.5013 -0.6135
 2335TIP3    H128564   0.690   4.852   7.195 -1.0220 -0.8060 -1.4258
 2335TIP3    H228565   0.598   4.763   7.276 -0.5220 -1.7876 -1.9190
 2336TIP3   OH228566   7.045   5.604   5.970  0.7145 -0.2408  0.0124
 2336TIP3    H128567   6.967   5.576   5.921  0.7835  0.2792 -0.3964
 2336TIP3    H228568   7.017   5.685   6.014  1.1505  0.1688 -0.4623
 2337TIP3   OH228569   0.384   4.786   6.323  0.6318 -0.1882  0.2114
 2337TIP3    H128570   0.439   4.753   6.394  2.5614 -1.9469 -2.0125
 2337TIP3    H228571   0.444   4.831   6.265 -0.7403  0.2990 -0.8562
 2338TIP3   OH228572   0.638   3.324   7.215  0.2841 -0.2448  0.6321
 2338TIP3    H128573   0.602   3.236   7.231 -2.7148  0.5569 -1.4140
 2338TIP3    H228574   0.599   3.379   7.283  0.9671 -0.1617  0.9668
 2339TIP3   OH228575   5.225   5.272   6.760  0.1813 -0.3549 -0.6360
 2339TIP3    H128576   5.236   5.366   6.745 -0.9365 -0.6529 -3.7577
 2339TIP3    H228577   5.234   5.233   6.673 -2.2729 -2.8359  0.1439
 2340TIP3   OH228578   4.147   6.159   7.295 -0.1236  0.1550 -0.3463
 2340TIP3    H128579   4.073   6.107   7.326 -0.3637  0.3048 -0.6692
 2340TIP3    H228580   4.107   6.235   7.254  0.2248  0.5760  0.0830
 2341TIP3   OH228581   0.106   5.173   0.001  0.2274  0.3722  0.1253
 2341TIP3    H128582   0.129   5.142  -0.087  0.9271 -0.5692  0.6323
 2341TIP3    H228583   0.156   5.117   0.060 -1.1311  0.2258  1.1692
 2342TIP3   OH228584   0.501   3.494   0.475 -0.1844  0.2119  0.1044
 2342TIP3    H128585   0.463   3.470   0.391 -1.3091 -0.6577  0.8488
 2342TIP3    H228586   0.488   3.589   0.481 -1.4765  0.0443 -0.0134
 2343TIP3   OH228587   7.094   5.973   8.402 -0.2221  0.5240 -0.1220
 2343TIP3    H128588   7.008   5.959   8.439 -0.5086  0.7616 -0.6806
 2343TIP3    H228589   7.105   5.901   8.339 -0.9030  1.6738 -1.5966
 2344TIP3   OH228590   6.615   4.609   6.325  0.0254 -0.1915  0.5334
 2344TIP3    H128591   6.579   4.688   6.284 -1.1500 -0.8491  0.2740
 2344TIP3    H228592   6.704   4.602   6.291 -0.3529  0.2300 -0.5655
 2345TIP3   OH228593   5.055   6.434   8.213 -0.3863  0.3344  0.0067
 2345TIP3    H128594   5.087   6.353   8.255 -1.0038 -0.0461 -0.2498
 2345TIP3    H228595   4.967   6.446   8.249 -1.4244 -0.6859 -2.1101
 2346TIP3   OH228596   6.227   3.789   6.240  0.3922  0.0654 -0.3832
 2346TIP3    H128597   6.231   3.701   6.279  2.1982  0.5442  0.5703
 2346TIP3    H228598   6.136   3.816   6.249 -0.3786 -2.0557 -1.4662
 2347TIP3   OH228599   5.031   5.774   1.520 -0.0925 -0.2228 -0.2565
 2347TIP3    H128600   4.992   5.706   1.464  2.2767 -0.8989 -1.1387
 2347TIP3    H228601   5.119   5.786   1.485  1.0679  0.1655  2.6599
 2348TIP3   OH228602   4.230   7.087   6.709  0.0658  0.2620 -0.0495
 2348TIP3    H128603   4.263   7.149   6.644  0.2418  0.0141 -0.1990
 2348TIP3    H228604   4.233   7.002   6.665 -0.6873  0.2198 -0.0297
 2349TIP3   OH228605   5.618   4.807   6.904  0.6891  0.1139  0.2574
 2349TIP3    H128606   5.620   4.813   6.809 -2.0928 -1.9513 -0.0094
 2349TIP3    H228607   5.655   4.720   6.923  0.6025  0.2357  1.0014
 2350TIP3   OH228608   5.354   4.828   7.104 -0.3137 -0.2525 -0.0314
 2350TIP3    H128609   5.312   4.893   7.048  0.8328 -0.0950 -0.7321
 2350TIP3    H228610   5.358   4.749   7.049 -1.3731 -0.8070  0.6854
 2351TIP3   OH228611   6.358   5.381   7.384 -0.3858 -0.1625  0.2530
 2351TIP3    H128612   6.298   5.397   7.310 -1.1448 -0.3052  0.8277
 2351TIP3    H228613   6.416   5.312   7.353 -0.9858 -0.5378 -0.0588
 2352TIP3   OH228614   5.554   5.256   6.989 -0.3881  0.5447  0.1435
 2352TIP3    H128615   5.465   5.284   7.007 -0.8525 -0.0623 -1.1468
 2352TIP3    H228616   5.594   5.330   6.943 -1.0862 -0.2224 -1.7340
 2353TIP3   OH228617   7.126   0.942   0.247  0.3448 -0.3048  0.3468
 2353TIP3    H128618   7.038   0.949   0.286 -0.1004 -0.6331 -0.5883
 2353TIP3    H228619   7.185   0.969   0.318 -0.4579 -0.7847  1.2241
 2354TIP3   OH228620   6.799   5.381   6.071 -0.3699 -0.2866  0.3214
 2354TIP3    H128621   6.797   5.440   5.996  0.4358  0.8665  1.1876
 2354TIP3    H228622   6.766   5.298   6.037 -1.2385  0.5735 -0.9882
 2355TIP3   OH228623   0.236   5.917   7.083  0.1612  0.0271  0.4902
 2355TIP3    H128624   0.309   5.946   7.029 -0.7265  0.4241 -0.5104
 2355TIP3    H228625   0.261   5.940   7.172  0.7518  1.1908  0.0236
 2356TIP3   OH228626   0.877   3.524   7.835  0.5032 -0.4191 -0.3818
 2356TIP3    H128627   0.857   3.443   7.882 -1.3504 -0.6892 -1.6112
 2356TIP3    H228628   0.844   3.593   7.893 -0.8302 -0.6970 -0.8161
 2357TIP3   OH228629   5.494   3.534   6.451  0.7104 -0.6993 -0.2288
 2357TIP3    H128630   5.444   3.491   6.382  1.2526 -1.4091 -0.1849
 2357TIP3    H228631   5.579   3.553   6.411 -0.1499  2.1044 -0.8663
 2358TIP3   OH228632   6.953   2.900   6.463 -0.0826 -0.1512 -0.1691
 2358TIP3    H128633   6.880   2.921   6.404 -1.9434 -0.5540  1.8919
 2358TIP3    H228634   6.931   2.946   6.544  2.7001  0.8322  0.0529
 2359TIP3   OH228635   1.759   4.265   7.322  0.2314  0.5695  0.2962
 2359TIP3    H128636   1.781   4.278   7.230  1.5184  0.8262  0.6283
 2359TIP3    H228637   1.664   4.261   7.324  0.2385 -2.4121 -1.4679
 2360TIP3   OH228638   6.865   5.634   0.513  0.0682 -0.1337  0.2532
 2360TIP3    H128639   6.778   5.616   0.546  0.8632 -2.9005  0.9394
 2360TIP3    H228640   6.854   5.643   0.418 -1.0781  0.4908  0.4367
 2361TIP3   OH228641   5.644   4.988   7.618 -0.5254 -0.3030 -0.3232
 2361TIP3    H128642   5.661   4.979   7.712 -1.0524  1.8510 -0.0016
 2361TIP3    H228643   5.718   5.040   7.585 -2.2234  2.1377 -0.3965
 2362TIP3   OH228644   6.523   5.204   7.052  0.3754  0.5321  0.5079
 2362TIP3    H128645   6.478   5.151   6.987  1.7976  0.7699 -0.6977
 2362TIP3    H228646   6.609   5.162   7.062  0.3716  0.8217  1.8124
 2363TIP3   OH228647   6.970   4.901   7.212 -0.3996 -0.1741  0.2002
 2363TIP3    H128648   6.928   4.858   7.286 -0.1319  0.6267  0.8219
 2363TIP3    H228649   7.044   4.843   7.190 -0.2114 -0.1858  0.8486
 2364TIP3   OH228650   5.411   4.326   6.952 -0.2189  0.1684  0.3845
 2364TIP3    H128651   5.437   4.353   6.863  0.4672 -0.3263  0.4250
 2364TIP3    H228652   5.481   4.267   6.979  1.0529  2.5069  2.3465
 2365TIP3   OH228653   1.539   3.113   1.631 -0.1775  0.2939 -0.0283
 2365TIP3    H128654   1.584   3.028   1.639 -0.7732  0.0232  0.4665
 2365TIP3    H228655   1.476   3.099   1.560 -2.9169 -0.8688  2.5240
 2366TIP3   OH228656   6.597   4.590   6.590 -0.5157 -0.0401 -0.2554
 2366TIP3    H128657   6.600   4.574   6.496 -0.1720  2.3294 -0.6711
 2366TIP3    H228658   6.533   4.660   6.601 -1.6820 -1.3236  1.4529
 2367TIP3   OH228659   0.300   5.237   7.027 -0.3027 -0.7849  0.2411
 2367TIP3    H128660   0.375   5.295   7.044  1.8054 -3.2541 -0.2356
 2367TIP3    H228661   0.254   5.233   7.111 -0.0686  1.0058  0.4697
 2368TIP3   OH228662   5.730   5.080   6.890  0.4053 -0.1895  0.8162
 2368TIP3    H128663   5.635   5.081   6.902  0.2287 -0.8979 -0.4343
 2368TIP3    H228664   5.742   5.082   6.795  1.6029 -1.8817  0.9011
 2369TIP3   OH228665   5.420   3.012   6.415 -0.0543  0.4227 -0.9672
 2369TIP3    H128666   5.421   3.107   6.424  1.2841  0.2284  1.0855
 2369TIP3    H228667   5.512   2.987   6.402 -0.2902 -0.6691 -0.6402
 2370TIP3   OH228668   4.640   5.754   8.328 -0.0124 -0.0190  0.3583
 2370TIP3    H128669   4.609   5.705   8.404 -1.9835 -0.4915 -0.7055
 2370TIP3    H228670   4.723   5.713   8.305  0.8563  0.4378  2.5155
 2371TIP3   OH228671   6.738   2.795   6.820 -0.2413 -0.2530  0.4144
 2371TIP3    H128672   6.726   2.813   6.727 -0.8826 -1.1592  0.3183
 2371TIP3    H228673   6.662   2.836   6.862  0.1411  0.3086  0.5534
 2372TIP3   OH228674   5.961   4.089   6.663  0.7819 -0.0063 -0.2506
 2372TIP3    H128675   6.049   4.126   6.673  1.0228 -0.1537 -1.7473
 2372TIP3    H228676   5.970   3.999   6.693  0.4142  0.8328  2.5036
 2373TIP3   OH228677   3.140   4.854   7.520 -0.0655  0.1572 -0.5500
 2373TIP3    H128678   3.163   4.766   7.488 -0.4260 -0.4343  0.7964
 2373TIP3    H228679   3.224   4.892   7.547 -0.3389 -1.1880  2.3379
 2374TIP3   OH228680   6.350   4.596   5.862  0.3820  0.1177  0.2391
 2374TIP3    H128681   6.426   4.586   5.919 -1.2837 -0.3055  2.4132
 2374TIP3    H228682   6.300   4.516   5.873 -1.1307  1.0017 -0.0465
 2375TIP3   OH228683   5.976   6.895   7.364  0.3386  0.5205 -0.2322
 2375TIP3    H128684   6.032   6.840   7.308 -0.1482  1.7108 -1.9486
 2375TIP3    H228685   5.990   6.984   7.331 -3.9562  0.6686 -2.0163
 2376TIP3   OH228686   0.459   7.110   6.839 -0.0143  0.1331  0.5170
 2376TIP3    H128687   0.414   7.193   6.852 -0.9579 -0.3382  0.3105
 2376TIP3    H228688   0.478   7.080   6.928 -0.5052  0.1212  0.6194
 2377TIP3   OH228689   5.520   1.200   7.045 -0.1290  0.1428 -0.0285
 2377TIP3    H128690   5.536   1.136   7.114  0.8157  1.0965  0.6603
 2377TIP3    H228691   5.580   1.272   7.065 -0.2871  0.6999 -1.4944
 2378TIP3   OH228692   5.251   4.979   6.891 -0.3406  0.6142  0.5446
 2378TIP3    H128693   5.336   4.953   6.855 -0.3951  0.6772  0.3664
 2378TIP3    H228694   5.244   5.072   6.869 -0.3696  0.6541  0.7286
 2379TIP3   OH228695   3.898   3.553   7.090  0.2707 -0.4824  0.0201
 2379TIP3    H128696   3.808   3.580   7.109 -0.2885 -0.4070 -2.5939
 2379TIP3    H228697   3.901   3.461   7.117 -1.0521 -0.9273 -1.2690
 2380TIP3   OH228698   6.390   4.768   6.585 -0.2888  0.5889  0.1270
 2380TIP3    H128699   6.377   4.748   6.678 -0.8850  0.9596  0.1253
 2380TIP3    H228700   6.301   4.774   6.549 -0.0564 -0.2568 -0.6192
 2381TIP3   OH228701   6.175   4.809   5.914  0.0167 -0.1006 -0.3757
 2381TIP3    H128702   6.243   4.750   5.881  0.3202  1.3586 -2.4945
 2381TIP3    H228703   6.115   4.819   5.840  0.7142  3.3072 -0.5424
 2382TIP3   OH228704   5.598   4.116   6.981  1.1244 -0.2391 -0.5803
 2382TIP3    H128705   5.612   4.159   7.066  0.9298  0.1887 -0.7597
 2382TIP3    H228706   5.672   4.143   6.927 -0.0083  1.5180 -1.3312
 2383TIP3   OH228707   6.571   4.614   6.035 -0.0263  0.1441  0.0256
 2383TIP3    H128708   6.666   4.603   6.041  0.1830  1.0236 -1.3820
 2383TIP3    H228709   6.551   4.683   6.099  0.6080  1.5101 -1.1999
 2384TIP3   OH228710   0.436   4.628   8.032  0.3536 -0.1112  0.7487
 2384TIP3    H128711   0.348   4.655   8.059 -0.1969 -0.8668 -0.2004
 2384TIP3    H228712   0.431   4.532   8.029  0.9213 -0.1204 -0.2383
 2385TIP3   OH228713   5.310   3.953   6.784 -0.2639  0.0699  1.0258
 2385TIP3    H128714   5.390   3.979   6.737  0.4514 -0.5742  1.8666
 2385TIP3    H228715   5.257   4.032   6.785  0.3174  0.4797  0.3572
 2386TIP3   OH228716   4.634   5.976   0.230  0.0949  0.4359  0.0897
 2386TIP3    H128717   4.685   6.055   0.208 -1.5727  1.7106  0.6907
 2386TIP3    H228718   4.605   5.991   0.320  0.6813 -1.3948  0.6067
 2387TIP3   OH228719   4.052   5.088   8.431  0.3470  0.8252  0.1271
 2387TIP3    H128720   4.071   5.181   8.424  0.5154  0.7264 -0.8506
 2387TIP3    H228721   4.038   5.059   8.341 -0.5923  0.0898  0.4854
 2388TIP3   OH228722   5.686   4.542   6.925 -0.2065 -0.1512  0.3879
 2388TIP3    H128723   5.629   4.483   6.875 -0.0368 -0.1900  0.2419
 2388TIP3    H228724   5.770   4.539   6.879 -0.5713  1.2253 -0.3930
 2389TIP3   OH228725   0.864   3.776   6.869 -0.1358  0.1866 -0.2346
 2389TIP3    H128726   0.858   3.825   6.951 -0.1391 -0.4662  0.1588
 2389TIP3    H228727   0.774   3.746   6.852  0.0221 -0.4083 -0.0246
 2390TIP3   OH228728   1.069   5.450   6.861 -0.1354 -0.0056  0.0830
 2390TIP3    H128729   1.038   5.459   6.771  0.4227  0.3223 -0.0828
 2390TIP3    H228730   1.137   5.383   6.855 -0.4422 -0.3371  0.3455
 2391TIP3   OH228731   0.389   6.117   6.178 -0.0818 -0.3560  0.0359
 2391TIP3    H128732   0.385   6.029   6.141  0.4315  0.1331 -1.1933
 2391TIP3    H228733   0.409   6.174   6.104 -1.2635  0.9085  0.6685
 2392TIP3   OH228734   6.255   5.588   6.804  0.2232 -0.0673 -0.0759
 2392TIP3    H128735   6.233   5.496   6.817  0.7985  0.0461  1.8178
 2392TIP3    H228736   6.288   5.593   6.714  1.5056 -1.9505  0.2838
 2393TIP3   OH228737   4.164   4.725   7.059 -0.1419  0.1634  0.3071
 2393TIP3    H128738   4.103   4.701   6.989 -1.6825 -1.0472  2.0065
 2393TIP3    H228739   4.123   4.800   7.102 -0.4937 -0.6976  1.5018
 2394TIP3   OH228740   7.229   4.921   1.155  0.2912  0.5067  0.4205
 2394TIP3    H128741   7.304   4.869   1.124 -0.1714 -0.4779  0.9114
 2394TIP3    H228742   7.225   4.995   1.096  1.2875  0.2485  0.0132
 2395TIP3   OH228743   6.530   6.820   7.515  0.7634  0.0018  0.1242
 2395TIP3    H128744   6.568   6.847   7.432  0.5650  0.7301  0.2653
 2395TIP3    H228745   6.606   6.802   7.571  0.8994  0.5604  0.1212
 2396TIP3   OH228746   6.993   4.720   2.071 -0.1609 -0.1628 -0.1904
 2396TIP3    H128747   6.902   4.719   2.100 -0.3496 -1.4833 -0.7988
 2396TIP3    H228748   7.039   4.664   2.134 -0.1641 -1.2201 -1.1156
 2397TIP3   OH228749   6.642   5.872   0.204  0.2970 -0.2511  0.3600
 2397TIP3    H128750   6.632   5.876   0.299 -0.3736 -3.0631  0.4757
 2397TIP3    H228751   6.552   5.871   0.171  0.5299  0.9527 -0.3317
 2398TIP3   OH228752   7.262   4.300   0.552  0.1022  0.0857 -0.7852
 2398TIP3    H128753   7.249   4.393   0.537 -0.6114 -0.2360 -2.3304
 2398TIP3    H228754   7.204   4.279   0.626  0.1834  0.8366 -0.5059
 2399TIP3   OH228755   5.011   5.166   0.366  0.2109  0.1288  0.3311
 2399TIP3    H128756   4.996   5.082   0.410  0.3646  1.3080  2.7006
 2399TIP3    H228757   5.040   5.225   0.435  2.3353  1.5670 -1.7079
 2400TIP3   OH228758   0.394   3.084   7.978 -0.2223  0.4668 -0.3102
 2400TIP3    H128759   0.318   3.033   8.005 -0.2243  0.3276 -0.5699
 2400TIP3    H228760   0.431   3.118   8.059 -0.9565  1.0948 -0.2300
 2401TIP3   OH228761   1.934   4.274   8.287  0.0200 -0.3551 -0.0909
 2401TIP3    H128762   1.871   4.305   8.222 -0.9434 -1.1111  0.4721
 2401TIP3    H228763   1.976   4.198   8.246  0.5868  0.1540 -0.4680
 2402TIP3   OH228764   5.532   5.546   6.177 -0.5651 -0.4880  0.5672
 2402TIP3    H128765   5.486   5.472   6.139  0.0330 -1.4403  1.6474
 2402TIP3    H228766   5.614   5.552   6.128 -0.3379 -0.9417  0.8858
 2403TIP3   OH228767   0.079   5.958   0.483 -0.2167 -0.8513 -0.3331
 2403TIP3    H128768   0.055   5.919   0.399  2.0472 -0.9279 -1.0011
 2403TIP3    H228769   0.000   5.952   0.537 -0.9131 -3.2948 -1.5546
 2404TIP3   OH228770   4.024   5.995   6.940 -0.3190  0.6738 -0.2981
 2404TIP3    H128771   4.020   5.917   6.995 -1.2575  0.8210 -0.1454
 2404TIP3    H228772   4.114   5.998   6.909  0.2099  0.5614  1.1842
 2405TIP3   OH228773   1.094   3.686   7.157  0.5091 -0.2149 -0.5884
 2405TIP3    H128774   1.012   3.734   7.145  1.0018  0.5236 -1.0216
 2405TIP3    H228775   1.083   3.641   7.241 -0.7875 -1.0361 -1.1794
 2406TIP3   OH228776   5.141   4.488   6.998  0.1295 -0.0476  0.8351
 2406TIP3    H128777   5.194   4.509   6.920 -2.3138  2.3903 -0.2755
 2406TIP3    H228778   5.181   4.540   7.068  0.9097 -0.4114  0.6663
 2407TIP3   OH228779   1.117   3.796   7.683 -0.0423  0.2823  0.2232
 2407TIP3    H128780   1.197   3.821   7.637 -1.5116 -0.6446 -2.9602
 2407TIP3    H228781   1.144   3.724   7.741  1.5716  0.5685 -0.1428
 2408TIP3   OH228782   5.433   4.854   6.168 -0.1109 -0.0795 -0.7564
 2408TIP3    H128783   5.492   4.885   6.237 -0.5746 -0.7435 -0.0443
 2408TIP3    H228784   5.349   4.896   6.188 -0.8639 -2.0913  0.4877
 2409TIP3   OH228785   1.049   4.310   7.988 -0.4747  0.0884  0.2763
 2409TIP3    H128786   1.107   4.331   7.915 -1.4214  1.8786  0.0399
 2409TIP3    H228787   1.073   4.220   8.011  1.6879  0.4401 -0.4812
 2410TIP3   OH228788   4.888   5.031   6.865 -0.2210 -0.0174  0.1158
 2410TIP3    H128789   4.887   5.033   6.769  1.7073 -1.4365  0.0244
 2410TIP3    H228790   4.926   5.115   6.890 -1.0497  0.5058 -0.3290
 2411TIP3   OH228791   6.047   5.412   6.098 -0.0312  0.6414 -0.6302
 2411TIP3    H128792   6.100   5.469   6.154  1.2229  0.1722 -1.3308
 2411TIP3    H228793   6.110   5.356   6.053 -1.1319 -0.0375 -1.3604
 2412TIP3   OH228794   5.303   5.710   8.153  0.3012 -0.3428 -0.2267
 2412TIP3    H128795   5.395   5.693   8.173  0.8791 -0.2299 -2.5983
 2412TIP3    H228796   5.296   5.693   8.059 -1.6387  1.6397 -0.4767
 2413TIP3   OH228797   5.840   5.243   7.071 -0.5202 -0.7594  0.2033
 2413TIP3    H128798   5.781   5.196   7.012  0.2502 -0.8331 -0.5142
 2413TIP3    H228799   5.902   5.176   7.100  0.1508 -0.3504 -0.2656
 2414TIP3   OH228800   1.507   4.207   1.292 -0.5472 -0.1235 -0.0795
 2414TIP3    H128801   1.536   4.126   1.333 -0.9860 -0.0549  0.3664
 2414TIP3    H228802   1.576   4.270   1.311 -1.4512  0.3280  1.8954
 2415TIP3   OH228803   0.187   5.566   6.720  0.4447 -0.7201  0.2004
 2415TIP3    H128804   0.179   5.503   6.649 -0.1328 -0.1256 -0.2746
 2415TIP3    H228805   0.109   5.622   6.711 -0.2397 -1.3342  1.9772
 2416TIP3   OH228806   6.590   6.094   8.462  0.8121 -0.4261 -0.3480
 2416TIP3    H128807   6.505   6.070   8.424  0.7508 -1.6321  0.5089
 2416TIP3    H228808   6.576   6.090   8.557  0.5944  3.8259 -0.0918
 2417TIP3   OH228809   4.938   4.786   0.900 -1.3351 -0.5072  0.1941
 2417TIP3    H128810   4.982   4.706   0.869 -0.4362 -0.9458  2.5382
 2417TIP3    H228811   4.982   4.857   0.853  2.0565 -0.9336  2.5747
 2418TIP3   OH228812   5.706   4.357   1.401  0.0488  1.0710 -0.2021
 2418TIP3    H128813   5.649   4.303   1.456  0.9225  1.4368  1.0992
 2418TIP3    H228814   5.783   4.301   1.385 -0.7113  0.5235 -2.0684
 2419TIP3   OH228815   5.963   4.798   6.689  0.4233 -0.3315 -0.3013
 2419TIP3    H128816   5.874   4.794   6.653  0.2562  0.7519 -0.0385
 2419TIP3    H228817   6.020   4.797   6.612  0.0716  1.8579 -0.6169
 2420TIP3   OH228818   6.990   3.937   6.893  0.0840 -0.0783 -0.6917
 2420TIP3    H128819   6.997   3.951   6.799 -1.1191  0.8900 -0.6513
 2420TIP3    H228820   6.915   3.879   6.903 -0.9043  1.2563 -0.2295
 2421TIP3   OH228821   6.748   0.568   7.480  1.1330  0.1200  0.0018
 2421TIP3    H128822   6.788   0.489   7.445  1.3028 -0.1936  0.8953
 2421TIP3    H228823   6.755   0.559   7.575 -0.5892  0.3093  0.1633
 2422TIP3   OH228824   7.160   6.094   6.800  0.1395  0.2761 -0.6571
 2422TIP3    H128825   7.067   6.077   6.810 -0.1438  0.4530 -2.6758
 2422TIP3    H228826   7.165   6.155   6.726  1.8553  0.3131 -0.5316
 2423TIP3   OH228827   6.081   5.896   8.115 -0.1220  0.2411  0.9039
 2423TIP3    H128828   6.090   5.985   8.083  0.9622 -0.2978 -0.3261
 2423TIP3    H228829   6.169   5.859   8.112 -0.3008 -0.4279  2.7708
 2424TIP3   OH228830   5.625   4.622   7.194  0.0344  0.1892  0.2334
 2424TIP3    H128831   5.632   4.592   7.103  0.3016 -2.2933  1.0491
 2424TIP3    H228832   5.531   4.634   7.208 -0.0185  0.4524 -0.3025
 2425TIP3   OH228833   1.125   5.051   7.804  0.4255  0.3310 -0.0305
 2425TIP3    H128834   1.098   4.968   7.765 -0.2913  0.3639  0.3917
 2425TIP3    H228835   1.044   5.089   7.838  1.1776 -0.0662  2.2306
 2426TIP3   OH228836   2.471   2.298   7.970  0.6717 -0.0391  0.0167
 2426TIP3    H128837   2.402   2.336   8.024  0.8520  0.0114  0.2160
 2426TIP3    H228838   2.434   2.217   7.936 -0.6492  1.5440 -2.5098
 2427TIP3   OH228839   0.728   7.248   0.970  0.0758 -0.4330  0.1885
 2427TIP3    H128840   0.659   7.265   1.035  0.7184 -1.0496  1.0417
 2427TIP3    H228841   0.776   7.330   0.964 -0.3000 -0.2181  0.1137
 2428TIP3   OH228842   4.631   5.108   7.960 -0.6306  0.4245 -0.0659
 2428TIP3    H128843   4.560   5.151   8.008 -0.7996 -1.1038  1.0797
 2428TIP3    H228844   4.682   5.063   8.027  0.9875  0.8670 -0.9739
 2429TIP3   OH228845   0.463   3.760   7.147 -0.0832 -0.0146 -0.0250
 2429TIP3    H128846   0.491   3.817   7.075 -0.5723 -0.2408 -0.4029
 2429TIP3    H228847   0.378   3.725   7.118 -0.4426  0.1512  0.8138
 2430TIP3   OH228848   7.221   6.466   0.265 -0.0717 -0.7922 -0.1988
 2430TIP3    H128849   7.300   6.519   0.276  1.2434 -2.9014  0.8488
 2430TIP3    H228850   7.187   6.491   0.179 -0.0040  2.3643  0.6316
 2431TIP3   OH228851   0.425   3.435   0.215 -0.2505  0.1605  0.1939
 2431TIP3    H128852   0.380   3.362   0.173  0.6519 -0.7648  0.7890
 2431TIP3    H228853   0.459   3.488   0.142  0.3551 -0.8262 -0.2491
 2432TIP3   OH228854   6.500   0.987   0.430 -1.0081  0.3634  0.0148
 2432TIP3    H128855   6.561   1.056   0.407  0.0195 -0.6649 -0.4163
 2432TIP3    H228856   6.545   0.937   0.498 -1.5134 -0.1838 -0.0499
 2433TIP3   OH228857   6.253   6.074   1.147  0.0652 -0.1621 -0.5896
 2433TIP3    H128858   6.201   6.029   1.081 -1.5767  2.9850 -1.5358
 2433TIP3    H228859   6.321   6.119   1.098  0.1214  0.4758  0.0592
 2434TIP3   OH228860   6.988   2.439   7.206 -0.5979 -0.4769  0.1891
 2434TIP3    H128861   7.022   2.517   7.251  0.0866 -0.7874  0.2175
 2434TIP3    H228862   6.893   2.443   7.218 -0.8608  1.8798 -2.2272
 2435TIP3   OH228863   1.237   6.172   7.668  1.1364  0.3238 -0.3315
 2435TIP3    H128864   1.142   6.166   7.678  1.2675 -0.2710  0.6484
 2435TIP3    H228865   1.271   6.141   7.751  2.2132 -0.5501 -1.0912
 2436TIP3   OH228866   5.316   5.110   0.733  0.5011 -0.1592  0.0802
 2436TIP3    H128867   5.285   5.108   0.824  0.0072 -2.3385 -0.1117
 2436TIP3    H228868   5.388   5.047   0.732  2.7287  2.2880 -0.2948
 2437TIP3   OH228869   0.137   0.685   1.851  0.0623  0.0103  0.2478
 2437TIP3    H128870   0.162   0.699   1.760 -0.6078 -1.0472 -0.1106
 2437TIP3    H228871   0.209   0.636   1.890  0.2584  0.2898  0.2378
 2438TIP3   OH228872   0.424   6.132   7.930  0.2099  0.0463  0.3763
 2438TIP3    H128873   0.443   6.222   7.957 -0.3956  0.3012 -0.0331
 2438TIP3    H228874   0.489   6.114   7.861 -0.6804  0.7414 -0.6712
 2439TIP3   OH228875   7.148   5.718   6.257  0.3062 -0.3296  0.1358
 2439TIP3    H128876   7.069   5.759   6.221 -0.2519 -0.9570  0.6376
 2439TIP3    H228877   7.123   5.627   6.273  1.2284 -0.6090  0.0072
 2440TIP3   OH228878   3.755   3.067   7.651  0.4878  0.5619  0.3912
 2440TIP3    H128879   3.806   3.020   7.584 -0.3383 -0.6233  0.5686
 2440TIP3    H228880   3.818   3.086   7.720  0.5986 -1.4238  0.8784
 2441TIP3   OH228881   0.071   4.836   6.033 -0.0406  0.2355 -0.1959
 2441TIP3    H128882   0.140   4.895   6.064  0.6700 -0.4959 -0.3576
 2441TIP3    H228883   0.013   4.892   5.981  0.0084  1.0093  0.5665
 2442TIP3   OH228884   0.259   5.310   6.496  0.3645 -0.0219  0.2567
 2442TIP3    H128885   0.278   5.342   6.407 -1.4810  0.0606 -0.1276
 2442TIP3    H228886   0.172   5.345   6.515  0.4481 -0.6608  1.8186
 2443TIP3   OH228887   0.219   4.839   6.958  0.0327  0.2028  0.0342
 2443TIP3    H128888   0.174   4.767   6.914 -2.4343  2.0601 -0.5942
 2443TIP3    H228889   0.275   4.878   6.891  1.4972 -1.1889  0.4202
 2444TIP3   OH228890   0.714   5.585   7.315 -0.1137 -0.2371  0.1814
 2444TIP3    H128891   0.756   5.576   7.400  0.2256  1.4904  0.2002
 2444TIP3    H228892   0.785   5.578   7.251 -0.4880 -2.5478 -0.0460
 2445TIP3   OH228893   6.931   5.151   7.366  0.4867  0.4489 -0.5031
 2445TIP3    H128894   6.948   5.077   7.308  0.5906 -0.5156  0.7275
 2445TIP3    H228895   7.018   5.188   7.384  0.4870  0.5430 -0.7001
 2446TIP3   OH228896   1.209   4.619   8.323  0.0151  0.5404 -0.1907
 2446TIP3    H128897   1.226   4.541   8.376  0.9216  2.0458  1.8534
 2446TIP3    H228898   1.200   4.689   8.388  0.3399  2.3208 -2.0227
 2447TIP3   OH228899   2.944   5.327   1.328 -0.0680 -0.0721  0.0110
 2447TIP3    H128900   2.965   5.378   1.250  2.1704 -0.7243  0.1534
 2447TIP3    H228901   2.874   5.269   1.300 -0.9711  1.3972 -0.8213
 2448TIP3   OH228902   2.858   3.923   7.436 -0.1668 -0.2502  0.0704
 2448TIP3    H128903   2.911   3.871   7.497  0.5166  1.0415  0.6187
 2448TIP3    H228904   2.776   3.939   7.482  0.9847  2.1492  1.4041
 2449TIP3   OH228905   3.112   4.933   6.404 -0.3650  0.3173  0.0865
 2449TIP3    H128906   3.153   5.020   6.402 -0.8749  0.5408 -1.7829
 2449TIP3    H228907   3.065   4.927   6.321 -2.1747 -0.8835  1.1538
 2450TIP3   OH228908   1.902   0.251   6.211 -0.2059 -0.2742  0.0918
 2450TIP3    H128909   1.823   0.246   6.157 -0.9608 -0.0875  1.1603
 2450TIP3    H228910   1.945   0.166   6.199 -1.5753 -1.1209  0.9909
 2451TIP3   OH228911   5.940   4.546   6.790  0.2299 -0.3788 -0.8646
 2451TIP3    H128912   6.025   4.502   6.787  0.0790 -0.6824 -0.7826
 2451TIP3    H228913   5.953   4.628   6.742  1.0704  0.4503  0.7449
 2452TIP3   OH228914   4.755   6.128   6.866  0.3784 -0.9977  0.0510
 2452TIP3    H128915   4.742   6.039   6.900 -0.5680 -1.9581 -2.6638
 2452TIP3    H228916   4.780   6.115   6.775 -2.5583  1.5732 -1.2133
 2453TIP3   OH228917   0.310   5.657   6.940 -0.0246  0.4355  0.0454
 2453TIP3    H128918   0.267   5.612   6.867  0.0886  1.0121 -0.3853
 2453TIP3    H228919   0.246   5.721   6.970 -0.9169 -1.2834  1.9024
 2454TIP3   OH228920   6.367   5.541   6.546  0.4534 -0.3650 -0.1030
 2454TIP3    H128921   6.378   5.566   6.454  0.0412 -0.2167 -0.1115
 2454TIP3    H228922   6.411   5.456   6.553  0.1355 -0.5670 -0.5306
 2455TIP3   OH228923   6.220   4.146   6.678 -0.3515 -0.0636  0.2012
 2455TIP3    H128924   6.205   4.053   6.658  0.9991 -0.4800  1.0827
 2455TIP3    H228925   6.309   4.149   6.712 -1.0558  1.2493  2.0172
 2456TIP3   OH228926   0.438   6.702   6.459 -0.3549  0.3249 -0.0347
 2456TIP3    H128927   0.500   6.648   6.508 -1.1836 -0.1439  0.5152
 2456TIP3    H228928   0.432   6.783   6.509 -1.5742 -0.3428  0.9411
 2457TIP3   OH228929   6.021   5.584   0.518  0.1346 -0.0431 -0.1106
 2457TIP3    H128930   6.115   5.576   0.508  0.1775 -0.1580  0.3535
 2457TIP3    H228931   5.985   5.557   0.433  0.5858  1.7425 -0.8913
 2458TIP3   OH228932   5.463   5.191   7.270 -0.1431  0.0346 -0.3481
 2458TIP3    H128933   5.460   5.277   7.228 -0.2327  0.0413 -0.3290
 2458TIP3    H228934   5.496   5.133   7.202 -1.4830 -0.1862 -0.8342
 2459TIP3   OH228935   7.044   6.239   7.594  0.1649 -0.3093 -0.0957
 2459TIP3    H128936   7.095   6.234   7.513 -1.6330 -0.9461 -1.2327
 2459TIP3    H228937   6.966   6.185   7.576 -0.1694 -0.6137  2.1282
 2460TIP3   OH228938   6.061   5.889   6.498  0.0772 -0.2393  0.2995
 2460TIP3    H128939   6.086   5.979   6.478  1.7640 -0.0882  2.8207
 2460TIP3    H228940   6.079   5.879   6.592  0.2842 -3.3026 -0.0012
 2461TIP3   OH228941   0.223   5.595   7.307 -0.1183 -0.4431  0.7057
 2461TIP3    H128942   0.228   5.687   7.333 -0.6012 -0.2511  0.1405
 2461TIP3    H228943   0.314   5.567   7.301  0.0192 -0.2834  1.8395
 2462TIP3   OH228944   0.943   3.073   6.921 -0.2670 -0.1557  0.2268
 2462TIP3    H128945   0.904   3.063   7.007 -1.7862 -0.7104 -0.5035
 2462TIP3    H228946   1.010   3.140   6.932 -2.0623  1.5097  1.3032
 2463TIP3   OH228947   1.514   4.273   7.853 -0.3163 -0.2334 -0.2203
 2463TIP3    H128948   1.511   4.293   7.947 -1.3449  0.5068 -0.4112
 2463TIP3    H228949   1.592   4.217   7.843  0.1485  0.1931  0.9752
 2464TIP3   OH228950   6.035   5.657   5.890 -0.0175  0.1032  0.0778
 2464TIP3    H128951   6.107   5.595   5.878  0.9678  1.4091 -0.9134
 2464TIP3    H228952   5.973   5.634   5.820  0.2061  0.0371 -0.1007
 2465TIP3   OH228953   1.419   3.085   8.017  0.3779 -0.4716 -0.2149
 2465TIP3    H128954   1.415   3.037   7.935 -1.1322 -1.3754  0.3523
 2465TIP3    H228955   1.506   3.125   8.018  0.6870 -1.0679 -1.8888
 2466TIP3   OH228956   6.272   3.041   6.520  0.4689 -0.0187 -0.3408
 2466TIP3    H128957   6.192   2.989   6.520  0.9047 -0.7036 -1.9825
 2466TIP3    H228958   6.261   3.104   6.449  1.4607 -0.2510 -0.7159
 2467TIP3   OH228959   5.427   3.272   7.021  0.2361  0.0321  0.1973
 2467TIP3    H128960   5.427   3.264   6.926 -0.5528 -0.8190  0.2546
 2467TIP3    H228961   5.505   3.323   7.042  2.4209 -2.8414 -0.6675
 2468TIP3   OH228962   5.813   4.236   6.842  0.2385  0.4683 -0.3784
 2468TIP3    H128963   5.828   4.177   6.768  2.8971 -1.0256  1.2726
 2468TIP3    H228964   5.879   4.304   6.831  0.3193  0.5077  0.3419
 2469TIP3   OH228965   5.061   4.805   7.015 -0.6214 -0.1993  0.1601
 2469TIP3    H128966   5.125   4.805   6.943  0.4924 -0.7276  1.1472
 2469TIP3    H228967   5.063   4.895   7.048 -0.9185 -0.0317 -0.2719
 2470TIP3   OH228968   6.972   6.219   0.112 -0.2758  0.1869 -0.2355
 2470TIP3    H128969   6.930   6.135   0.094 -2.8443  0.9819  1.6400
 2470TIP3    H228970   6.987   6.257   0.026 -0.4229 -1.5686 -1.0680
 2471TIP3   OH228971   4.295   3.733   8.489 -0.2918  0.8653  0.4799
 2471TIP3    H128972   4.321   3.674   8.419 -0.4370  0.1301  1.0455
 2471TIP3    H228973   4.200   3.726   8.494 -0.2580  0.6777  0.9536
 2472TIP3   OH228974   5.435   6.576   6.531  1.0578  0.0936  0.1261
 2472TIP3    H128975   5.488   6.655   6.516  0.9455  0.2523  0.5513
 2472TIP3    H228976   5.485   6.505   6.491  2.5696 -0.0778  2.2326
 2473TIP3   OH228977   6.262   4.879   1.362  0.3328  0.5276 -0.0816
 2473TIP3    H128978   6.204   4.851   1.433  1.2200  0.1476  0.5025
 2473TIP3    H228979   6.217   4.853   1.282 -0.5844  0.7824  0.3486
 2474TIP3   OH228980   6.994   5.811   7.690  0.1730 -0.4314  0.4550
 2474TIP3    H128981   7.072   5.775   7.649 -0.4610 -0.0013 -1.1859
 2474TIP3    H228982   7.022   5.896   7.724  0.9677 -1.2377  1.8785
 2475TIP3   OH228983   1.499   6.788   8.146  0.0467  0.4468  0.0124
 2475TIP3    H128984   1.479   6.723   8.079 -1.6438  0.7588  0.1889
 2475TIP3    H228985   1.567   6.843   8.107 -0.3372  0.1190 -1.1218
 2476TIP3   OH228986   0.354   4.913   6.739  0.5033  0.2049  0.5374
 2476TIP3    H128987   0.389   4.837   6.693  0.4553  0.1055  0.6632
 2476TIP3    H228988   0.331   4.975   6.670  2.2002  0.8270  0.5161
 2477TIP3   OH228989   1.689   1.185   6.558 -0.8384 -0.2513  0.6620
 2477TIP3    H128990   1.601   1.150   6.543 -0.3555 -0.8583 -0.8282
 2477TIP3    H228991   1.739   1.157   6.482  0.0551  2.1053  0.3297
 2478TIP3   OH228992   0.586   6.217   6.665  0.2192 -0.4315 -0.4462
 2478TIP3    H128993   0.527   6.221   6.590  0.0050  0.9181 -0.2228
 2478TIP3    H228994   0.671   6.243   6.630 -0.1513  1.4846  0.0280
 2479TIP3   OH228995   0.734   1.024   7.376  0.5729  0.2115  0.2889
 2479TIP3    H128996   0.826   0.997   7.379  0.0365 -1.6276  0.7379
 2479TIP3    H228997   0.738   1.120   7.374  2.4565  0.2159  2.0386
 2480TIP3   OH228998   2.176   1.112   7.536 -0.0983  0.3293 -0.4841
 2480TIP3    H128999   2.248   1.124   7.473 -1.8877 -0.0871 -2.6945
 2480TIP3    H229000   2.098   1.142   7.488 -1.7541 -1.5945  0.9516
 2481TIP3   OH229001   0.604   5.197   7.305  0.0318  0.1927  0.3816
 2481TIP3    H129002   0.530   5.256   7.321 -1.3283 -1.9317  2.3800
 2481TIP3    H229003   0.671   5.225   7.367  0.5947  1.5941 -0.8469
 2482TIP3   OH229004   0.705   0.083   7.436 -0.1067 -0.0840  0.5210
 2482TIP3    H129005   0.661   0.022   7.494 -1.6890  2.5719  2.2124
 2482TIP3    H229006   0.758   0.138   7.493  1.1448  0.2842 -0.9420
 2483TIP3   OH229007   1.690   6.269   7.474  0.9405 -0.2479 -0.2056
 2483TIP3    H129008   1.716   6.266   7.382  0.3625 -0.8657 -0.3542
 2483TIP3    H229009   1.641   6.187   7.488  0.2750  0.2494  0.4194
 2484TIP3   OH229010   0.596   4.263   0.092  0.1636  0.2623  0.1170
 2484TIP3    H129011   0.673   4.213   0.119 -0.5106 -0.6401  0.4171
 2484TIP3    H229012   0.533   4.250   0.164 -0.4149  0.6497 -0.3137
 2485TIP3   OH229013   0.815   6.414   6.601  0.1881 -0.0209  0.1661
 2485TIP3    H129014   0.826   6.406   6.507 -0.5247  2.0854 -0.1205
 2485TIP3    H229015   0.904   6.415   6.636  0.4700 -0.0333 -0.5428
 2486TIP3   OH229016   1.731   6.516   7.605  0.5365  0.5401  0.9084
 2486TIP3    H129017   1.661   6.531   7.668 -0.6129  1.8158 -0.6058
 2486TIP3    H229018   1.714   6.428   7.571 -1.2483  1.3775 -0.4948
 2487TIP3   OH229019   6.324   6.998   7.903 -0.2334 -0.3101  0.8116
 2487TIP3    H129020   6.295   6.983   7.813  0.7452  1.3759  0.1947
 2487TIP3    H229021   6.419   6.986   7.900 -0.0254  1.1125  1.3251
 2488TIP3   OH229022   1.053   0.277   8.409 -0.0472  0.8743 -0.0111
 2488TIP3    H129023   1.044   0.372   8.415  1.9214  1.0616  0.5405
 2488TIP3    H229024   1.000   0.244   8.481 -1.6781  1.4795 -0.9120
 2489TIP3   OH229025   1.753   0.050   6.398  0.1043 -0.3076 -0.0971
 2489TIP3    H129026   1.830   0.105   6.411  1.6288 -2.3551 -0.2222
 2489TIP3    H229027   1.692   0.104   6.348  0.7638  1.9185  1.4558
 2490TIP3   OH229028   0.300   5.552   7.767 -0.4126 -0.4625 -0.3108
 2490TIP3    H129029   0.301   5.617   7.836 -0.0149 -0.1103 -0.6405
 2490TIP3    H229030   0.390   5.553   7.732 -0.8346  0.0224 -1.4308
 2491TIP3   OH229031   2.087   0.516   6.551 -0.1741 -0.3319  0.2123
 2491TIP3    H129032   2.054   0.606   6.546  0.6012 -0.1103 -1.2710
 2491TIP3    H229033   2.018   0.462   6.513  0.2196 -0.1181 -0.8286
 2492TIP3   OH229034   0.865   0.046   6.981 -0.1017 -0.2887 -0.3131
 2492TIP3    H129035   0.954   0.079   6.970  0.4190 -0.8858  1.7790
 2492TIP3    H229036   0.868  -0.043   6.945  0.0807 -0.2205 -0.4672
 2493TIP3   OH229037   1.998   6.425   7.377 -0.1115  0.1381  0.8003
 2493TIP3    H129038   2.077   6.372   7.372 -0.7287 -0.7484  0.2498
 2493TIP3    H229039   1.989   6.462   7.289  0.0216  0.7318  1.0342
 2494TIP3   OH229040   7.033   5.468   6.573 -0.3092 -0.0291  0.2176
 2494TIP3    H129041   7.023   5.558   6.605 -0.3728 -0.6797  2.0838
 2494TIP3    H229042   6.956   5.422   6.606  0.2483 -1.0152  0.1569
 2495TIP3   OH229043   0.036   6.643   7.318 -0.1383  0.5128 -0.1377
 2495TIP3    H129044   0.121   6.636   7.274 -1.2784  3.7365 -3.0485
 2495TIP3    H229045   0.037   6.572   7.383  3.0471 -2.2641 -2.9947
 2496TIP3   OH229046   7.112   0.331   6.742  0.2424 -0.0882  0.2198
 2496TIP3    H129047   7.104   0.296   6.830  0.2978 -0.9737 -0.1185
 2496TIP3    H229048   7.022   0.352   6.716  0.1108 -0.7474  0.1252
 2497TIP3   OH229049   0.023   6.217   6.580  0.2452 -0.2726 -0.0166
 2497TIP3    H129050   0.029   6.292   6.520  0.9679 -1.1768 -1.0954
 2497TIP3    H229051   0.083   6.152   6.543 -0.4614 -1.4297  0.8467
 2498TIP3   OH229052   3.032   6.135   7.587  0.0745  0.3000  0.0240
 2498TIP3    H129053   3.021   6.206   7.524  1.1234  2.1109  1.8246
 2498TIP3    H229054   3.098   6.167   7.649  1.4408 -2.7228  0.2225
 2499TIP3   OH229055   1.421   4.448   0.980 -0.0739  0.0685  0.7247
 2499TIP3    H129056   1.351   4.451   1.046 -0.5453  0.6665  0.2000
 2499TIP3    H229057   1.502   4.457   1.031 -0.4552  0.8997  1.2069
 2500TIP3   OH229058   1.566   0.419   6.700 -0.0658 -0.2368 -0.1515
 2500TIP3    H129059   1.560   0.433   6.794 -0.9484  2.4602 -0.5705
 2500TIP3    H229060   1.479   0.391   6.673  0.0592 -0.5443 -0.2431
 2501TIP3   OH229061   1.891   6.715   6.725  0.4924  0.2591  0.0160
 2501TIP3    H129062   1.932   6.667   6.796  2.7257  0.0102 -1.3806
 2501TIP3    H229063   1.891   6.654   6.651  0.0681  1.1778 -0.7614
 2502TIP3   OH229064   1.833   6.922   7.789 -0.6733 -0.0266  0.1772
 2502TIP3    H129065   1.750   6.915   7.836 -1.5281  0.0582 -1.2738
 2502TIP3    H229066   1.833   7.011   7.753 -0.3374 -0.2925 -0.5045
 2503TIP3   OH229067   1.923   6.526   6.919  0.5032  0.5017  0.1594
 2503TIP3    H129068   1.968   6.564   6.994  1.8858  0.4962 -0.6470
 2503TIP3    H229069   1.830   6.532   6.941  0.8671  1.0425  1.6017
 2504TIP3   OH229070   1.284   6.151   6.128 -0.3866 -0.4404  0.4547
 2504TIP3    H129071   1.225   6.076   6.136  1.0342 -1.4503  1.6664
 2504TIP3    H229072   1.238   6.223   6.170 -2.1383 -0.4009 -1.4808
 2505TIP3   OH229073   3.345   6.809   7.299  0.2742 -0.0528 -0.1366
 2505TIP3    H129074   3.307   6.762   7.373 -1.1330 -1.2662 -1.5672
 2505TIP3    H229075   3.335   6.902   7.322 -2.6402 -0.3493  0.0409
 2506TIP3   OH229076   0.534   6.800   6.900  0.3223  0.3541  0.2208
 2506TIP3    H129077   0.512   6.871   6.960  0.2502  1.0422 -0.6196
 2506TIP3    H229078   0.452   6.781   6.854 -0.0508 -1.3260  1.5294
 2507TIP3   OH229079   7.029   6.206   6.576 -0.2981 -0.1617 -0.2822
 2507TIP3    H129080   7.036   6.301   6.582 -1.0067 -0.0035 -1.7601
 2507TIP3    H229081   7.112   6.178   6.537 -0.6777 -0.0025 -1.2130
 2508TIP3   OH229082   7.049   5.441   6.296 -0.0853 -0.2955 -0.0016
 2508TIP3    H129083   7.064   5.458   6.389 -0.9245 -0.1262  0.1069
 2508TIP3    H229084   6.955   5.452   6.285 -0.2774 -2.2485 -0.4659
 2509TIP3   OH229085   6.171   6.087   6.679 -0.0791 -0.7180  0.3770
 2509TIP3    H129086   6.185   6.103   6.586 -2.4201 -3.0391 -0.4508
 2509TIP3    H229087   6.257   6.058   6.711  1.0544  1.2808 -0.7330
 2510TIP3   OH229088   2.266   6.012   7.034 -0.3078 -0.9289  0.1484
 2510TIP3    H129089   2.340   5.956   7.009 -0.2357 -0.0993 -1.5280
 2510TIP3    H229090   2.209   6.014   6.957 -1.2952 -0.2866  0.8806
 2511TIP3   OH229091   1.230   6.969   7.527  0.7403 -0.1079 -0.0894
 2511TIP3    H129092   1.241   7.024   7.449  2.4875 -0.3626 -0.0495
 2511TIP3    H229093   1.175   7.021   7.586  0.0622  0.4175 -1.1750
 2512TIP3   OH229094   2.487   6.929   6.981 -0.0787  0.1291  0.8147
 2512TIP3    H129095   2.532   6.991   7.039  1.1374  1.0204 -1.0308
 2512TIP3    H229096   2.401   6.969   6.965  0.3267  0.8558  0.4262
 2513TIP3   OH229097   1.088   6.142   6.716 -0.1025  0.2133  0.5073
 2513TIP3    H129098   1.044   6.226   6.723 -0.4230  0.1349 -0.5057
 2513TIP3    H229099   1.048   6.099   6.640  1.0890 -0.2246  0.1028
 2514TIP3   OH229100   7.048   0.241   0.386 -0.3988  0.1641  0.3085
 2514TIP3    H129101   7.051   0.153   0.350 -1.6373  0.1386  0.2595
 2514TIP3    H229102   7.055   0.298   0.309  0.9454  0.1229  0.3851
 2515TIP3   OH229103   6.905   0.443   6.522  0.0756 -0.3724  0.0075
 2515TIP3    H129104   6.860   0.454   6.605 -2.2008 -0.5073 -1.1608
 2515TIP3    H229105   6.881   0.520   6.471 -2.1843 -2.3950 -2.1096
 2516TIP3   OH229106   0.877   1.426   1.268 -0.2391  0.3328  0.3520
 2516TIP3    H129107   0.856   1.379   1.187  1.4875  0.0103  0.0670
 2516TIP3    H229108   0.969   1.452   1.257 -0.6058  2.1168  1.3184
 2517TIP3   OH229109   0.574   0.848   6.650  0.7998 -0.9645 -0.7660
 2517TIP3    H129110   0.626   0.899   6.588 -0.0107 -0.2809 -0.8963
 2517TIP3    H229111   0.518   0.793   6.595 -0.2578 -0.0170 -0.6735
 2518TIP3   OH229112   2.951   0.766   0.409 -0.2614 -0.0932  0.2902
 2518TIP3    H129113   2.957   0.672   0.392  1.5036  0.3116 -1.4859
 2518TIP3    H229114   3.030   0.803   0.369 -0.4009  2.0267  1.8921
 2519TIP3   OH229115   0.472   0.533   7.822 -0.1676 -0.4449 -0.0059
 2519TIP3    H129116   0.401   0.575   7.871 -0.7707 -0.9016 -0.4858
 2519TIP3    H229117   0.550   0.585   7.843 -0.6361  0.0302  0.5563
 2520TIP3   OH229118   1.973   6.579   0.941  0.3912  0.5437  0.6214
 2520TIP3    H129119   1.909   6.626   0.995  0.6673  1.1009  0.4574
 2520TIP3    H229120   2.036   6.543   1.004 -0.4796 -0.6343  0.8534
 2521TIP3   OH229121   1.213   6.277   7.306  0.5279  0.1325 -0.1023
 2521TIP3    H129122   1.275   6.204   7.309  1.1118  0.5462 -1.7390
 2521TIP3    H229123   1.234   6.323   7.225  0.1491  2.1215  0.9101
 2522TIP3   OH229124   6.319   5.202   0.287 -0.1148  0.1870 -0.3640
 2522TIP3    H129125   6.411   5.200   0.261 -0.3075 -0.5548 -1.0214
 2522TIP3    H229126   6.320   5.190   0.382  0.4301 -0.8506 -0.4932
 2523TIP3   OH229127   2.220   4.637   6.884  0.4209 -0.4790 -0.0124
 2523TIP3    H129128   2.261   4.666   6.802  0.1004  0.4307  0.1375
 2523TIP3    H229129   2.266   4.686   6.952 -0.0928 -0.3540  0.2531
 2524TIP3   OH229130   0.459   6.035   0.428 -0.4777  0.2924 -0.5428
 2524TIP3    H129131   0.543   6.070   0.457 -0.6397  0.0084  0.2793
 2524TIP3    H229132   0.432   6.093   0.357 -0.5851  1.6425  0.5903
 2525TIP3   OH229133   7.035   6.468   6.717  0.4871 -0.8388  0.0144
 2525TIP3    H129134   7.017   6.502   6.629 -0.9884  1.2605  1.0869
 2525TIP3    H229135   6.949   6.459   6.758  1.2068 -1.0861  1.5047
 2526TIP3   OH229136   1.053   5.793   8.209 -0.2550 -0.0971 -0.2026
 2526TIP3    H129137   0.980   5.738   8.237  1.2417 -1.5757  0.9408
 2526TIP3    H229138   1.131   5.741   8.231  1.1238  1.3343 -1.6126
 2527TIP3   OH229139   6.969   6.683   7.069 -0.4625 -0.7914  0.5908
 2527TIP3    H129140   7.064   6.681   7.077 -0.3266  0.0379 -0.8154
 2527TIP3    H229141   6.952   6.675   6.975 -1.7964 -1.3275  0.8627
 2528TIP3   OH229142   6.927   4.947   6.651  0.0554  0.2335 -0.0446
 2528TIP3    H129143   6.966   4.999   6.721  0.2311  0.7003 -0.4931
 2528TIP3    H229144   6.985   4.871   6.641  0.6400  0.7348 -0.4550
 2529TIP3   OH229145   6.630   5.552   7.669 -0.7496  0.2581  0.5517
 2529TIP3    H129146   6.666   5.640   7.655 -1.6933  0.2750 -1.9652
 2529TIP3    H229147   6.541   5.556   7.634 -0.9401 -1.6181  0.7559
 2530TIP3   OH229148   0.976   4.478   8.229  0.4711 -0.3453 -0.2183
 2530TIP3    H129149   0.982   4.416   8.157  0.4609 -2.0845  1.2332
 2530TIP3    H229150   1.065   4.509   8.242  0.2928  0.7863 -1.6677
 2531TIP3   OH229151   2.751   6.666   7.172  1.1075 -0.1545 -0.0610
 2531TIP3    H129152   2.787   6.708   7.094 -0.1010 -0.7551 -0.9558
 2531TIP3    H229153   2.675   6.617   7.141  0.7154 -0.5617  1.4614
 2532TIP3   OH229154   0.223   5.626   1.314  0.0318 -0.2403  0.1044
 2532TIP3    H129155   0.278   5.594   1.385  1.0099  2.2430  0.4782
 2532TIP3    H229156   0.266   5.595   1.234  1.5566  1.0274  0.4222
 2533TIP3   OH229157   7.182   6.112   6.315  0.3834 -0.7193  0.3142
 2533TIP3    H129158   7.263   6.159   6.335 -1.2852  1.5154  2.1490
 2533TIP3    H229159   7.189   6.030   6.364  1.8628 -0.8961 -0.1742
 2534TIP3   OH229160   0.372   5.905   5.994 -0.2439 -0.2850 -0.5034
 2534TIP3    H129161   0.316   5.832   6.020  1.3737 -1.3628 -0.0117
 2534TIP3    H229162   0.418   5.874   5.916 -0.2487  0.5583 -0.8460
 2535TIP3   OH229163   0.142   0.137   8.358  0.6694 -0.6334  0.2701
 2535TIP3    H129164   0.169   0.054   8.318  0.2750 -0.8187  0.3857
 2535TIP3    H229165   0.182   0.136   8.445  1.3737 -0.3137 -0.0439
 2536TIP3   OH229166   2.042   6.179   6.437 -0.0593 -0.1776  0.5308
 2536TIP3    H129167   1.974   6.129   6.392  0.7288 -1.2257  0.4809
 2536TIP3    H229168   2.125   6.141   6.406  0.5382  0.6109  1.1235
 2537TIP3   OH229169   0.506   6.053   6.958  0.3415 -0.2926 -0.5220
 2537TIP3    H129170   0.518   6.105   6.878  1.9685  0.5128  0.2315
 2537TIP3    H229171   0.479   6.117   7.024 -1.4143 -1.0218 -0.4964
 2538TIP3   OH229172   0.934   3.703   8.268 -0.0801  0.5180 -0.3501
 2538TIP3    H129173   0.860   3.655   8.231  0.2129  1.0760 -1.6962
 2538TIP3    H229174   0.894   3.781   8.307 -0.0888  1.5237 -2.2982
 2539TIP3   OH229175   0.435   4.856   7.417  0.6040  0.1279 -0.1174
 2539TIP3    H129176   0.345   4.878   7.392  0.1928  0.5672  1.7355
 2539TIP3    H229177   0.430   4.767   7.451  0.2917  1.2938  2.9867
 2540TIP3   OH229178   5.835   6.040   8.236  0.1601 -0.2042  0.4468
 2540TIP3    H129179   5.869   6.117   8.191 -0.6134 -0.3698 -0.4319
 2540TIP3    H229180   5.865   5.966   8.183  1.3847 -0.5532  1.6040
 2541TIP3   OH229181   1.424   5.976   6.316 -0.2968  0.3310 -0.6173
 2541TIP3    H129182   1.395   6.016   6.234 -1.4605  0.2745 -0.2376
 2541TIP3    H229183   1.471   5.897   6.289 -2.4864 -0.8096 -1.1458
 2542TIP3   OH229184   0.690   3.689   7.258  0.3502  0.6387 -0.3471
 2542TIP3    H129185   0.743   3.766   7.241  1.6246  0.0044  0.7207
 2542TIP3    H229186   0.615   3.698   7.198  2.3341  0.8300 -2.8690
 2543TIP3   OH229187   1.109   0.591   7.633  0.1711  0.1760 -0.0345
 2543TIP3    H129188   1.202   0.597   7.614  0.1477  0.2618 -0.1228
 2543TIP3    H229189   1.069   0.562   7.551 -0.0523  1.5243 -0.4131
 2544TIP3   OH229190   0.298   7.102   0.773  0.3258 -0.0915  0.4857
 2544TIP3    H129191   0.208   7.134   0.787  0.2939 -0.5507  1.3342
 2544TIP3    H229192   0.336   7.166   0.713 -0.4042  0.3950  0.5248
 2545TIP3   OH229193   3.184   4.044   7.729 -1.2662  0.1743  0.5176
 2545TIP3    H129194   3.172   4.123   7.781 -1.1910  1.3517 -1.2002
 2545TIP3    H229195   3.228   4.075   7.649  0.6725 -1.9087  0.7163
 2546TIP3   OH229196   1.793   5.513   7.503  0.2662  0.2298 -0.7876
 2546TIP3    H129197   1.855   5.547   7.568  0.5559 -0.5818 -0.6332
 2546TIP3    H229198   1.828   5.545   7.419 -0.0145  1.1340 -0.5706
 2547TIP3   OH229199   0.636   6.875   7.401  0.3903  0.6425  0.0791
 2547TIP3    H129200   0.625   6.794   7.452  1.9998  0.4038  0.1013
 2547TIP3    H229201   0.580   6.939   7.445 -1.4781 -0.6497 -0.3892
 2548TIP3   OH229202   2.593   6.464   7.058 -0.2809  0.9646 -0.6499
 2548TIP3    H129203   2.658   6.406   7.018 -1.2607  0.3540 -1.3491
 2548TIP3    H229204   2.591   6.541   7.001  3.4316  3.2210  2.0378
 2549TIP3   OH229205   6.421   5.953   7.341  0.1485 -0.0443 -0.6333
 2549TIP3    H129206   6.403   5.866   7.377  2.5910 -0.0233  0.7469
 2549TIP3    H229207   6.466   5.999   7.412 -3.4119  3.2731 -0.3734
 2550TIP3   OH229208   1.280   0.441   7.011 -0.1206  0.1557  0.3375
 2550TIP3    H129209   1.351   0.395   6.965  1.2953  2.1064  0.4664
 2550TIP3    H229210   1.317   0.460   7.098 -1.1040  0.4755  0.6871
 2551TIP3   OH229211   3.276   1.430   0.361  0.0183 -0.5828 -0.3776
 2551TIP3    H129212   3.252   1.338   0.347 -1.7470 -0.1049 -0.5009
 2551TIP3    H229213   3.215   1.461   0.427  0.8050  0.4452 -0.1213
 2552TIP3   OH229214   2.237   7.057   6.670 -0.1725  0.0130  0.0323
 2552TIP3    H129215   2.323   7.018   6.689 -0.8276 -1.3822  0.2115
 2552TIP3    H229216   2.253   7.114   6.595  0.8247 -0.5738 -0.2237
 2553TIP3   OH229217   0.546   5.568   7.684 -0.5739  0.0097  0.2408
 2553TIP3    H129218   0.595   5.630   7.629 -0.1748  2.5079  3.2862
 2553TIP3    H229219   0.601   5.490   7.687 -0.3461  0.0079 -2.3904
 2554TIP3   OH229220   1.481   1.536   7.739  0.2719 -0.3247 -0.0964
 2554TIP3    H129221   1.568   1.508   7.768  0.2304 -1.5240 -1.0597
 2554TIP3    H229222   1.427   1.534   7.818  0.2408 -3.1930 -0.1131
 2555TIP3   OH229223   2.596   5.868   0.135  0.7045  0.5815  0.3568
 2555TIP3    H129224   2.507   5.900   0.123  0.4557  0.6737  2.3109
 2555TIP3    H229225   2.597   5.832   0.224  2.2350 -0.6783 -0.1459
 2556TIP3   OH229226   1.454   6.057   7.046 -0.7672  0.4307 -0.9454
 2556TIP3    H129227   1.409   6.114   6.983  1.0150  1.7506 -1.0417
 2556TIP3    H229228   1.546   6.059   7.019 -0.4083 -1.0950  0.1169
 2557TIP3   OH229229   0.525   6.949   6.596 -0.3107  0.8072 -0.5632
 2557TIP3    H129230   0.580   7.001   6.538  0.4054  0.8880  0.1876
 2557TIP3    H229231   0.521   6.999   6.677 -0.7605  0.3678 -0.3120
 2558TIP3   OH229232   0.676   1.576   7.360 -0.3131 -0.6122  0.0074
 2558TIP3    H129233   0.655   1.532   7.278 -0.1153  1.8300 -1.3849
 2558TIP3    H229234   0.772   1.576   7.363 -0.3060  0.2853 -0.2954
 2559TIP3   OH229235   2.552   6.492   6.300  0.0728  0.2901 -0.4530
 2559TIP3    H129236   2.626   6.443   6.264  2.3449  2.7496  0.7552
 2559TIP3    H229237   2.551   6.574   6.251 -1.8109  0.3445 -0.3702
 2560TIP3   OH229238   2.449   0.555   6.575 -0.4746 -0.2296 -0.2219
 2560TIP3    H129239   2.414   0.470   6.600 -1.5835 -0.1253 -1.3473
 2560TIP3    H229240   2.504   0.537   6.499 -1.5562  0.1750 -1.1245
 2561TIP3   OH229241   7.121   1.369   7.645  0.6193 -0.5021  0.1594
 2561TIP3    H129242   7.160   1.431   7.583  1.6374  0.5094  1.7788
 2561TIP3    H229243   7.135   1.283   7.605  0.1228  0.2226 -1.6190
 2562TIP3   OH229244   2.037   6.032   7.187  0.0654  0.7554 -0.3191
 2562TIP3    H129245   2.076   6.028   7.275  1.0328 -1.8844 -0.8112
 2562TIP3    H229246   2.111   6.042   7.128 -0.3843  0.3189 -0.9630
 2563TIP3   OH229247   0.886   7.094   6.833 -0.4144  0.6337  0.1804
 2563TIP3    H129248   0.873   7.017   6.888  2.5577 -0.5275 -0.6283
 2563TIP3    H229249   0.841   7.073   6.751 -0.3720  0.1201  0.2886
 2564TIP3   OH229250   1.416   0.065   6.462 -0.3512 -0.0492  0.0261
 2564TIP3    H129251   1.352   0.026   6.403 -0.2866  0.6844 -0.5242
 2564TIP3    H229252   1.449   0.141   6.415 -0.1761  0.4385  0.9300
 2565TIP3   OH229253   0.364   0.690   8.043  0.0675  0.0570  0.6882
 2565TIP3    H129254   0.401   0.668   8.128 -0.8777  0.5311  1.2386
 2565TIP3    H229255   0.293   0.751   8.063 -1.3139 -1.1851 -0.2843
 2566TIP3   OH229256   3.219   0.715   0.590  0.2219  0.1444  0.1588
 2566TIP3    H129257   3.169   0.641   0.555  1.6206 -0.2035 -1.1701
 2566TIP3    H229258   3.179   0.732   0.675 -0.2551 -2.0187  0.4172
 2567TIP3   OH229259   1.947   4.575   7.014  0.0868 -0.1438 -0.1457
 2567TIP3    H129260   1.964   4.506   7.079  1.3548 -1.1703 -1.5393
 2567TIP3    H229261   2.031   4.587   6.969  0.0068  2.6412  0.3629
 2568TIP3   OH229262   3.126   6.538   6.595 -0.0174 -0.2830 -0.3587
 2568TIP3    H129263   3.033   6.526   6.618  0.1114 -0.0099  0.3383
 2568TIP3    H229264   3.129   6.525   6.501 -0.8027 -0.1096 -0.4179
 2569TIP3   OH229265   1.679   5.278   6.684 -0.1135  0.2842 -0.0324
 2569TIP3    H129266   1.590   5.308   6.670  0.6132  1.8621 -1.5405
 2569TIP3    H229267   1.680   5.188   6.650 -0.4516  1.2491 -2.6947
 2570TIP3   OH229268   6.329   3.799   6.681  0.0608 -0.4685 -0.5374
 2570TIP3    H129269   6.380   3.880   6.676  0.7312 -0.9665 -2.2632
 2570TIP3    H229270   6.356   3.750   6.604 -1.7737 -1.5073 -0.5333
 2571TIP3   OH229271   0.434   0.403   6.260 -0.2799 -0.1917 -1.3078
 2571TIP3    H129272   0.518   0.358   6.257 -0.4184 -0.3742 -2.7732
 2571TIP3    H229273   0.371   0.339   6.226 -0.6850  0.6561 -2.1679
 2572TIP3   OH229274   2.487   6.579   8.348 -0.2452 -0.0006  0.0339
 2572TIP3    H129275   2.497   6.631   8.268  0.2907 -2.9317 -1.8888
 2572TIP3    H229276   2.398   6.545   8.343 -0.1660 -0.2926  0.6256
 2573TIP3   OH229277   3.415   2.192   7.334  0.1721  0.4925  0.0769
 2573TIP3    H129278   3.403   2.254   7.405 -0.7784 -0.0681  0.4042
 2573TIP3    H229279   3.435   2.108   7.377 -1.7239 -0.1532 -0.2514
 2574TIP3   OH229280   1.117   0.190   6.938  0.5084  0.0088  0.6447
 2574TIP3    H129281   1.156   0.262   6.988  0.8501  0.6826 -0.5660
 2574TIP3    H229282   1.188   0.126   6.931  0.6713  0.2057  0.4650
 2575TIP3   OH229283   6.614   7.185   8.384  1.0664  0.1842 -0.2396
 2575TIP3    H129284   6.617   7.231   8.300 -1.6254 -0.2371 -0.6123
 2575TIP3    H229285   6.568   7.103   8.365  2.1329 -0.7894  1.2663
 2576TIP3   OH229286   0.750   4.030   0.144 -0.4624  0.1124  0.5987
 2576TIP3    H129287   0.759   4.057   0.235  2.1221 -1.9228  1.0160
 2576TIP3    H229288   0.689   3.957   0.146  0.3903 -0.5992  0.8551
 2577TIP3   OH229289   0.114   2.211   7.827  0.5205 -0.3005  0.5168
 2577TIP3    H129290   0.125   2.304   7.808 -1.5468  0.4725  2.9003
 2577TIP3    H229291   0.025   2.191   7.800  0.4927 -1.2616  1.3056
 2578TIP3   OH229292   1.137   0.745   6.660  0.2010 -0.9096  0.1941
 2578TIP3    H129293   1.173   0.800   6.590  0.7508  1.0693  1.9543
 2578TIP3    H229294   1.046   0.772   6.667  0.6556  0.4034  1.5577
 2579TIP3   OH229295   1.870   5.150   7.026 -0.0351  0.5927 -0.6906
 2579TIP3    H129296   1.901   5.206   6.955  1.8824  0.8721  0.3354
 2579TIP3    H229297   1.872   5.206   7.103  2.1445 -0.8840  0.3977
 2580TIP3   OH229298   0.538   0.630   7.571 -0.0920 -0.1068  0.4486
 2580TIP3    H129299   0.544   0.618   7.666 -1.4810 -1.6523  0.3808
 2580TIP3    H229300   0.605   0.572   7.535  1.4465  1.6145  0.5333
 2581TIP3   OH229301   2.626   0.940   0.510  0.7265 -0.0038 -0.1479
 2581TIP3    H129302   2.640   0.848   0.532 -1.8598 -0.4793 -0.3739
 2581TIP3    H229303   2.620   0.985   0.594  1.4747 -0.1066 -0.0348
 2582TIP3   OH229304   1.439   3.619   6.558  0.4075 -0.0351  0.3689
 2582TIP3    H129305   1.484   3.618   6.473  0.5662  0.9590  0.4262
 2582TIP3    H229306   1.346   3.617   6.536  0.4598 -0.5086  0.1920
 2583TIP3   OH229307   0.654   5.016   7.084 -0.0061  0.0130 -0.3037
 2583TIP3    H129308   0.631   5.062   7.165  1.5356 -0.5328  0.4770
 2583TIP3    H229309   0.600   5.057   7.017 -0.4749  1.2662  0.8078
 2584TIP3   OH229310   0.596   0.308   7.242 -0.4172  0.3718  0.4486
 2584TIP3    H129311   0.613   0.370   7.313  0.7894  0.9089 -0.2826
 2584TIP3    H229312   0.523   0.254   7.273  0.2112  0.4867  2.1410
 2585TIP3   OH229313   0.579   6.563   6.657 -0.3298  0.0755 -0.1485
 2585TIP3    H129314   0.581   6.584   6.751 -0.7380  0.1415 -0.1559
 2585TIP3    H229315   0.657   6.508   6.644  0.9876  1.9084 -0.2081
 2586TIP3   OH229316   1.513   5.062   7.521 -0.8386  0.7083 -0.1507
 2586TIP3    H129317   1.546   5.149   7.500 -2.2438  0.8723 -1.8308
 2586TIP3    H229318   1.506   5.060   7.616  1.3203  1.6338  0.0402
 2587TIP3   OH229319   7.125   4.691   6.810 -0.5915  0.1628 -0.3268
 2587TIP3    H129320   7.221   4.686   6.818 -0.4253  1.7058 -1.2199
 2587TIP3    H229321   7.110   4.720   6.721 -1.9040  0.2264 -0.0841
 2588TIP3   OH229322   1.332   6.436   6.663 -0.4120 -0.4597  0.2932
 2588TIP3    H129323   1.335   6.526   6.630  0.1340 -0.8808 -0.8127
 2588TIP3    H229324   1.416   6.423   6.707  0.8522 -1.4638 -2.3196
 2589TIP3   OH229325   1.361   6.636   7.300 -0.3045 -0.3915  0.5433
 2589TIP3    H129326   1.395   6.718   7.335 -0.9490 -0.7104  1.9441
 2589TIP3    H229327   1.437   6.595   7.258  0.4462  0.0847  1.4179
 2590TIP3   OH229328   0.969   5.585   7.902  0.7303  0.1877 -0.2841
 2590TIP3    H129329   0.948   5.505   7.950  1.1777 -0.0111 -0.4103
 2590TIP3    H229330   0.925   5.574   7.818  0.4654  0.2493 -0.1511
 2591TIP3   OH229331   0.617   5.312   7.784  0.2027 -0.9116  0.0593
 2591TIP3    H129332   0.674   5.262   7.725 -0.1841  0.2043 -1.2917
 2591TIP3    H229333   0.528   5.290   7.756  0.0266  0.1442 -0.2389
 2592TIP3   OH229334   1.590   5.905   5.994 -0.3060 -0.8600  0.3391
 2592TIP3    H129335   1.608   5.842   6.064 -0.6948 -1.1581  0.1722
 2592TIP3    H229336   1.635   5.870   5.918  1.2281  0.1455  0.7534
 2593TIP3   OH229337   0.121   6.200   7.439 -0.3155  0.2163 -0.5926
 2593TIP3    H129338   0.180   6.168   7.508 -0.0767  1.5783 -0.1593
 2593TIP3    H229339   0.167   6.179   7.357  0.3959  0.5526 -0.2813
 2594TIP3   OH229340   7.005   2.129   6.862 -0.3100  0.0370 -0.0147
 2594TIP3    H129341   7.056   2.086   6.794  0.8208  1.6344 -0.2016
 2594TIP3    H229342   7.069   2.153   6.929 -1.3407 -1.0755  1.4093
 2595TIP3   OH229343   7.143   2.143   7.756  0.1816  0.2680  0.3482
 2595TIP3    H129344   7.089   2.195   7.698 -0.4105  0.3001  0.9261
 2595TIP3    H229345   7.093   2.063   7.772 -0.8313  1.3499  2.8586
 2596TIP3   OH229346   1.366   0.543   8.145  0.1607  0.6810  0.1212
 2596TIP3    H129347   1.389   0.561   8.236  2.1564  1.8610 -0.5842
 2596TIP3    H229348   1.304   0.612   8.122 -1.1594 -0.2352  0.8842
 2597TIP3   OH229349   1.993   7.242   6.636 -0.0403 -0.1519  0.4424
 2597TIP3    H129350   2.050   7.174   6.671 -0.5846 -0.8953 -0.1066
 2597TIP3    H229351   2.046   7.285   6.569  1.2057  1.6356  2.5025
 2598TIP3   OH229352   2.667   6.393   8.013  0.1632 -0.5837  0.1243
 2598TIP3    H129353   2.604   6.331   7.975  0.5577  0.0961 -1.6967
 2598TIP3    H229354   2.739   6.338   8.043  0.5803 -1.0389 -1.6234
 2599TIP3   OH229355   1.841   0.121   5.829 -0.7514 -0.2301  0.3421
 2599TIP3    H129356   1.910   0.155   5.772 -0.1098  1.2088  1.9357
 2599TIP3    H229357   1.881   0.046   5.873  0.6372  1.9268  2.9388
 2600TIP3   OH229358   0.751   6.314   6.988  0.2667  0.5277 -0.0779
 2600TIP3    H129359   0.789   6.385   6.936 -0.2459  0.1246 -0.9970
 2600TIP3    H229360   0.658   6.334   6.993  0.3361  0.6437  0.8126
 2601TIP3   OH229361   0.473   0.729   7.234 -0.0355 -0.7159  0.0572
 2601TIP3    H129362   0.425   0.725   7.316  0.9704  1.0017  0.7806
 2601TIP3    H229363   0.493   0.823   7.223 -0.8590 -0.8121 -2.5536
 2602TIP3   OH229364   3.427   5.043   7.464  0.3076  0.3517 -0.0790
 2602TIP3    H129365   3.464   4.955   7.459  0.3842  0.2029  2.4123
 2602TIP3    H229366   3.422   5.062   7.558  0.0660  2.9179 -0.5657
 2603TIP3   OH229367   4.036   6.772   6.422  0.1865  0.1892  0.2766
 2603TIP3    H129368   3.978   6.809   6.355 -1.4719  1.4720  2.3537
 2603TIP3    H229369   3.989   6.695   6.454 -1.1857  2.0664  3.0127
 2604TIP3   OH229370   3.414   2.100   7.969  0.6074  0.3946  0.1943
 2604TIP3    H129371   3.366   2.150   8.035  0.5209  1.2927 -0.5365
 2604TIP3    H229372   3.347   2.070   7.907  0.7213 -0.2148  0.3607
 2605TIP3   OH229373   0.409   5.159   7.682 -0.0481 -0.3876 -0.3602
 2605TIP3    H129374   0.353   5.083   7.698 -1.2375  0.2191 -1.5766
 2605TIP3    H229375   0.377   5.197   7.600  0.5916  1.3644  0.1616
 2606TIP3   OH229376   1.293   0.200   6.708 -0.9654 -0.2909 -0.7128
 2606TIP3    H129377   1.365   0.206   6.645 -1.2172  1.8439 -0.8258
 2606TIP3    H229378   1.319   0.131   6.769  1.0548  0.2873 -0.9051
 2607TIP3   OH229379   1.747   7.297   1.879  0.0408  0.3350 -0.3967
 2607TIP3    H129380   1.690   7.279   1.954  2.0535  2.2989  1.6937
 2607TIP3    H229381   1.792   7.214   1.863  0.1790  0.0882  1.1397
 2608TIP3   OH229382   1.201   5.258   7.188 -0.0519 -0.3640  0.0462
 2608TIP3    H129383   1.117   5.222   7.159 -0.6510  0.3722  0.8143
 2608TIP3    H229384   1.257   5.255   7.111 -0.9076 -0.5143 -0.5750
 2609TIP3   OH229385   1.033   3.244   8.113 -0.3748  0.0744 -1.3621
 2609TIP3    H129386   1.028   3.149   8.110 -0.2775  0.0302 -0.2976
 2609TIP3    H229387   0.950   3.275   8.077 -1.2507 -0.4372  0.1851
 2610TIP3   OH229388   7.234   5.955   7.160 -0.2053 -0.2642 -0.1064
 2610TIP3    H129389   7.281   6.038   7.152 -0.0816 -0.3054  0.2124
 2610TIP3    H229390   7.296   5.889   7.127  0.1643 -0.3868  0.8347
 2611TIP3   OH229391   6.478   5.936   0.796 -0.2385  0.0777  0.5896
 2611TIP3    H129392   6.501   5.899   0.881 -1.1741  0.7002  1.1215
 2611TIP3    H229393   6.481   5.862   0.736 -0.5895 -0.5698  1.3591
 2612TIP3   OH229394   4.445   0.619   7.638  0.2503  0.1316  0.7568
 2612TIP3    H129395   4.350   0.609   7.628  0.7721 -2.4810 -2.3387
 2612TIP3    H229396   4.468   0.688   7.576  0.5495 -0.2700  0.4181
 2613TIP3   OH229397   0.250   6.222   0.294 -0.2035  0.4220 -0.1720
 2613TIP3    H129398   0.169   6.214   0.244  0.6562  0.5171 -1.6247
 2613TIP3    H229399   0.225   6.203   0.384 -1.5057 -1.2476 -0.8669
 2614TIP3   OH229400   7.057   4.070   6.673  0.6359  0.4849  0.0673
 2614TIP3    H129401   7.032   4.042   6.586  2.0995  0.2641 -0.2918
 2614TIP3    H229402   7.152   4.069   6.673  0.7116  2.7317  0.9194
 2615TIP3   OH229403   3.423   1.663   8.401 -0.6522 -0.2913  0.1378
 2615TIP3    H129404   3.424   1.574   8.367 -0.0916 -0.3376  0.2824
 2615TIP3    H229405   3.344   1.666   8.456 -1.4324 -0.2800 -0.9545
 2616TIP3   OH229406   0.774   3.215   1.738 -0.1303  0.2254  0.4797
 2616TIP3    H129407   0.679   3.221   1.724 -0.0077 -1.4176 -1.2409
 2616TIP3    H229408   0.808   3.297   1.701 -0.6970 -0.0649 -0.7211
 2617TIP3   OH229409   1.840   5.892   6.338 -0.2947 -0.1586  0.5619
 2617TIP3    H129410   1.793   5.971   6.311  1.4341  1.0104  0.8161
 2617TIP3    H229411   1.874   5.856   6.256  0.0905  0.1602  0.5770
 2618TIP3   OH229412   1.374   0.050   6.958  0.3931 -0.4714  0.1788
 2618TIP3    H129413   1.418   0.104   7.024  0.5585  2.2384 -2.0791
 2618TIP3    H229414   1.441  -0.011   6.928  1.5040  1.0135 -0.4062
 2619TIP3   OH229415   2.029   6.176   6.042  0.6077 -0.3304 -0.4155
 2619TIP3    H129416   2.077   6.259   6.051  1.5205 -0.7879 -0.9443
 2619TIP3    H229417   1.952   6.198   5.991  0.3368  0.3866  0.2931
 2620TIP3   OH229418   2.450   4.935   7.273 -0.1946 -0.0226 -0.3293
 2620TIP3    H129419   2.467   4.980   7.190  0.9142 -0.6942 -0.4831
 2620TIP3    H229420   2.378   4.984   7.313  0.9242  1.8394 -0.5329
 2621TIP3   OH229421   1.819   4.575   7.326 -0.2442  0.1559  0.5835
 2621TIP3    H129422   1.777   4.490   7.318 -0.8587  0.6751 -2.3934
 2621TIP3    H229423   1.757   4.628   7.377 -0.3752 -0.8372  1.4643
 2622TIP3   OH229424   6.734   5.483   6.317  0.3242 -0.5308 -0.3387
 2622TIP3    H129425   6.659   5.544   6.319  2.7301  2.6268 -1.5497
 2622TIP3    H229426   6.735   5.451   6.227  1.4644  0.8869 -0.8594
 2623TIP3   OH229427   1.063   6.427   6.710  0.3286 -0.2129 -0.2454
 2623TIP3    H129428   1.102   6.483   6.777 -0.0224 -1.2524  0.8220
 2623TIP3    H229429   1.138   6.391   6.662  0.5732  0.5774 -0.4758
 2624TIP3   OH229430   0.413   4.454   6.421 -0.4661  0.4932 -0.1666
 2624TIP3    H129431   0.432   4.515   6.350  0.0840  1.4643  0.8061
 2624TIP3    H229432   0.327   4.417   6.398 -0.5687  1.2523 -1.0273
 2625TIP3   OH229433   5.702   3.640   6.842  0.3861  0.1814  0.1469
 2625TIP3    H129434   5.665   3.725   6.863  0.5757  0.3783 -0.3053
 2625TIP3    H229435   5.724   3.646   6.749 -0.9571 -0.8682 -0.2564
 2626TIP3   OH229436   2.117   6.477   0.016  0.1325 -0.0869 -0.6151
 2626TIP3    H129437   2.107   6.498   0.109 -0.6929 -0.5139 -0.6020
 2626TIP3    H229438   2.194   6.420   0.013  0.0291 -0.2576 -0.1658
 2627TIP3   OH229439   2.070   5.000   7.753  0.2286 -0.1702  0.4975
 2627TIP3    H129440   1.998   4.996   7.690  0.5365 -1.8077  0.2272
 2627TIP3    H229441   2.029   5.024   7.836 -0.3282  0.9716 -0.0953
 2628TIP3   OH229442   6.180   4.814   1.026  0.0080 -0.3765 -0.7708
 2628TIP3    H129443   6.174   4.748   1.095  0.8006  0.0696 -0.2615
 2628TIP3    H229444   6.233   4.772   0.958  0.0579 -0.4580 -0.6823
 2629TIP3   OH229445   2.157   6.520   8.222  0.3914 -0.1286 -0.3929
 2629TIP3    H129446   2.072   6.476   8.225 -0.8443  2.1911  0.5957
 2629TIP3    H229447   2.138   6.606   8.184  2.5175 -0.0146 -1.2434
 2630TIP3   OH229448   3.419   0.495   6.884  0.4465  0.1837 -0.1432
 2630TIP3    H129449   3.331   0.474   6.852  0.6293  0.0535 -0.5571
 2630TIP3    H229450   3.412   0.586   6.914 -0.0844 -0.1354  0.7361
 2631TIP3   OH229451   2.947   5.899   6.955  0.5948 -0.2054  0.0448
 2631TIP3    H129452   2.915   5.813   6.983 -0.0098 -0.3833 -1.1583
 2631TIP3    H229453   3.040   5.886   6.940  0.0705 -1.2975 -2.4850
 2632TIP3   OH229454   1.429   6.698   6.971  0.6717  0.2360 -0.6863
 2632TIP3    H129455   1.450   6.683   6.879  2.5974 -0.3838 -0.1607
 2632TIP3    H229456   1.421   6.610   7.008  0.1236  0.4904 -0.1972
 2633TIP3   OH229457   3.192   0.670   6.600 -0.2592 -0.0933 -0.0666
 2633TIP3    H129458   3.140   0.648   6.523  2.0594 -1.9347 -1.1776
 2633TIP3    H229459   3.224   0.586   6.632 -0.6834  0.7062  2.5472
 2634TIP3   OH229460   3.565   0.068   6.731  0.4270  0.1426  0.2739
 2634TIP3    H129461   3.617   0.038   6.806  0.5330  1.4895  0.7533
 2634TIP3    H229462   3.600   0.156   6.712 -0.2325  0.1815 -0.7549
 2635TIP3   OH229463   2.871   6.337   5.932 -0.1052  0.0515 -0.8323
 2635TIP3    H129464   2.884   6.290   5.850  0.8904  0.2779 -0.8130
 2635TIP3    H229465   2.958   6.372   5.954 -0.8709  2.0808 -0.9424
 2636TIP3   OH229466   2.255   5.905   6.635  0.2557  0.2457  0.1957
 2636TIP3    H129467   2.339   5.885   6.593  0.0000  1.9302 -1.1727
 2636TIP3    H229468   2.192   5.848   6.591  0.3364  0.5056 -0.2584
 2637TIP3   OH229469   2.247   5.076   7.360  0.0412  0.0193  0.2895
 2637TIP3    H129470   2.270   5.165   7.385 -0.2713  0.3729 -0.6812
 2637TIP3    H229471   2.154   5.081   7.336  0.2910 -0.3593 -0.7563
 2638TIP3   OH229472   5.348   5.855   0.811 -0.2844  0.2538  0.6414
 2638TIP3    H129473   5.399   5.841   0.731  0.4871 -1.8578  1.4467
 2638TIP3    H229474   5.271   5.904   0.783  0.8011  1.0183 -1.0945
 2639TIP3   OH229475   3.879   5.059   6.793 -0.4121  0.0610 -0.4974
 2639TIP3    H129476   3.798   5.012   6.775 -0.6890 -0.7771  2.7037
 2639TIP3    H229477   3.948   4.996   6.773 -0.7088 -0.8045  1.1087
 2640TIP3   OH229478   3.494   6.494   7.682 -0.1731  0.2470  0.1568
 2640TIP3    H129479   3.544   6.511   7.602  0.6530  1.3055  0.8805
 2640TIP3    H229480   3.509   6.571   7.736 -3.7831  1.2842 -0.1805
 2641TIP3   OH229481   2.208   6.298   6.893 -0.4476 -0.4735 -0.1664
 2641TIP3    H129482   2.155   6.246   6.833 -0.8576 -0.8369  0.4999
 2641TIP3    H229483   2.190   6.389   6.869 -1.0398 -0.6034 -0.2276
 2642TIP3   OH229484   2.532   3.525   0.509  0.2267  0.2872 -0.0207
 2642TIP3    H129485   2.545   3.598   0.570  0.3529  0.3428 -0.1148
 2642TIP3    H229486   2.437   3.522   0.496  0.3203  1.2411 -0.9992
 2643TIP3   OH229487   2.074   4.890   0.287 -0.3952 -0.5011 -0.4726
 2643TIP3    H129488   2.061   4.889   0.382  0.8028 -1.8649 -0.3113
 2643TIP3    H229489   2.043   4.804   0.258  1.4911 -1.0111 -0.9981
 2644TIP3   OH229490   3.202   5.952   7.251  0.0360 -0.0293  0.2669
 2644TIP3    H129491   3.239   5.917   7.331  0.3453 -0.0639  0.1075
 2644TIP3    H229492   3.113   5.916   7.247  0.6117 -1.4127 -0.2989
 2645TIP3   OH229493   1.563   5.586   6.569  0.3709  0.5304  0.7855
 2645TIP3    H129494   1.592   5.676   6.555  1.5255  0.3731  2.0627
 2645TIP3    H229495   1.506   5.591   6.646  0.7429  0.1332  1.0941
 2646TIP3   OH229496   3.376   3.991   7.383 -0.5375 -0.1124 -0.1481
 2646TIP3    H129497   3.448   3.985   7.445  0.7095  0.1629 -1.5374
 2646TIP3    H229498   3.376   3.907   7.337 -1.1942 -0.1676 -0.0452
 2647TIP3   OH229499   4.706   4.677   8.312 -0.3210  0.3965  0.2580
 2647TIP3    H129500   4.789   4.725   8.305  0.4423 -0.7453  1.2209
 2647TIP3    H229501   4.704   4.647   8.403 -3.8083  3.9999  1.5399
 2648TIP3   OH229502   4.656   6.706   6.751  0.0603  0.3369 -0.1777
 2648TIP3    H129503   4.702   6.727   6.832  0.3834 -0.1778 -0.2251
 2648TIP3    H229504   4.566   6.686   6.778  0.2803 -0.2709  0.1026
 2649TIP3   OH229505   3.296   7.031   6.646 -0.4297 -0.2183 -0.4851
 2649TIP3    H129506   3.236   7.065   6.580  0.8108 -0.3684 -1.7206
 2649TIP3    H229507   3.356   7.104   6.663  0.8686 -1.0183 -1.5019
 2650TIP3   OH229508   2.872   0.484   7.611  0.7646  0.0673  0.5304
 2650TIP3    H129509   2.783   0.449   7.609 -0.2567  2.5701 -0.8669
 2650TIP3    H229510   2.900   0.474   7.702 -0.9546 -0.6903  1.0013
 2651TIP3   OH229511   2.498   6.108   7.276  0.2485 -0.1939  0.6405
 2651TIP3    H129512   2.433   6.134   7.210  1.8860  1.0971 -0.5186
 2651TIP3    H229513   2.531   6.024   7.245 -1.4366 -1.2618  1.6791
 2652TIP3   OH229514   2.930   0.655   6.815  0.1847  0.5620 -0.2395
 2652TIP3    H129515   2.877   0.581   6.787 -0.0791  0.4477  0.5589
 2652TIP3    H229516   2.981   0.679   6.737 -0.7613  0.4441 -0.9021
 2653TIP3   OH229517   5.209   5.807   7.147  0.0722  0.2038 -0.6195
 2653TIP3    H129518   5.120   5.771   7.142  0.4406 -1.0281  1.2835
 2653TIP3    H229519   5.260   5.751   7.089  0.3128 -1.4099  1.0891
 2654TIP3   OH229520   1.983   3.498   0.103  0.1135 -0.1449 -0.6894
 2654TIP3    H129521   2.073   3.506   0.134  0.0046  1.1695 -0.6853
 2654TIP3    H229522   1.929   3.516   0.180 -0.1513  2.5066 -1.4541
 2655TIP3   OH229523   3.487   1.421   7.300 -0.3110 -0.2909 -0.5664
 2655TIP3    H129524   3.577   1.415   7.331  0.1499  0.1941 -1.7582
 2655TIP3    H229525   3.434   1.427   7.380  0.7630  0.1083  0.1313
 2656TIP3   OH229526   3.574   7.255   6.207 -0.1427  0.1543 -0.3897
 2656TIP3    H129527   3.577   7.295   6.120 -0.1200  0.2928 -0.3267
 2656TIP3    H229528   3.586   7.161   6.191 -1.4573  0.0247 -0.6433
 2657TIP3   OH229529   2.759   1.538   7.257  0.1560 -0.3107 -0.0937
 2657TIP3    H129530   2.716   1.491   7.328 -0.8257  0.6840 -0.0203
 2657TIP3    H229531   2.731   1.491   7.178 -0.9814  0.2429 -0.0355
 2658TIP3   OH229532   2.249   6.670   6.211 -0.0247 -0.0205  0.3284
 2658TIP3    H129533   2.203   6.596   6.173  0.9323  0.7449 -2.4584
 2658TIP3    H229534   2.212   6.747   6.168  1.4665  0.8420  0.5190
 2659TIP3   OH229535   3.126   6.571   0.792  0.3185 -0.0839 -0.2102
 2659TIP3    H129536   3.216   6.582   0.824 -0.6952  0.2430  2.6699
 2659TIP3    H229537   3.096   6.491   0.834 -0.6465 -0.3704 -1.4255
 2660TIP3   OH229538   2.126   7.048   7.918  0.3805 -0.6762 -0.0482
 2660TIP3    H129539   2.041   7.005   7.909 -0.1783  0.4328 -0.1256
 2660TIP3    H229540   2.142   7.050   8.012  0.0605 -0.4067  0.0036
 2661TIP3   OH229541   2.809   4.238   7.730  0.1125  0.2800  0.0611
 2661TIP3    H129542   2.848   4.153   7.752 -1.8297 -0.6202  0.1661
 2661TIP3    H229543   2.735   4.246   7.790  1.7585  3.2352  1.7963
 2662TIP3   OH229544   1.689   6.261   6.533 -0.7772  0.1406  0.1191
 2662TIP3    H129545   1.734   6.282   6.615 -1.1347 -1.4895  0.7495
 2662TIP3    H229546   1.643   6.180   6.552  0.2898 -1.0220 -2.1300
 2663TIP3   OH229547   1.653   2.101   7.562 -0.6236  0.4487 -0.0915
 2663TIP3    H129548   1.568   2.064   7.582 -0.0332 -1.2428 -0.6175
 2663TIP3    H229549   1.698   2.107   7.646 -0.6014 -0.3651 -0.0424
 2664TIP3   OH229550   1.855   5.839   7.232 -0.0479 -0.1782  0.3966
 2664TIP3    H129551   1.933   5.895   7.229  0.9367 -1.4923  0.9399
 2664TIP3    H229552   1.784   5.898   7.255  0.8792  0.9493  0.4260
 2665TIP3   OH229553   2.814   0.356   7.225 -0.5032  0.1113 -0.2665
 2665TIP3    H129554   2.804   0.299   7.148  3.2390  0.2630 -0.9671
 2665TIP3    H229555   2.785   0.302   7.298 -0.4927 -1.4143 -1.3463
 2666TIP3   OH229556   2.882   5.762   8.399 -0.2385  0.4086 -0.8179
 2666TIP3    H129557   2.949   5.792   8.337  1.9559  1.1037  1.8026
 2666TIP3    H229558   2.873   5.668   8.381  1.9462  0.1730 -0.7508
 2667TIP3   OH229559   2.363   0.284   6.584 -0.1740 -0.2664  0.2075
 2667TIP3    H129560   2.422   0.247   6.519 -1.0697 -1.7551  0.2279
 2667TIP3    H229561   2.275   0.259   6.554 -0.8138  1.8505  0.2134
 2668TIP3   OH229562   3.520   0.320   0.381  0.2670 -0.3085 -0.2928
 2668TIP3    H129563   3.519   0.295   0.473 -1.7353  0.8950  0.0390
 2668TIP3    H229564   3.428   0.315   0.354  0.4357  2.0915 -1.4423
 2669TIP3   OH229565   2.960   0.255   6.559 -0.2997  0.9326  0.2402
 2669TIP3    H129566   2.954   0.347   6.585  1.8802  1.0251  0.5284
 2669TIP3    H229567   3.042   0.249   6.510 -0.2806 -0.9086  0.4519
 2670TIP3   OH229568   0.613   6.877   7.806 -0.0208 -0.3030 -0.3975
 2670TIP3    H129569   0.606   6.928   7.886 -0.3324 -1.6688  0.4630
 2670TIP3    H229570   0.703   6.891   7.776 -0.0909  0.6938 -0.1362
 2671TIP3   OH229571   3.628   6.506   7.454  0.0307 -0.3739  0.2349
 2671TIP3    H129572   3.649   6.425   7.408  0.6619 -0.6934  1.0725
 2671TIP3    H229573   3.583   6.560   7.389  0.8316 -0.8513 -0.7318
 2672TIP3   OH229574   2.045   0.483   6.202 -0.5627 -0.2029 -0.3086
 2672TIP3    H129575   1.987   0.407   6.197  0.1022 -0.7063 -0.4237
 2672TIP3    H229576   2.126   0.449   6.239 -1.1117  0.9653  2.0579
 2673TIP3   OH229577   3.605   6.982   6.166  0.0143  0.2667  0.2625
 2673TIP3    H129578   3.600   6.991   6.070 -0.2689 -0.7876  0.1722
 2673TIP3    H229579   3.517   6.954   6.192  1.1537 -3.5487  0.3527
 2674TIP3   OH229580   1.239   0.841   6.930 -0.5956 -0.0735 -0.4520
 2674TIP3    H129581   1.180   0.863   7.003  0.7189  0.6369  0.4029
 2674TIP3    H229582   1.267   0.925   6.895  1.4172 -0.3869  0.3730
 2675TIP3   OH229583   1.049   6.741   7.535  0.9050  0.2282  0.5062
 2675TIP3    H129584   1.091   6.821   7.504  1.1744 -0.7403 -1.7525
 2675TIP3    H229585   1.057   6.680   7.462 -0.1761 -1.5476  1.8210
 2676TIP3   OH229586   2.364   1.431   7.402  0.1210 -0.1233 -0.5071
 2676TIP3    H129587   2.297   1.378   7.446  0.0347 -0.3140 -0.8581
 2676TIP3    H229588   2.362   1.400   7.311  1.1661 -0.6230 -0.3755
 2677TIP3   OH229589   1.200   0.486   6.415  0.3294 -0.3933 -0.2907
 2677TIP3    H129590   1.171   0.562   6.365  0.1738 -1.4242 -1.8003
 2677TIP3    H229591   1.168   0.410   6.365  1.3504 -1.4668  0.6504
 2678TIP3   OH229592   2.708   6.932   6.779 -0.2926  0.2086 -0.0351
 2678TIP3    H129593   2.657   7.009   6.804 -0.2617  0.2207 -0.0095
 2678TIP3    H229594   2.657   6.893   6.707 -0.2336  0.3354 -0.1461
 2679TIP3   OH229595   3.698   6.659   8.081 -0.0231  0.2995 -0.1962
 2679TIP3    H129596   3.771   6.597   8.083  0.2512  0.6622  1.3003
 2679TIP3    H229597   3.686   6.678   7.988  1.6017  0.0080 -0.4868
 2680TIP3   OH229598   2.169   5.049   6.922  0.3729  0.9654 -0.3926
 2680TIP3    H129599   2.254   5.010   6.901  0.9224  0.6048  2.3008
 2680TIP3    H229600   2.190   5.130   6.968 -0.7101  0.3799  1.1865
 2681TIP3   OH229601   5.027   4.625   7.787 -0.3957 -0.2121 -0.1588
 2681TIP3    H129602   5.009   4.540   7.826 -0.3040 -1.5669 -2.9424
 2681TIP3    H229603   4.941   4.664   7.771 -0.4199  0.7253  2.1095
 2682TIP3   OH229604   3.821   1.090   0.357  1.0222  0.0396  0.0701
 2682TIP3    H129605   3.878   1.031   0.307 -0.5873 -0.9578 -0.6172
 2682TIP3    H229606   3.802   1.041   0.437 -0.4411 -0.4735 -0.5677
 2683TIP3   OH229607   2.969   6.839   5.933 -0.1763 -0.7949 -0.1591
 2683TIP3    H129608   3.015   6.883   5.861 -0.9442 -0.7603 -0.6421
 2683TIP3    H229609   2.915   6.907   5.972 -2.3930 -1.5726 -1.7606
 2684TIP3   OH229610   4.662   6.968   6.421  0.1927 -0.0069 -0.1049
 2684TIP3    H129611   4.602   6.898   6.447 -0.2259  0.5141  0.3399
 2684TIP3    H229612   4.608   7.027   6.368  0.4494  0.1782 -0.1595
 2685TIP3   OH229613   3.680   0.419   7.449 -0.3648 -0.1382 -0.4750
 2685TIP3    H129614   3.646   0.493   7.398 -0.7318 -0.4906 -0.7466
 2685TIP3    H229615   3.602   0.366   7.467 -0.2828  0.1311  0.6939
 2686TIP3   OH229616   2.999   5.783   7.323 -0.1333  0.3969 -0.1654
 2686TIP3    H129617   2.974   5.705   7.373 -1.0348 -1.0618 -2.7754
 2686TIP3    H229618   2.928   5.845   7.340  1.0888  1.1086  2.7361
 2687TIP3   OH229619   1.907   3.912   0.917 -0.1395 -0.9812 -0.5201
 2687TIP3    H129620   1.819   3.889   0.947  0.6120 -0.1357  2.4703
 2687TIP3    H229621   1.963   3.840   0.947  0.8251  0.4587  1.2410
 2688TIP3   OH229622   4.166   4.789   0.729  0.3988  0.4414  0.5938
 2688TIP3    H129623   4.072   4.792   0.708  0.3649 -0.5262  0.5757
 2688TIP3    H229624   4.204   4.861   0.678  0.2053 -1.4152 -2.3060
 2689TIP3   OH229625   1.299   6.242   6.903  0.1271 -0.5236 -0.0638
 2689TIP3    H129626   1.262   6.205   6.823  0.9703 -0.7445 -0.3541
 2689TIP3    H229627   1.232   6.302   6.935 -0.3629 -0.7075 -0.7437
 2690TIP3   OH229628   1.462   6.713   6.375  0.3008 -0.0964 -0.2817
 2690TIP3    H129629   1.497   6.635   6.418 -0.2031  1.1824  2.5177
 2690TIP3    H229630   1.412   6.679   6.300 -0.5088 -2.4931  1.3115
 2691TIP3   OH229631   1.472   5.585   7.246 -0.5517 -0.3454 -0.1409
 2691TIP3    H129632   1.477   5.493   7.272 -0.1688 -0.3526 -0.2303
 2691TIP3    H229633   1.497   5.585   7.154 -0.6715 -0.1666 -0.1720
 2692TIP3   OH229634   1.937   5.814   7.546  0.0488  0.3899  0.0241
 2692TIP3    H129635   2.002   5.747   7.569  0.6167  0.6979 -0.6660
 2692TIP3    H229636   1.948   5.881   7.613  0.6125  0.5501 -0.2204
 2693TIP3   OH229637   1.766   5.600   6.047  0.2650  0.0141 -0.2322
 2693TIP3    H129638   1.695   5.630   6.104 -0.0669 -0.1397 -0.5657
 2693TIP3    H229639   1.786   5.511   6.078 -0.7377 -0.5313 -1.1368
 2694TIP3   OH229640   1.264   5.636   7.909 -0.0990 -0.3978  0.3941
 2694TIP3    H129641   1.173   5.624   7.883 -0.0207  0.1674 -0.1495
 2694TIP3    H229642   1.297   5.705   7.851  0.3697  0.1579  1.3065
 2695TIP3   OH229643   4.351   6.271   6.859 -0.8508 -0.3481  0.0188
 2695TIP3    H129644   4.358   6.283   6.954 -2.5887  1.6156 -0.0706
 2695TIP3    H229645   4.288   6.200   6.848  1.8504 -2.9019  0.3483
 2696TIP3   OH229646   4.438   6.773   6.948 -0.0700 -0.0279 -0.8392
 2696TIP3    H129647   4.469   6.737   7.031 -1.1553  0.5159 -0.1938
 2696TIP3    H229648   4.347   6.746   6.942 -0.4692  1.3385 -1.0541
 2697TIP3   OH229649   2.771   5.518   6.703  0.5598 -0.3048  0.7836
 2697TIP3    H129650   2.765   5.563   6.619  0.9897 -0.3138  0.7443
 2697TIP3    H229651   2.845   5.458   6.692 -2.0005 -3.4515 -0.3260
 2698TIP3   OH229652   1.491   6.932   6.566  0.8027 -0.1661 -0.3331
 2698TIP3    H129653   1.445   7.016   6.559  2.9200  1.2378  1.9225
 2698TIP3    H229654   1.464   6.884   6.488 -0.4235  2.6288 -1.7108
 2699TIP3   OH229655   2.503   6.485   6.566  0.3331 -0.8208 -0.3175
 2699TIP3    H129656   2.441   6.555   6.585  1.6959  0.3889 -0.2821
 2699TIP3    H229657   2.501   6.476   6.471  0.7896 -0.1305 -0.3980
 2700TIP3   OH229658   2.270   6.580   6.879  0.4250 -0.4553  0.0941
 2700TIP3    H129659   2.334   6.574   6.809  0.0857 -1.3125 -0.1516
 2700TIP3    H229660   2.203   6.639   6.846  0.1236 -1.0797 -0.4241
 2701TIP3   OH229661   2.302   4.108   6.569  0.2806 -0.2527  0.1207
 2701TIP3    H129662   2.209   4.089   6.584  0.7229 -0.2891  3.1559
 2701TIP3    H229663   2.328   4.046   6.500 -1.1647 -2.5577  1.5613
 2702TIP3   OH229664   0.433   6.242   7.152  0.5671  0.2143 -0.0895
 2702TIP3    H129665   0.389   6.326   7.136 -1.0135 -0.6134 -0.1446
 2702TIP3    H229666   0.510   6.266   7.204 -0.5528  1.5843  1.0099
 2703TIP3   OH229667   1.616   4.962   6.606 -0.1031  0.0303 -0.5413
 2703TIP3    H129668   1.524   4.985   6.613 -0.2726 -1.1472  1.2561
 2703TIP3    H229669   1.644   4.943   6.696  1.5374 -0.9511 -1.2202
 2704TIP3   OH229670   3.566   5.885   0.173  0.0566  0.2625  0.5250
 2704TIP3    H129671   3.500   5.921   0.113  0.8831  2.7821  1.0737
 2704TIP3    H229672   3.640   5.864   0.116 -0.6488 -1.2031  0.1158
 2705TIP3   OH229673   2.582   5.539   8.289 -0.4050  0.1455 -0.1737
 2705TIP3    H129674   2.663   5.491   8.302 -0.4417 -0.5544 -2.3525
 2705TIP3    H229675   2.603   5.605   8.223 -0.9576  1.6339  1.1051
 2706TIP3   OH229676   3.897   6.513   6.492  0.1938 -0.1266  0.5583
 2706TIP3    H129677   3.842   6.539   6.418  1.3964  2.1567  0.4261
 2706TIP3    H229678   3.901   6.418   6.486 -1.8040 -0.1659 -0.8112
 2707TIP3   OH229679   3.048   5.733   7.631  0.6065  0.5933 -0.0741
 2707TIP3    H129680   3.133   5.775   7.620  0.6552  1.1858  2.3395
 2707TIP3    H229681   3.031   5.736   7.725 -1.2268 -1.2095 -0.3019
 2708TIP3   OH229682   2.261   6.620   7.780 -0.1475  0.0756 -0.2922
 2708TIP3    H129683   2.174   6.661   7.774 -0.8152 -1.5068 -2.1141
 2708TIP3    H229684   2.275   6.583   7.693  2.4714  0.4917 -0.0619
 2709TIP3   OH229685   2.835   0.070   6.738  0.6777  0.9474 -0.2064
 2709TIP3    H129686   2.864   0.142   6.682 -0.2368  1.9121  0.5380
 2709TIP3    H229687   2.768   0.025   6.686  1.3112  0.5702 -0.7071
 2710TIP3   OH229688   3.589   1.229   8.271  0.5655  0.5554  0.2177
 2710TIP3    H129689   3.662   1.274   8.313  0.1789  0.8234  0.6173
 2710TIP3    H229690   3.617   1.215   8.181  0.2060  2.7284 -0.2534
 2711TIP3   OH229691   4.007   6.555   0.676  0.6584 -0.0717 -0.0991
 2711TIP3    H129692   4.099   6.548   0.651  1.1363 -1.0400  1.8105
 2711TIP3    H229693   4.007   6.611   0.754 -0.0873 -1.6976  1.1279
 2712TIP3   OH229694   3.966   6.681   7.155 -0.6542  0.2891 -0.2313
 2712TIP3    H129695   3.884   6.650   7.118 -0.2653 -0.5897 -0.3562
 2712TIP3    H229696   3.946   6.697   7.248 -0.4577 -1.8502  0.1975
 2713TIP3   OH229697   3.146   6.328   6.057  1.1517 -0.3750 -0.7304
 2713TIP3    H129698   3.194   6.353   6.137  0.8599  0.7811 -0.8977
 2713TIP3    H229699   3.213   6.329   5.988  1.2152 -0.4008 -0.6698
 2714TIP3   OH229700   3.223   0.471   6.296  0.7288 -0.3719  0.1534
 2714TIP3    H129701   3.128   0.467   6.307  0.8391 -1.2854  0.8675
 2714TIP3    H229702   3.242   0.564   6.285 -0.2496 -0.1825 -0.0002
 2715TIP3   OH229703   2.364   7.014   6.137 -0.6447  0.2250 -0.2550
 2715TIP3    H129704   2.339   7.100   6.104 -0.8535  0.0036 -0.6813
 2715TIP3    H229705   2.459   7.010   6.125 -0.6577  0.3333 -0.3848
 2716TIP3   OH229706   3.762   5.735   7.205  0.2198 -0.6433  0.4675
 2716TIP3    H129707   3.784   5.694   7.288  0.9561  0.5032  0.8647
 2716TIP3    H229708   3.699   5.803   7.227  1.4033  0.5439  0.3087
 2717TIP3   OH229709   1.673   0.033   7.472  0.5982 -0.5723 -0.0684
 2717TIP3    H129710   1.742  -0.031   7.455  0.4874 -0.2881 -1.7408
 2717TIP3    H229711   1.670   0.040   7.567  2.1445 -1.3798  0.0703
 2718TIP3   OH229712   2.008   0.896   7.372 -0.6765  0.2094 -0.2995
 2718TIP3    H129713   1.920   0.887   7.409  0.6734 -0.3646  2.9208
 2718TIP3    H229714   2.025   0.991   7.375 -1.1492  0.3206 -0.9197
 2719TIP3   OH229715   3.008   6.465   6.326  0.1994 -0.2654  0.5101
 2719TIP3    H129716   3.089   6.455   6.277 -0.2229  1.4618 -0.5911
 2719TIP3    H229717   2.946   6.502   6.263 -2.0629 -3.4131  0.7626
 2720TIP3   OH229718   7.217   6.422   6.901  0.1184  0.3889 -0.4718
 2720TIP3    H129719   7.174   6.397   6.983  1.3984 -2.5613 -0.6041
 2720TIP3    H229720   7.151   6.408   6.834 -0.5153  1.4996 -0.0785
 2721TIP3   OH229721   2.823   6.810   6.388 -0.1687  0.2825  0.0304
 2721TIP3    H129722   2.788   6.841   6.304 -0.3853  1.4870  0.5515
 2721TIP3    H229723   2.914   6.787   6.368 -0.3601  0.0785 -0.6446
 2722TIP3   OH229724   1.081   0.068   0.114  0.5069  0.2827  0.6415
 2722TIP3    H129725   1.096  -0.023   0.090  1.4017  0.8136 -0.9266
 2722TIP3    H229726   1.067   0.067   0.209 -0.6864 -1.6144  0.4578
 2723TIP3   OH229727   3.023   4.440   8.106  0.2276  0.0631  0.5176
 2723TIP3    H129728   3.114   4.443   8.077 -0.3519 -0.1948 -1.4320
 2723TIP3    H229729   2.989   4.359   8.069 -1.6940  1.7883 -1.6347
 2724TIP3   OH229730   1.767   6.786   7.245 -0.0932 -0.9185 -0.5473
 2724TIP3    H129731   1.747   6.830   7.162 -0.9223  0.8388  0.5639
 2724TIP3    H229732   1.729   6.843   7.312 -1.4592 -3.4878  0.9344
 2725TIP3   OH229733   0.665   0.412   7.493  0.1717 -0.0298 -0.3092
 2725TIP3    H129734   0.577   0.380   7.512  0.0421  1.7352  2.2536
 2725TIP3    H229735   0.723   0.358   7.546  0.2345  1.6578  1.3850
 2726TIP3   OH229736   1.523   1.019   7.826 -0.1524 -0.5680 -0.8795
 2726TIP3    H129737   1.603   1.006   7.876  0.1738  0.2265 -1.2023
 2726TIP3    H229738   1.506   1.113   7.830  0.1952 -0.3951 -2.7472
 2727TIP3   OH229739   1.813   0.390   6.470  0.1276 -0.4487 -0.4867
 2727TIP3    H129740   1.839   0.398   6.378 -0.6005 -0.0378 -0.6611
 2727TIP3    H229741   1.765   0.470   6.489 -1.6118 -1.4710 -0.3901
 2728TIP3   OH229742   2.889   5.547   7.472  0.0242  0.2061 -0.2777
 2728TIP3    H129743   2.934   5.596   7.540  0.1827  1.4441 -1.2558
 2728TIP3    H229744   2.957   5.494   7.431  0.3847  1.1963 -0.9810
 2729TIP3   OH229745   2.687   0.890   8.466 -0.3437  0.8954  0.1332
 2729TIP3    H129746   2.720   0.802   8.486 -1.0609  0.5313 -0.2222
 2729TIP3    H229747   2.765   0.943   8.453  0.1084  0.7423  2.1475
 2730TIP3   OH229748   2.848   0.194   1.079 -0.9713 -0.3875 -0.4086
 2730TIP3    H129749   2.915   0.255   1.048 -1.3190 -0.0308 -0.4616
 2730TIP3    H229750   2.846   0.125   1.013  0.0011 -0.8836  0.0731
 2731TIP3   OH229751   2.457   5.875   6.278 -0.0305 -0.1424 -0.3294
 2731TIP3    H129752   2.468   5.794   6.327 -0.9508  1.1305  2.1059
 2731TIP3    H229753   2.547   5.901   6.255  0.2701 -1.7604 -1.0058
 2732TIP3   OH229754   3.662   5.380   8.411  0.6838 -0.0604  0.0528
 2732TIP3    H129755   3.738   5.364   8.355 -0.4239 -2.2502 -0.9305
 2732TIP3    H229756   3.620   5.457   8.373 -0.1551 -1.6193 -2.3123
 2733TIP3   OH229757   2.109   6.696   6.481  0.0150 -0.0936 -0.2355
 2733TIP3    H129758   2.122   6.693   6.386  2.1613  0.4856  0.0029
 2733TIP3    H229759   2.095   6.605   6.506 -0.1040 -0.3058 -1.0509
 2734TIP3   OH229760   3.674   6.093   0.787 -0.8367  0.4006 -0.1221
 2734TIP3    H129761   3.767   6.090   0.810 -1.2647 -1.4225  1.6086
 2734TIP3    H229762   3.659   6.182   0.755  1.0798  1.3114  1.4202
 2735TIP3   OH229763   1.241   6.245   6.471  0.6983 -0.1678  0.2104
 2735TIP3    H129764   1.319   6.291   6.504 -0.1205  0.7277  0.9272
 2735TIP3    H229765   1.206   6.303   6.403  0.9300 -0.8023 -0.4497
 2736TIP3   OH229766   3.193   0.042   6.091  0.1794  0.3220  0.2112
 2736TIP3    H129767   3.241   0.097   6.154 -0.9585 -0.0796  1.4529
 2736TIP3    H229768   3.107   0.083   6.084 -0.9903 -1.7447  1.8205
 2737TIP3   OH229769   3.423   6.614   1.374 -0.0329 -0.0638  0.1282
 2737TIP3    H129770   3.374   6.533   1.362  2.0242 -1.4133  0.7071
 2737TIP3    H229771   3.431   6.624   1.468 -0.1674  0.7693  0.0560
 2738TIP3   OH229772   3.986   0.230   8.047 -0.7619  1.1771  0.4544
 2738TIP3    H129773   3.899   0.257   8.017 -1.4668  1.9756  3.1221
 2738TIP3    H229774   3.998   0.276   8.130  1.7647  0.2023  0.6577
 2739TIP3   OH229775   2.919   4.895   0.384  0.6661  0.4108  0.3825
 2739TIP3    H129776   2.860   4.882   0.459 -0.1856  1.5741 -0.0732
 2739TIP3    H229777   3.004   4.866   0.416 -0.2223 -1.7406  0.9026
 2740TIP3   OH229778   2.148   5.325   0.445 -0.0452 -0.4007 -0.0010
 2740TIP3    H129779   2.219   5.330   0.381 -0.4561 -2.0300 -0.5931
 2740TIP3    H229780   2.163   5.400   0.503  1.9484 -0.5282 -0.3264
 2741TIP3   OH229781   2.247   0.293   6.019 -0.2697 -0.2237 -0.3477
 2741TIP3    H129782   2.219   0.384   6.024 -0.1302 -0.2381  0.7404
 2741TIP3    H229783   2.196   0.248   6.087  0.3072 -0.7881 -0.2835
 2742TIP3   OH229784   0.118   0.593   6.955  0.1211 -0.1939  0.4751
 2742TIP3    H129785   0.149   0.502   6.957  2.8208  0.5470 -2.1517
 2742TIP3    H229786   0.061   0.597   6.878 -0.2547  0.2632  0.7755
 2743TIP3   OH229787   2.349   6.695   6.626 -0.5713 -0.5836 -0.6551
 2743TIP3    H129788   2.421   6.720   6.568  0.7424  0.0853  1.2293
 2743TIP3    H229789   2.270   6.725   6.580  0.5617  1.4566 -1.3134
 2744TIP3   OH229790   3.402   1.052   1.198  0.1982 -0.1818  0.1758
 2744TIP3    H129791   3.487   1.090   1.177  0.1509 -0.4024 -0.4158
 2744TIP3    H229792   3.339   1.102   1.148  0.2249 -1.6100 -1.3243
 2745TIP3   OH229793   0.747   0.478   1.326 -0.1523  0.3865  0.4998
 2745TIP3    H129794   0.828   0.488   1.376 -0.0726 -1.0927  0.7037
 2745TIP3    H229795   0.717   0.389   1.347 -1.2272  0.5130 -0.4498
 2746TIP3   OH229796   1.295   5.291   6.836 -0.0467 -0.1216 -0.2098
 2746TIP3    H129797   1.237   5.215   6.825 -1.1065  0.8339 -1.3064
 2746TIP3    H229798   1.316   5.318   6.747  0.4908  0.7462  0.1830
 2747TIP3   OH229799   2.426   6.812   0.185 -0.3543 -0.1916 -0.0362
 2747TIP3    H129800   2.433   6.818   0.281 -1.2660  1.3606 -0.0497
 2747TIP3    H229801   2.332   6.818   0.168 -0.2194 -0.8429 -1.0154
 2748TIP3   OH229802   2.328   6.642   7.134 -0.1383 -0.1779  0.2313
 2748TIP3    H129803   2.345   6.549   7.149  1.3585  0.0419 -0.0100
 2748TIP3    H229804   2.303   6.647   7.041  0.0128 -0.3019  0.1842
 2749TIP3   OH229805   2.320   5.003   0.277 -0.4985 -0.4958 -0.5505
 2749TIP3    H129806   2.228   5.012   0.298 -0.6545 -2.0028 -0.5341
 2749TIP3    H229807   2.358   4.957   0.352  0.0642 -0.7827 -1.0024
 2750TIP3   OH229808   4.065   0.695   8.166 -0.1177 -0.1429  0.3764
 2750TIP3    H129809   4.158   0.675   8.164  0.4972  2.6233 -1.2356
 2750TIP3    H229810   4.056   0.761   8.235 -0.9700 -0.6886  0.8008
 2751TIP3   OH229811   1.405   6.040   6.667 -0.6818  0.4063  0.4112
 2751TIP3    H129812   1.456   6.078   6.738  0.3145 -1.0898  0.5355
 2751TIP3    H229813   1.379   5.954   6.700 -2.8833  0.9626  0.1462
 2752TIP3   OH229814   3.923   6.255   7.613 -0.6212 -0.3611  0.2131
 2752TIP3    H129815   3.931   6.179   7.555 -0.5635  0.4962 -0.9195
 2752TIP3    H229816   3.828   6.268   7.621 -0.6260 -0.3382  0.1223
 2753TIP3   OH229817   1.564   6.499   6.807 -0.2254  0.0007  0.0270
 2753TIP3    H129818   1.620   6.506   6.730 -0.9721  0.1401 -0.5063
 2753TIP3    H229819   1.623   6.469   6.876  0.6101  0.5847 -0.4113
 2754TIP3   OH229820   2.614   4.364   8.067  0.1693 -0.0517  0.2500
 2754TIP3    H129821   2.577   4.307   7.999 -0.2253  0.4596  0.0312
 2754TIP3    H229822   2.644   4.441   8.019 -0.7525  0.6170  0.7393
 2755TIP3   OH229823   1.795   6.538   6.275 -0.0105 -0.3719 -0.0309
 2755TIP3    H129824   1.732   6.489   6.222 -0.2183 -0.0663 -0.0671
 2755TIP3    H229825   1.853   6.580   6.212  0.1369 -0.5299 -0.0010
 2756TIP3   OH229826   2.593   5.826   0.414 -0.2725  0.7029  0.1390
 2756TIP3    H129827   2.500   5.839   0.433 -0.4895 -2.3844  1.5566
 2756TIP3    H229828   2.636   5.826   0.500  0.8265  0.7523 -0.4000
 2757TIP3   OH229829   1.923   5.149   0.453 -0.4418  0.2503  0.1891
 2757TIP3    H129830   1.977   5.219   0.489 -0.0351  0.2625 -0.4252
 2757TIP3    H229831   1.946   5.072   0.505  0.8556  0.0509 -0.6411
 2758TIP3   OH229832   2.836   0.842   6.416  0.3407  0.1192 -0.0001
 2758TIP3    H129833   2.909   0.899   6.439  0.2856 -0.5852  2.1070
 2758TIP3    H229834   2.758   0.897   6.426  0.4209  0.1911  0.2421
 2759TIP3   OH229835   2.640   5.840   1.676 -0.0455 -0.6268 -0.5873
 2759TIP3    H129836   2.673   5.927   1.697 -0.0704 -0.6892 -0.2820
 2759TIP3    H229837   2.642   5.793   1.760 -2.6846 -0.0528 -0.1601
 2760TIP3   OH229838   4.853   0.454   1.206  0.5222 -0.5234 -0.1057
 2760TIP3    H129839   4.936   0.460   1.159  0.7275  0.6856  0.4064
 2760TIP3    H229840   4.864   0.512   1.281 -1.2621  0.6743 -0.7555
 2761TIP3   OH229841   2.678   5.837   8.232 -0.4106 -0.0045  0.1932
 2761TIP3    H129842   2.602   5.892   8.252 -1.3587 -1.1329 -0.2266
 2761TIP3    H229843   2.738   5.850   8.305 -1.4043  0.1982  0.9770
 2762TIP3   OH229844   2.686   0.161   6.504 -0.1868 -0.3424  0.2084
 2762TIP3    H129845   2.732   0.245   6.502  1.5261 -1.2214 -3.1453
 2762TIP3    H229846   2.611   0.173   6.446 -0.7441 -0.7170  0.8451
 2763TIP3   OH229847   3.645   3.432   8.481  0.6024  0.4248  0.3865
 2763TIP3    H129848   3.689   3.516   8.495 -0.4391  1.8303 -3.9853
 2763TIP3    H229849   3.714   3.374   8.449  0.7125  0.4892  0.5054
 2764TIP3   OH229850   0.517   0.313   6.914  0.1367  0.2049 -0.1569
 2764TIP3    H129851   0.473   0.398   6.920 -2.5931 -1.0677 -1.1740
 2764TIP3    H229852   0.533   0.288   7.005 -1.4353  0.6486  0.2670
 2765TIP3   OH229853   3.537   6.379   0.890  0.3186  0.2550  0.1560
 2765TIP3    H129854   3.502   6.458   0.932  1.5061  2.2230 -2.3887
 2765TIP3    H229855   3.504   6.384   0.800  1.2568 -1.6198 -0.3065
 2766TIP3   OH229856   2.223   5.511   6.851  0.3343 -0.8936  0.7472
 2766TIP3    H129857   2.304   5.507   6.799  0.2149 -1.1158  0.5769
 2766TIP3    H229858   2.232   5.440   6.915  0.2077 -1.0180  0.6284
 2767TIP3   OH229859   2.773   5.616   6.463  0.0964  0.1389  0.0294
 2767TIP3    H129860   2.840   5.680   6.439  0.6051  0.5743  2.5108
 2767TIP3    H229861   2.723   5.603   6.382  0.6750  2.8171 -0.8179
 2768TIP3   OH229862   2.793   6.361   7.549 -0.6552  0.3345 -0.1541
 2768TIP3    H129863   2.768   6.306   7.623 -0.8224 -1.0490 -1.2044
 2768TIP3    H229864   2.712   6.373   7.500 -0.4513  0.8332 -0.3691
 2769TIP3   OH229865   3.976   0.110   0.976 -0.6081  0.1453 -0.4115
 2769TIP3    H129866   4.046   0.138   0.917  0.3156 -1.6130 -0.1849
 2769TIP3    H229867   3.924   0.189   0.991  1.0596  1.3709 -0.9613
 2770TIP3   OH229868   3.901   5.314   7.606  0.6975 -0.3070  0.1009
 2770TIP3    H129869   3.858   5.273   7.530 -0.6982  0.5724  0.3874
 2770TIP3    H229870   3.957   5.245   7.641  0.3812 -1.1398 -0.9702
 2771TIP3   OH229871   4.364   4.678   0.390  0.2280  0.1584  0.3588
 2771TIP3    H129872   4.314   4.666   0.471 -0.1619  2.9030  0.5750
 2771TIP3    H229873   4.455   4.675   0.418  0.1311 -0.9947  0.5660
 2772TIP3   OH229874   2.195   6.371   7.993  0.3527 -0.2959  0.2197
 2772TIP3    H129875   2.215   6.452   7.947 -0.9517  1.1973  2.1808
 2772TIP3    H229876   2.209   6.392   8.086 -1.4724 -1.8163  0.8797
 2773TIP3   OH229877   0.903   5.276   7.088 -1.0446  0.0608  0.4677
 2773TIP3    H129878   0.844   5.325   7.145  0.4594  2.6511 -0.1417
 2773TIP3    H229879   0.882   5.306   7.000  0.8916  0.7386  0.2086
 2774TIP3   OH229880   2.320   6.263   6.593 -0.3543 -0.9531  0.1802
 2774TIP3    H129881   2.353   6.242   6.680  0.0115  0.8960  0.5223
 2774TIP3    H229882   2.385   6.228   6.533  0.6943 -0.0281  0.7522
 2775TIP3   OH229883   2.174   5.940   6.314  0.3885 -0.0713 -0.3879
 2775TIP3    H129884   2.125   5.858   6.305  1.2060 -0.9341  2.4857
 2775TIP3    H229885   2.253   5.927   6.262  0.4350 -1.0585 -0.0761
 2776TIP3   OH229886   2.662   4.830   7.404  0.3459  0.5179 -0.0561
 2776TIP3    H129887   2.588   4.869   7.358 -0.1805 -1.9139 -1.3750
 2776TIP3    H229888   2.654   4.736   7.387  2.6052  0.0087  1.4415
 2777TIP3   OH229889   0.691   5.378   6.602  0.1408  0.5356 -0.2168
 2777TIP3    H129890   0.697   5.402   6.509 -1.3695  0.3935 -0.3721
 2777TIP3    H229891   0.710   5.460   6.649  0.8482  0.6219 -0.6501
 2778TIP3   OH229892   5.941   6.571   0.072  0.0425 -0.4857 -0.0402
 2778TIP3    H129893   5.998   6.631   0.120  1.0336 -0.6255 -1.0127
 2778TIP3    H229894   5.881   6.536   0.138  0.7456  0.0691  0.9033
 2779TIP3   OH229895   1.725   6.935   7.041  0.4027 -0.2983  0.4569
 2779TIP3    H129896   1.803   6.963   6.992  1.7033 -4.6411 -0.1845
 2779TIP3    H229897   1.669   6.896   6.975 -0.5927 -0.6944  1.5389
 2780TIP3   OH229898   3.742   6.303   7.301 -0.2690  0.0382  0.0434
 2780TIP3    H129899   3.710   6.299   7.211  1.3052  0.8507 -0.5608
 2780TIP3    H229900   3.830   6.339   7.294 -0.3964  0.7662  1.9857
 2781TIP3   OH229901   2.759   0.233   6.961 -0.3814  0.1185 -0.1386
 2781TIP3    H129902   2.770   0.148   6.920  1.7067  1.2060 -1.9057
 2781TIP3    H229903   2.724   0.289   6.891 -2.8087  0.4716  1.3030
 2782TIP3   OH229904   2.109   6.418   6.560 -0.3407 -0.3104  0.0896
 2782TIP3    H129905   2.090   6.347   6.498  0.5791 -0.3382 -0.1669
 2782TIP3    H229906   2.187   6.389   6.606  0.1026  0.5819 -0.0947
 2783TIP3   OH229907   2.575   5.802   7.510  0.1145  0.2142  0.5546
 2783TIP3    H129908   2.646   5.807   7.574 -0.0106 -1.6437  0.8813
 2783TIP3    H229909   2.578   5.712   7.478 -1.8907  0.1865  0.3591
 2784TIP3   OH229910   3.510   6.592   7.214 -0.3685 -0.3507 -0.0857
 2784TIP3    H129911   3.470   6.674   7.243  0.9751 -0.0782  1.0871
 2784TIP3    H229912   3.437   6.531   7.206 -1.1672  0.4745  0.7753
 2785TIP3   OH229913   3.679   5.939   7.878 -0.3400 -0.1538 -0.5833
 2785TIP3    H129914   3.749   5.927   7.941  0.0536 -0.1292 -1.0094
 2785TIP3    H229915   3.695   5.873   7.811 -1.6176 -1.1693  0.0984
 2786TIP3   OH229916   2.615   5.375   6.912  0.9870  0.5123 -0.0582
 2786TIP3    H129917   2.686   5.417   6.863  0.2957  1.2152 -0.4708
 2786TIP3    H229918   2.608   5.425   6.993  0.5003  0.8689 -0.3237
 2787TIP3   OH229919   4.723   5.272   7.752  0.5930  0.0267 -0.3190
 2787TIP3    H129920   4.673   5.231   7.823 -0.8371  2.3446  0.0579
 2787TIP3    H229921   4.802   5.305   7.794 -0.0975  1.1015  0.1565
 2788TIP3   OH229922   3.643   4.014   6.886 -0.6380  0.1482 -0.3702
 2788TIP3    H129923   3.588   4.047   6.957 -3.7273  0.5017 -2.8369
 2788TIP3    H229924   3.659   4.089   6.830  0.1151 -0.5658 -1.1303
 2789TIP3   OH229925   1.582   6.401   6.157 -0.0919  0.0171  0.3883
 2789TIP3    H129926   1.564   6.326   6.099  1.3285 -0.4402  0.5155
 2789TIP3    H229927   1.510   6.462   6.141 -0.5962 -0.8361 -0.6432
 2790TIP3   OH229928   0.110   5.552   7.584 -0.0119 -0.0031 -0.0409
 2790TIP3    H129929   0.151   5.546   7.498  0.1969  1.0367 -0.0274
 2790TIP3    H229930   0.181   5.530   7.645  0.4278  1.3699 -0.0388
 2791TIP3   OH229931   2.859   7.283   7.986  0.0101  0.1683  0.3025
 2791TIP3    H129932   2.916   7.290   8.063  1.5119 -0.1856 -0.7528
 2791TIP3    H229933   2.829   7.373   7.970  0.5115  0.4044  0.6850
 2792TIP3   OH229934   2.959   5.939   0.806 -0.0054  0.5272 -0.6062
 2792TIP3    H129935   3.013   5.898   0.873  1.0492 -0.4556 -2.0194
 2792TIP3    H229936   2.950   6.030   0.835  0.4379  0.1252  0.8484
 2793TIP3   OH229937   4.381   0.381   1.575  0.4005 -0.0884  0.0614
 2793TIP3    H129938   4.326   0.411   1.502  0.2537 -1.2269 -0.3133
 2793TIP3    H229939   4.395   0.459   1.628  1.6821  1.0811 -1.9264
 2794TIP3   OH229940   4.664   5.339   6.816  0.0421  0.7731  0.1657
 2794TIP3    H129941   4.685   5.273   6.750  1.6577  0.2029  1.2175
 2794TIP3    H229942   4.657   5.421   6.766 -1.8788 -0.1612 -1.1220
 2795TIP3   OH229943   0.211   7.041   8.070 -0.4594  0.5312  0.2093
 2795TIP3    H129944   0.201   7.048   7.975  0.2647  1.2136  0.1793
 2795TIP3    H229945   0.266   6.963   8.083  0.8633  1.3992 -0.0302
 2796TIP3   OH229946   3.719   1.326   7.403  0.5743  0.3066 -0.0225
 2796TIP3    H129947   3.738   1.381   7.479  1.2256  1.1120 -0.7495
 2796TIP3    H229948   3.804   1.299   7.370  0.2936 -0.2103 -0.3378
 2797TIP3   OH229949   5.885   5.871   7.745  0.2415 -0.7493  0.0520
 2797TIP3    H129950   5.856   5.833   7.663 -1.9854  1.5796 -0.2865
 2797TIP3    H229951   5.832   5.828   7.812 -0.7535  0.1851 -0.1261
 2798TIP3   OH229952   6.072   6.936   7.006 -0.1721 -0.4029  0.4727
 2798TIP3    H129953   6.124   7.012   7.029 -0.2696 -0.5437  1.1545
 2798TIP3    H229954   6.072   6.881   7.084  0.8868 -1.6690 -0.3766
 2799TIP3   OH229955   3.550   6.228   7.953 -0.1319  0.5009 -0.2083
 2799TIP3    H129956   3.478   6.281   7.986 -0.4022  0.7462 -1.1945
 2799TIP3    H229957   3.508   6.160   7.900  0.4013  1.0569 -1.3519
 2800TIP3   OH229958   4.036   7.007   6.891 -0.0564 -0.7113  0.5758
 2800TIP3    H129959   4.059   6.920   6.924  3.4115  0.1303  0.5650
 2800TIP3    H229960   4.098   7.022   6.819 -1.8577  1.0112 -0.6547
 2801TIP3   OH229961   4.657   6.154   6.348  0.0791 -0.1672  0.7546
 2801TIP3    H129962   4.658   6.064   6.317  1.3465  0.1152 -0.0297
 2801TIP3    H229963   4.567   6.183   6.335  0.0196 -0.8456 -0.3557
 2802TIP3   OH229964   0.864   6.058   6.923  0.0210  0.0850 -0.1461
 2802TIP3    H129965   0.829   6.135   6.968 -0.4800 -0.8514  1.0981
 2802TIP3    H229966   0.932   6.093   6.865 -1.1905  1.6205 -0.6608
 2803TIP3   OH229967   3.987   6.372   7.190 -0.0076  0.3465  0.2709
 2803TIP3    H129968   3.997   6.462   7.160  1.1287  0.8136  1.9740
 2803TIP3    H229969   3.945   6.327   7.116 -2.6976  2.7468  0.2050
 2804TIP3   OH229970   3.366   4.609   7.394 -0.1525 -0.0440  0.1750
 2804TIP3    H129971   3.322   4.549   7.454 -0.0466 -0.2553  0.0405
 2804TIP3    H229972   3.341   4.579   7.306 -0.4659  0.3827  0.1155
 2805TIP3   OH229973   5.206   6.485   6.286  0.3384  0.0907  0.2988
 2805TIP3    H129974   5.172   6.561   6.333  1.2909  0.2573  0.7323
 2805TIP3    H229975   5.128   6.434   6.264 -0.2299  0.7098  0.8329
 2806TIP3   OH229976   3.866   7.137   7.087  0.2334 -0.8276 -0.2004
 2806TIP3    H129977   3.947   7.091   7.063  0.8852  0.0717  0.2651
 2806TIP3    H229978   3.896   7.215   7.134 -0.8232  0.7101 -2.0229
 2807TIP3   OH229979   4.846   0.645   7.838  0.1589  0.0898 -0.4487
 2807TIP3    H129980   4.754   0.668   7.851  0.0367 -0.2289 -0.7358
 2807TIP3    H229981   4.843   0.564   7.787  0.5936  1.9501 -3.5934
 2808TIP3   OH229982   6.202   0.098   7.164 -0.5877  0.0454 -0.1605
 2808TIP3    H129983   6.190   0.113   7.070  0.0382 -0.7999 -0.3815
 2808TIP3    H229984   6.253   0.017   7.169  0.4916  0.7663  0.8776
 2809TIP3   OH229985   6.944   6.541   1.574 -0.8083  0.0843 -0.1413
 2809TIP3    H129986   6.950   6.588   1.490  0.1348  0.0011 -0.1209
 2809TIP3    H229987   7.025   6.492   1.580 -1.1091 -0.3264  0.5842
 2810TIP3   OH229988   6.057   6.603   6.609 -0.4269  0.2963 -0.0120
 2810TIP3    H129989   6.021   6.592   6.697  0.2621 -1.8554  0.0346
 2810TIP3    H229990   5.982   6.621   6.554 -1.1677 -0.6502  0.6658
 2811TIP3   OH229991   3.545   6.345   6.617  0.1476 -0.0872  0.8023
 2811TIP3    H129992   3.459   6.353   6.660  0.4394  0.3287  1.3234
 2811TIP3    H229993   3.526   6.351   6.524 -0.3641  0.2483  0.9261
 2812TIP3   OH229994   6.252   5.622   7.437  0.5680  0.0943 -0.3179
 2812TIP3    H129995   6.276   5.532   7.414  1.9651 -0.1079  1.8592
 2812TIP3    H229996   6.335   5.670   7.434  0.1710  0.8459  0.6802
 2813TIP3   OH229997   5.405   0.346   8.291 -0.4011  0.1234 -0.2000
 2813TIP3    H129998   5.347   0.296   8.348  0.4816  1.0444  1.5206
 2813TIP3    H229999   5.345   0.397   8.236 -1.2552 -0.4535  0.1775
 2814TIP3   OH230000   4.020   1.811   0.986  0.1905 -0.1187 -0.0922
 2814TIP3    H130001   4.056   1.731   1.026  1.0157 -0.1112 -0.8137
 2814TIP3    H230002   3.970   1.852   1.057  2.1287  0.1948  1.1224
 2815TIP3   OH230003   4.806   5.305   7.354 -0.0166  0.1330 -0.0428
 2815TIP3    H130004   4.777   5.271   7.269  0.6154  1.2499 -0.7253
 2815TIP3    H230005   4.895   5.271   7.365 -0.1105 -0.0385  0.1905
 2816TIP3   OH230006   4.142   0.547   6.677 -0.6627 -0.5634 -0.3141
 2816TIP3    H130007   4.059   0.575   6.638  0.8871  2.0720 -1.9201
 2816TIP3    H230008   4.133   0.568   6.770 -1.1501  1.5439 -0.7914
 2817TIP3   OH230009   5.232   6.159   6.717 -0.4803 -0.7767 -0.1358
 2817TIP3    H130010   5.298   6.107   6.671 -0.2242 -1.2438  0.7429
 2817TIP3    H230011   5.226   6.240   6.667  1.0557 -0.5676  0.0055
 2818TIP3   OH230012   3.998   6.510   7.554  0.1164  0.0315 -0.4612
 2818TIP3    H130013   4.090   6.500   7.529  0.3368  0.0347  0.3280
 2818TIP3    H230014   3.967   6.420   7.567  0.2498  0.0638  0.1083
 2819TIP3   OH230015   5.527   0.066   7.313 -0.1587 -0.0342  0.9674
 2819TIP3    H130016   5.454   0.077   7.253  0.8902  1.8741 -0.0006
 2819TIP3    H230017   5.510  -0.018   7.357 -2.1197 -0.3316 -0.3126
 2820TIP3   OH230018   4.898   6.527   6.774 -0.0968  0.8304  0.2320
 2820TIP3    H130019   4.865   6.448   6.819 -0.3411  0.5007 -0.5198
 2820TIP3    H230020   4.819   6.572   6.744  0.0398  1.4182  0.7533
 2821TIP3   OH230021   3.369   6.904   7.991 -0.2613 -0.2292 -0.1840
 2821TIP3    H130022   3.331   6.987   7.964 -3.1487 -0.9327  1.5034
 2821TIP3    H230023   3.352   6.898   8.085  1.2646 -2.0503  0.0317
 2822TIP3   OH230024   6.075   0.800   6.685 -0.6383 -0.7528  0.0817
 2822TIP3    H130025   6.130   0.846   6.749  1.8192 -2.6862 -0.5403
 2822TIP3    H230026   6.108   0.830   6.600 -2.3582  0.0750 -0.3080
 2823TIP3   OH230027   6.475   1.546   6.826 -0.6083  0.4020 -0.1156
 2823TIP3    H130028   6.390   1.591   6.831 -0.8121  0.1588 -1.3611
 2823TIP3    H230029   6.534   1.602   6.877 -1.2737  1.1304 -0.1293
 2824TIP3   OH230030   2.841   0.121   0.531  0.2978 -0.0991  0.4586
 2824TIP3    H130031   2.838   0.029   0.560 -0.7297  0.1544  1.1785
 2824TIP3    H230032   2.801   0.119   0.444 -0.1886 -0.2607  0.6812
 2825TIP3   OH230033   5.825   5.771   7.465 -0.1933 -0.4214  0.0763
 2825TIP3    H130034   5.857   5.699   7.412  0.7160  0.5661 -0.7295
 2825TIP3    H230035   5.866   5.849   7.428  0.9068  0.2274  2.5936
 2826TIP3   OH230036   5.189   0.634   7.847 -0.3420  0.1379 -0.0419
 2826TIP3    H130037   5.232   0.714   7.818 -1.0958 -0.0513 -1.7659
 2826TIP3    H230038   5.145   0.601   7.769 -1.2867 -1.1559  1.0086
 2827TIP3   OH230039   4.188   0.678   7.590  0.0352 -0.0065 -0.3720
 2827TIP3    H130040   4.212   0.770   7.580  1.0697 -0.1939  0.2596
 2827TIP3    H230041   4.148   0.673   7.677 -1.0963  0.0640 -0.8914
 2828TIP3   OH230042   4.113   5.685   7.486  0.0570  0.0115  0.0689
 2828TIP3    H130043   4.188   5.682   7.428  0.2341 -3.0368  0.4246
 2828TIP3    H230044   4.039   5.659   7.432 -0.4088  0.8287  0.2901
 2829TIP3   OH230045   4.480   4.935   7.054 -1.2560  0.3533  0.3671
 2829TIP3    H130046   4.413   4.985   7.101 -1.5678  0.4967 -0.2370
 2829TIP3    H230047   4.478   4.848   7.095 -1.6011  0.4477  0.5483
 2830TIP3   OH230048   4.564   4.635   7.924  0.1985 -0.2655  0.1420
 2830TIP3    H130049   4.557   4.689   8.002 -1.0686 -0.2577  0.0486
 2830TIP3    H230050   4.599   4.552   7.955  1.8311  0.4783  0.3385
 2831TIP3   OH230051   5.237   7.256   0.370  0.0761  0.1507 -0.1219
 2831TIP3    H130052   5.324   7.296   0.378 -0.4773  1.0426  1.6094
 2831TIP3    H230053   5.211   7.274   0.280  2.2761 -1.3680 -1.1115
 2832TIP3   OH230054   4.506   6.137   8.089  0.8054 -0.0576  0.1351
 2832TIP3    H130055   4.415   6.111   8.073  1.2117 -0.2870 -1.9229
 2832TIP3    H230056   4.556   6.057   8.076  1.6832  0.8908 -2.5953
 2833TIP3   OH230057   4.739   6.985   7.352  0.0396 -0.4238  0.2935
 2833TIP3    H130058   4.661   6.953   7.305 -1.2134  1.7561  0.8094
 2833TIP3    H230059   4.733   6.945   7.438 -0.0340 -0.9564  0.0440
 2834TIP3   OH230060   4.929   0.256   8.216  0.4665 -0.4959 -0.7717
 2834TIP3    H130061   4.884   0.183   8.172  1.6681 -3.1739  2.2572
 2834TIP3    H230062   5.017   0.223   8.233  2.4518  3.2252 -2.9742
 2835TIP3   OH230063   5.284   5.021   0.999  0.3283 -0.0357  0.2875
 2835TIP3    H130064   5.276   4.928   1.019 -1.4974 -0.0799 -0.5710
 2835TIP3    H230065   5.265   5.065   1.081  0.4229 -0.3925  0.5030
 2836TIP3   OH230066   3.195   6.674   1.262 -0.0565  0.1447  0.2862
 2836TIP3    H130067   3.197   6.733   1.186  0.0987 -0.0821  0.1148
 2836TIP3    H230068   3.283   6.680   1.299 -0.1189  0.2208  0.4226
 2837TIP3   OH230069   4.178   4.950   8.017  0.1904 -0.5651  0.6248
 2837TIP3    H130070   4.223   4.950   8.101  0.2530  3.5405  0.7203
 2837TIP3    H230071   4.247   4.930   7.953  1.1149  0.7030  1.2079
 2838TIP3   OH230072   5.710   6.302   7.747 -0.4806 -0.1295  0.3751
 2838TIP3    H130073   5.635   6.361   7.741 -0.2385  0.0283 -1.3287
 2838TIP3    H230074   5.672   6.214   7.752 -0.8158  0.0840  2.0969
 2839TIP3   OH230075   4.046   7.038   7.304 -0.4698 -0.2662  0.2588
 2839TIP3    H130076   4.046   7.015   7.397 -0.2034 -1.2488  0.0223
 2839TIP3    H230077   4.088   6.964   7.261 -1.3638 -0.2140 -0.7394
 2840TIP3   OH230078   5.143   6.226   7.785 -0.2133 -0.3981 -0.1001
 2840TIP3    H130079   5.219   6.210   7.842 -2.1444 -2.0949  2.0780
 2840TIP3    H230080   5.132   6.144   7.737  1.8182  1.2408 -3.5683
 2841TIP3   OH230081   4.145   5.864   0.294 -0.0790  0.7822 -0.3097
 2841TIP3    H130082   4.228   5.868   0.247  0.0631 -0.7435 -0.2044
 2841TIP3    H230083   4.169   5.874   0.386  0.1267 -0.8021 -0.1748
 2842TIP3   OH230084   4.353   5.997   7.226  0.3066  0.8206  0.1577
 2842TIP3    H130085   4.286   6.061   7.248 -0.3771  1.1879 -2.7789
 2842TIP3    H230086   4.336   5.923   7.284 -3.0237  0.6761 -0.8936
 2843TIP3   OH230087   4.016   6.060   8.214 -0.2521 -0.5317 -0.0402
 2843TIP3    H130088   4.012   6.018   8.300 -0.0588 -0.0543  0.2047
 2843TIP3    H230089   3.949   6.128   8.218 -0.3500 -0.6093 -0.3285
 2844TIP3   OH230090   6.501   5.955   8.187  0.0552 -0.2211 -0.4184
 2844TIP3    H130091   6.431   5.908   8.235 -1.2873  0.4813 -1.6657
 2844TIP3    H230092   6.494   5.923   8.097  1.7726 -0.6132 -0.4265
 2845TIP3   OH230093   2.592   6.252   6.684  0.3602 -0.1335  0.3074
 2845TIP3    H130094   2.688   6.257   6.680  0.4069 -1.7040 -1.2862
 2845TIP3    H230095   2.563   6.337   6.651  1.2141 -1.5928 -4.6662
 2846TIP3   OH230096   2.610   6.831   0.420 -0.4044 -0.1510 -0.3266
 2846TIP3    H130097   2.700   6.813   0.446  0.0209  0.6122 -1.2587
 2846TIP3    H230098   2.558   6.807   0.497  0.6182 -0.2961  0.3274
 2847TIP3   OH230099   4.011   5.736   7.077  0.1879  0.0313 -0.0193
 2847TIP3    H130100   4.039   5.645   7.068 -0.3119 -0.1430  0.1583
 2847TIP3    H230101   3.915   5.732   7.072  0.2167  0.6846 -1.1924
 2848TIP3   OH230102   0.275   5.502   8.370  0.2479 -0.9055 -0.2895
 2848TIP3    H130103   0.271   5.554   8.450 -0.9441  0.3863 -1.1738
 2848TIP3    H230104   0.360   5.522   8.332  0.1892 -0.3489 -0.1295
 2849TIP3   OH230105   3.969   5.238   7.146 -0.2964 -0.0457  0.5709
 2849TIP3    H130106   3.948   5.290   7.069 -0.7741 -1.0993 -0.0260
 2849TIP3    H230107   4.041   5.285   7.188 -0.6741  1.0449  0.0098
 2850TIP3   OH230108   3.867   5.730   0.172  0.3935  0.1749  0.3794
 2850TIP3    H130109   3.946   5.752   0.124 -0.5452  0.3544 -1.1027
 2850TIP3    H230110   3.854   5.636   0.155 -1.3831  0.7869 -1.9302
 2851TIP3   OH230111   3.264   4.893   6.673  0.4032  0.0185 -0.3348
 2851TIP3    H130112   3.280   4.955   6.602 -2.9936  1.6661  0.2393
 2851TIP3    H230113   3.189   4.841   6.645  1.3470 -1.8476  0.4867
 2852TIP3   OH230114   4.720   5.567   7.445 -0.0867  0.0772  0.3922
 2852TIP3    H130115   4.791   5.507   7.421 -0.0036 -0.0951  1.0789
 2852TIP3    H230116   4.663   5.515   7.502  0.0118  0.6681  1.0235
 2853TIP3   OH230117   2.606   4.936   6.536  0.1721  0.2199  0.5884
 2853TIP3    H130118   2.545   5.008   6.554 -0.9057 -0.6530  0.5212
 2853TIP3    H230119   2.687   4.979   6.509 -0.8276  1.3963 -0.6148
 2854TIP3   OH230120   3.799   6.826   6.277  0.4943 -0.2019  0.4325
 2854TIP3    H130121   3.723   6.871   6.239  0.0282 -1.6860 -0.4054
 2854TIP3    H230122   3.779   6.733   6.270  1.2445 -0.5515  2.6206
 2855TIP3   OH230123   7.128   5.728   6.966 -0.5438  0.5271  0.8994
 2855TIP3    H130124   7.041   5.728   7.007 -0.0769  1.2893  1.9265
 2855TIP3    H230125   7.183   5.682   7.030  0.1028  1.3288  0.9213
 2856TIP3   OH230126   6.585   7.214   1.673  0.3434 -0.4879 -0.0541
 2856TIP3    H130127   6.599   7.120   1.683  0.2480 -0.4181  0.7744
 2856TIP3    H230128   6.670   7.248   1.644  0.4236 -0.8046 -0.1887
 2857TIP3   OH230129   1.678   0.525   7.169 -0.2041  0.5916 -0.0243
 2857TIP3    H130130   1.764   0.485   7.158  0.0553  1.7451 -2.6780
 2857TIP3    H230131   1.689   0.616   7.141 -2.3947  0.6016 -1.0033
 2858TIP3   OH230132   3.610   4.767   7.072  0.2649 -0.3279 -0.0859
 2858TIP3    H130133   3.631   4.780   6.980  0.5271  0.3691  0.0678
 2858TIP3    H230134   3.615   4.855   7.111 -0.2321 -0.5597  0.5104
 2859TIP3   OH230135   2.514   6.987   7.916 -0.4388 -0.1925 -0.1779
 2859TIP3    H130136   2.431   6.991   7.868 -1.7876  1.2670  2.1935
 2859TIP3    H230137   2.520   7.071   7.962  2.1255 -0.4774  0.0767
 2860TIP3   OH230138   4.717   5.891   6.256 -0.6541 -0.2120 -0.4132
 2860TIP3    H130139   4.784   5.854   6.199  1.6638  2.3330  0.5778
 2860TIP3    H230140   4.634   5.858   6.219  0.8825 -0.4418 -3.8829
 2861TIP3   OH230141   5.221   6.698   7.369 -0.1919  0.4331  0.2219
 2861TIP3    H130142   5.210   6.793   7.373  0.5223  0.4401  3.9739
 2861TIP3    H230143   5.314   6.685   7.353 -0.2036  0.3594  0.2111
 2862TIP3   OH230144   4.759   6.119   6.603 -0.2230  0.1878 -0.2119
 2862TIP3    H130145   4.836   6.068   6.582  0.2713  1.0737 -0.5814
 2862TIP3    H230146   4.736   6.163   6.522 -0.2945  1.0002  0.2390
 2863TIP3   OH230147   6.054   7.139   7.273  0.1682 -0.1214 -0.0656
 2863TIP3    H130148   6.058   7.200   7.199  0.1027  0.7247  0.6109
 2863TIP3    H230149   6.140   7.147   7.315  0.1392 -0.4639  0.0602
 2864TIP3   OH230150   6.153   5.747   7.213  0.0069 -0.2104 -0.1514
 2864TIP3    H130151   6.204   5.727   7.291  1.0061 -2.2850 -1.2882
 2864TIP3    H230152   6.074   5.695   7.222 -1.2933  1.8615  0.8847
 2865TIP3   OH230153   3.581   7.096   6.665  0.2594 -0.1122 -0.0547
 2865TIP3    H130154   3.664   7.049   6.677  0.1212 -0.3526 -0.0314
 2865TIP3    H230155   3.605   7.189   6.667  0.4786 -0.1753  0.3195
 2866TIP3   OH230156   5.106   5.871   6.712  0.3732 -0.2691  0.7790
 2866TIP3    H130157   5.114   5.777   6.693  2.8679  0.1354 -0.2860
 2866TIP3    H230158   5.027   5.898   6.666  1.1847 -1.2725 -1.2526
 2867TIP3   OH230159   2.738   5.566   7.759 -0.1615  0.6500 -0.5031
 2867TIP3    H130160   2.814   5.527   7.803  0.5200  1.5028 -0.9069
 2867TIP3    H230161   2.742   5.658   7.783 -1.1569  0.6741 -0.4168
 2868TIP3   OH230162   3.340   5.767   0.295 -0.5200 -0.2725 -0.0323
 2868TIP3    H130163   3.431   5.787   0.272 -0.2089 -1.3835  0.1952
 2868TIP3    H230164   3.339   5.763   0.391 -1.1185  1.1315  0.0313
 2869TIP3   OH230165   3.313   6.837   8.312 -0.4953 -0.1566  0.0354
 2869TIP3    H130166   3.332   6.840   8.406  0.2139 -0.1305 -0.1066
 2869TIP3    H230167   3.340   6.749   8.285 -1.8488 -0.5883  0.0999
 2870TIP3   OH230168   0.151   7.213   1.212  0.6801 -0.4204  0.1897
 2870TIP3    H130169   0.206   7.220   1.134  0.3130 -1.8902 -0.2185
 2870TIP3    H230170   0.213   7.210   1.285  1.0888 -0.7644 -0.1686
 2871TIP3   OH230171   5.440   0.112   7.988  0.5181 -0.5126 -0.2994
 2871TIP3    H130172   5.516   0.168   7.971  0.6465 -1.1880 -2.0486
 2871TIP3    H230173   5.378   0.134   7.918 -1.2035  0.5405  1.5284
 2872TIP3   OH230174   4.374   5.870   8.373 -0.0244  0.1661  0.7460
 2872TIP3    H130175   4.343   5.893   8.285  1.3517  0.4123  0.3156
 2872TIP3    H230176   4.468   5.855   8.362 -0.2853 -2.3575  1.6780
 2873TIP3   OH230177   4.827   0.527   6.130 -0.2092  0.6279 -0.5102
 2873TIP3    H130178   4.883   0.525   6.052 -2.2114  0.4396 -1.9917
 2873TIP3    H230179   4.748   0.573   6.102 -0.9535  0.5988  1.4407
 2874TIP3   OH230180   4.467   6.364   7.111 -0.4422  0.1991  0.2728
 2874TIP3    H130181   4.445   6.452   7.141 -0.7312  1.1017 -2.4144
 2874TIP3    H230182   4.458   6.309   7.189  0.0425  2.5715  2.0688
 2875TIP3   OH230183   4.229   6.546   6.777  0.3732 -0.5695 -0.6645
 2875TIP3    H130184   4.198   6.500   6.699  1.3095 -1.4554 -0.5233
 2875TIP3    H230185   4.297   6.489   6.814 -1.8312 -1.4708  2.2553
 2876TIP3   OH230186   4.086   5.467   7.931  0.4605 -0.5690  0.2562
 2876TIP3    H130187   4.021   5.519   7.884  0.2851 -0.4494  0.6341
 2876TIP3    H230188   4.152   5.446   7.864  0.6543  0.3280  0.1573
 2877TIP3   OH230189   3.800   4.712   7.516  0.4756  0.1033  0.4737
 2877TIP3    H130190   3.840   4.659   7.584  0.3310  1.2099  1.4484
 2877TIP3    H230191   3.850   4.693   7.437  1.1741 -0.5731  1.0774
 2878TIP3   OH230192   3.072   5.485   6.274  0.3318 -0.1363  0.5797
 2878TIP3    H130193   3.047   5.533   6.195 -0.3670 -1.5758 -0.0913
 2878TIP3    H230194   3.086   5.553   6.340 -0.9427  0.9760 -0.2696
 2879TIP3   OH230195   5.652   0.218   8.382 -0.3231 -0.2383 -0.4305
 2879TIP3    H130196   5.635   0.125   8.371  0.6660 -0.2924 -1.6762
 2879TIP3    H230197   5.576   0.262   8.345  0.2263 -0.5353 -1.9695
 2880TIP3   OH230198   2.769   6.216   7.230 -0.2277 -0.1186 -0.4569
 2880TIP3    H130199   2.746   6.129   7.262 -0.9629  0.6796  1.2404
 2880TIP3    H230200   2.688   6.266   7.235 -0.0522  0.3697 -2.4326
 2881TIP3   OH230201   5.417   5.765   6.910 -0.3818  0.3235  0.2861
 2881TIP3    H130202   5.450   5.782   6.821  1.6685 -1.7360  0.6145
 2881TIP3    H230203   5.428   5.848   6.955 -0.7044  1.1766 -1.1490
 2882TIP3   OH230204   4.853   5.612   6.589 -0.5209 -0.1454 -0.1228
 2882TIP3    H130205   4.758   5.601   6.592 -0.5311  0.2801  2.4930
 2882TIP3    H230206   4.880   5.605   6.681  2.0700 -1.1289 -0.9426
 2883TIP3   OH230207   5.665   6.947   7.028 -0.2102 -0.1334  0.1940
 2883TIP3    H130208   5.679   6.853   7.013 -0.1279  0.1496 -1.6042
 2883TIP3    H230209   5.604   6.973   6.959 -0.5804  1.0469  0.9649
 2884TIP3   OH230210   3.256   0.037   6.720  0.4596 -0.1779  0.3794
 2884TIP3    H130211   3.178  -0.001   6.680  1.0285 -0.1649 -0.7712
 2884TIP3    H230212   3.328   0.008   6.664  0.8975  2.6314 -0.5915
 2885TIP3   OH230213   3.915   5.560   6.791 -0.2264 -0.3691  0.3813
 2885TIP3    H130214   3.931   5.468   6.811  0.6489 -0.3322 -0.1440
 2885TIP3    H230215   3.833   5.560   6.742  0.1748 -0.9477 -0.2844
 2886TIP3   OH230216   5.042   5.749   7.772 -0.0599  0.7728 -0.3364
 2886TIP3    H130217   5.031   5.816   7.705  1.2653  0.3760 -0.9617
 2886TIP3    H230218   4.994   5.673   7.738 -1.4536  1.3569  0.3141
 2887TIP3   OH230219   3.098   7.088   7.124 -0.5439 -0.1259  0.3807
 2887TIP3    H130220   3.017   7.074   7.172 -1.1657  0.4530 -0.4872
 2887TIP3    H230221   3.072   7.088   7.032  0.5953 -1.0042  0.0406
 2888TIP3   OH230222   2.584   4.651   0.250  0.2257 -0.4912 -0.6723
 2888TIP3    H130223   2.570   4.717   0.182  0.5103  0.8362  0.5385
 2888TIP3    H230224   2.614   4.573   0.202 -0.6016  0.0759 -2.1627
 2889TIP3   OH230225   6.705   5.783   7.125  0.0782 -0.0559  0.0885
 2889TIP3    H130226   6.781   5.743   7.168  0.0540  0.7629  0.9036
 2889TIP3    H230227   6.643   5.710   7.113  1.2083 -0.8492 -1.1183
 2890TIP3   OH230228   2.803   4.180   7.338  0.1468 -0.4965  0.0506
 2890TIP3    H130229   2.825   4.101   7.387  0.1725  0.5641  1.7786
 2890TIP3    H230230   2.749   4.149   7.265  1.4465 -2.2797 -0.1768
 2891TIP3   OH230231   2.978   7.090   6.810  0.0931  0.0132  0.2472
 2891TIP3    H130232   3.028   7.101   6.729 -1.2668  2.6413 -0.3315
 2891TIP3    H230233   2.936   7.176   6.823 -2.9807 -1.5923  1.4951
 2892TIP3   OH230234   5.502   6.713   1.493  0.1698  0.2262  0.6533
 2892TIP3    H130235   5.520   6.622   1.470  1.9068  0.9029 -0.7715
 2892TIP3    H230236   5.436   6.742   1.430  1.6223  0.7356 -0.6751
 2893TIP3   OH230237   4.880   0.357   6.552 -0.1971 -0.5564 -0.2865
 2893TIP3    H130238   4.931   0.281   6.525  0.7552 -0.1212  0.2765
 2893TIP3    H230239   4.902   0.425   6.489  0.3315 -0.2138  0.2548
 2894TIP3   OH230240   5.000   6.668   6.334  0.3128  0.1401 -0.2456
 2894TIP3    H130241   4.920   6.699   6.376  0.1178  0.3103 -0.7383
 2894TIP3    H230242   4.980   6.668   6.240  1.1005  0.8377 -0.4268
 2895TIP3   OH230243   5.968   6.699   6.873  0.4337 -0.6912 -0.0500
 2895TIP3    H130244   5.990   6.639   6.944 -1.2761  1.2021  2.1922
 2895TIP3    H230245   6.007   6.783   6.900  1.0529 -0.3028 -2.1026
 2896TIP3   OH230246   3.944   0.285   1.552 -0.0378 -0.1176  0.3037
 2896TIP3    H130247   3.917   0.312   1.464  0.7015 -0.0950  0.0755
 2896TIP3    H230248   3.982   0.198   1.540 -0.7486 -0.4900  0.7485
 2897TIP3   OH230249   2.561   0.306   6.802 -0.1010  0.1865  0.1730
 2897TIP3    H130250   2.510   0.297   6.722  1.7461  0.9509 -1.1190
 2897TIP3    H230251   2.496   0.297   6.872 -1.8490  0.1583 -1.3897
 2898TIP3   OH230252   5.321   5.294   1.939  0.1087  0.1598  0.2828
 2898TIP3    H130253   5.375   5.240   1.996  1.0263 -0.6604 -1.3301
 2898TIP3    H230254   5.377   5.315   1.864 -1.7823 -0.8087 -1.4836
 2899TIP3   OH230255   1.592   6.909   1.016 -0.2804  0.1905 -0.0310
 2899TIP3    H130256   1.594   6.985   0.959 -0.0969 -0.9185 -1.5490
 2899TIP3    H230257   1.499   6.897   1.038 -0.2694  1.0378  0.5024
 2900TIP3   OH230258   4.128   1.072   6.913  0.0478 -0.1161  0.2868
 2900TIP3    H130259   4.075   1.025   6.849 -0.5677 -0.0825  0.7645
 2900TIP3    H230260   4.100   1.163   6.905  2.0581  0.4067 -1.4621
 2901TIP3   OH230261   3.748   4.240   7.543 -0.2726 -0.7938  0.3197
 2901TIP3    H130262   3.714   4.156   7.511  0.2417 -0.6309 -0.6924
 2901TIP3    H230263   3.699   4.306   7.495  0.2761 -0.5376  0.1023
 2902TIP3   OH230264   6.483   6.803   6.857 -0.2345  0.2783  0.0596
 2902TIP3    H130265   6.474   6.710   6.880  0.7481  0.1043 -0.2815
 2902TIP3    H230266   6.471   6.806   6.763 -0.9274  0.5864  0.1542
 2903TIP3   OH230267   3.675   5.397   6.510  0.2656  0.1453  0.0561
 2903TIP3    H130268   3.661   5.491   6.524 -0.6248  0.0216  0.0242
 2903TIP3    H230269   3.665   5.358   6.596 -0.2158 -0.0215 -0.0755
 2904TIP3   OH230270   3.001   5.923   8.181 -0.4830 -0.1108 -0.0789
 2904TIP3    H130271   3.019   5.975   8.259  0.3277  0.8868 -0.9176
 2904TIP3    H230272   3.069   5.948   8.119 -1.1728 -0.8247 -1.1397
 2905TIP3   OH230273   5.192   6.690   7.835 -0.2940  0.5854 -0.2707
 2905TIP3    H130274   5.123   6.643   7.881 -1.0455  2.6731  0.7960
 2905TIP3    H230275   5.193   6.652   7.748 -0.9219 -1.3438  0.5355
 2906TIP3   OH230276   6.486   6.947   8.381 -0.5895  0.2505 -0.3775
 2906TIP3    H130277   6.458   6.876   8.324  1.5212  0.3495 -1.5701
 2906TIP3    H230278   6.551   6.908   8.439  1.6977  1.5199 -2.0326
 2907TIP3   OH230279   4.313   5.279   8.012  0.0545 -0.0689  0.1363
 2907TIP3    H130280   4.301   5.249   7.922 -0.9639 -0.6645  0.4672
 2907TIP3    H230281   4.246   5.347   8.023  0.7513  0.6220  0.1731
 2908TIP3   OH230282   5.387   7.227   7.659  0.3576  0.3814 -0.0316
 2908TIP3    H130283   5.334   7.157   7.620 -0.3694  0.1361  1.3360
 2908TIP3    H230284   5.330   7.304   7.656  0.5407  0.5148 -0.0475
 2909TIP3   OH230285   2.607   4.683   8.047  0.1805  0.2215 -0.3580
 2909TIP3    H130286   2.686   4.641   8.082 -0.0022  0.3059  0.1506
 2909TIP3    H230287   2.640   4.755   7.993  0.4032  1.2920  1.1921
 2910TIP3   OH230288   3.086   6.082   8.374  0.2503 -0.2352  0.1087
 2910TIP3    H130289   3.045   6.091   8.460  2.1020 -2.8423  1.3331
 2910TIP3    H230290   3.177   6.106   8.389  0.3281  0.4639 -1.4309
 2911TIP3   OH230291   5.742   5.657   1.349 -0.4849  0.5226  0.1897
 2911TIP3    H130292   5.796   5.699   1.282 -1.1777 -1.2282 -1.5020
 2911TIP3    H230293   5.663   5.630   1.303 -1.5486  0.4475  2.0088
 2912TIP3   OH230294   6.814   4.859   1.473 -0.1780  0.2860 -0.5984
 2912TIP3    H130295   6.802   4.883   1.381 -1.0997  0.6969 -0.3867
 2912TIP3    H230296   6.725   4.839   1.504  0.1289  0.1259  0.1921
 2913TIP3   OH230297   6.020   4.786   6.978 -0.1650  0.1287 -0.1812
 2913TIP3    H130298   6.007   4.811   6.887 -0.8425  0.1657 -0.0730
 2913TIP3    H230299   5.934   4.756   7.007  0.7910 -3.2057 -0.5872
 2914TIP3   OH230300   4.895   6.320   1.042 -0.1369  0.7451  0.4491
 2914TIP3    H130301   4.923   6.241   1.087  0.0639  0.1017 -0.7848
 2914TIP3    H230302   4.827   6.357   1.098  0.6486  0.3677  1.6429
 2915TIP3   OH230303   5.120   5.311   7.226  0.6156 -0.2211 -0.5076
 2915TIP3    H130304   5.153   5.303   7.316  0.8246  1.5313 -0.4070
 2915TIP3    H230305   5.093   5.222   7.203  0.9852 -0.7885  1.1219
 2916TIP3   OH230306   4.651   0.144   0.208 -0.2566  0.1690 -0.4039
 2916TIP3    H130307   4.714   0.170   0.275  0.4614 -0.3421 -0.8662
 2916TIP3    H230308   4.634   0.052   0.224  0.7764 -0.2470 -1.5879
 2917TIP3   OH230309   6.383   0.002   7.644  0.3346 -0.2208  0.1666
 2917TIP3    H130310   6.364  -0.052   7.567  0.5128 -0.9536  0.6237
 2917TIP3    H230311   6.298   0.036   7.671  0.3652  0.5958 -0.7590
 2918TIP3   OH230312   1.359   5.047   6.610 -0.0800  0.0723  0.4223
 2918TIP3    H130313   1.266   5.047   6.630 -0.5505  0.5142 -1.6836
 2918TIP3    H230314   1.384   5.140   6.610  0.5871 -0.0947  1.9580
 2919TIP3   OH230315   3.735   6.936   1.304 -0.1702  0.2446 -0.0522
 2919TIP3    H130316   3.646   6.933   1.271  0.3019 -1.0706 -1.2700
 2919TIP3    H230317   3.736   6.874   1.377 -0.3096  0.4093  0.0878
 2920TIP3   OH230318   6.986   7.070   7.408 -0.0413 -0.2527 -0.3871
 2920TIP3    H130319   7.057   7.046   7.467  2.1414  0.7599 -2.5167
 2920TIP3    H230320   6.975   6.993   7.351 -1.3511 -0.7828  0.5493
 2921TIP3   OH230321   6.385   5.303   0.790  0.4519 -0.8362 -0.0650
 2921TIP3    H130322   6.463   5.334   0.837  0.2654 -0.2414 -0.1423
 2921TIP3    H230323   6.337   5.251   0.854  1.0941 -1.4999 -0.1227
 2922TIP3   OH230324   4.253   5.707   7.227  0.0410  0.5382 -0.2653
 2922TIP3    H130325   4.325   5.684   7.167 -0.4228  0.6381 -0.8560
 2922TIP3    H230326   4.185   5.742   7.171 -0.7884 -0.2963  0.2022
 2923TIP3   OH230327   4.945   6.061   6.072 -0.5977  0.9241 -0.1625
 2923TIP3    H130328   4.864   6.112   6.067 -1.5455 -0.4512  0.7963
 2923TIP3    H230329   4.915   5.972   6.089  1.2731  0.9478  3.5158
 2924TIP3   OH230330   2.735   5.820   7.946  0.3555  0.6453 -0.3021
 2924TIP3    H130331   2.829   5.824   7.929  0.4747  1.1128  0.4549
 2924TIP3    H230332   2.727   5.830   8.040 -0.4199 -0.0421 -0.2925
 2925TIP3   OH230333   5.311   5.393   7.052  0.5877 -0.0134  0.2098
 2925TIP3    H130334   5.247   5.362   7.117  0.3264  1.7661  0.8234
 2925TIP3    H230335   5.271   5.470   7.014  2.5453  1.4141  0.9270
 2926TIP3   OH230336   7.257   6.391   8.238  0.0881  0.1297  0.1815
 2926TIP3    H130337   7.239   6.324   8.305 -0.2491  1.6456  1.6578
 2926TIP3    H230338   7.297   6.463   8.287 -0.8700  1.5878 -1.1201
 2927TIP3   OH230339   5.650   5.646   0.949 -1.2191 -0.5196 -0.1544
 2927TIP3    H130340   5.582   5.587   0.916 -1.4737 -0.3059 -0.0051
 2927TIP3    H230341   5.703   5.666   0.871 -2.3332  0.6799 -0.6161
 2928TIP3   OH230342   3.312   4.916   8.425  0.2547 -0.7589 -0.0213
 2928TIP3    H130343   3.288   4.961   8.506  0.0644 -2.2269  0.7537
 2928TIP3    H230344   3.230   4.884   8.389  0.0536  1.7468 -1.9787
 2929TIP3   OH230345   3.198   6.206   6.458  0.0613 -0.1506  0.0507
 2929TIP3    H130346   3.197   6.133   6.396 -1.6645  0.0954 -0.2568
 2929TIP3    H230347   3.244   6.276   6.412 -0.3782 -0.2792 -0.6057
 2930TIP3   OH230348   5.505   5.517   7.737  0.2011 -0.2881 -0.5092
 2930TIP3    H130349   5.594   5.549   7.722  0.5762 -1.5112 -0.9927
 2930TIP3    H230350   5.493   5.448   7.671 -1.0597 -0.2187 -0.3617
 2931TIP3   OH230351   3.503   6.427   0.114  0.4385  0.2221 -0.0754
 2931TIP3    H130352   3.460   6.512   0.104 -0.3830 -0.2449 -0.5177
 2931TIP3    H230353   3.592   6.449   0.143  0.2533  1.2329 -0.2518
 2932TIP3   OH230354   5.814   5.960   6.361 -0.2160  0.3170 -0.0536
 2932TIP3    H130355   5.832   6.047   6.326  0.5810  0.1432 -0.0732
 2932TIP3    H230356   5.899   5.928   6.392 -0.4266 -0.6302 -0.4401
 2933TIP3   OH230357   4.904   5.522   7.692 -0.8918 -0.5989  0.0184
 2933TIP3    H130358   4.880   5.449   7.635  2.5162 -0.5230 -1.6603
 2933TIP3    H230359   4.954   5.481   7.763  1.1093  0.0605 -0.9788
 2934TIP3   OH230360   3.738   5.832   6.111 -0.4841  1.3934 -0.5232
 2934TIP3    H130361   3.827   5.797   6.113 -0.8192  0.5506  0.2759
 2934TIP3    H230362   3.682   5.756   6.127 -1.2840  2.0945  0.0543
 2935TIP3   OH230363   3.100   6.224   7.945  0.0383 -0.0461 -0.0734
 2935TIP3    H130364   3.151   6.245   7.867 -0.5898 -0.4845 -0.6189
 2935TIP3    H230365   3.164   6.215   8.015  0.5244  1.2814 -0.3370
 2936TIP3   OH230366   2.001   0.389   7.751 -0.3118 -1.0010  0.4253
 2936TIP3    H130367   1.956   0.313   7.789  1.7374 -1.0267  2.9447
 2936TIP3    H230368   1.980   0.461   7.811 -1.0459  0.1415 -1.1549
 2937TIP3   OH230369   2.875   4.431   7.317  0.0107  0.2796 -0.1157
 2937TIP3    H130370   2.943   4.426   7.250 -0.8620  0.9924 -1.0860
 2937TIP3    H230371   2.866   4.342   7.349  1.5747  0.2212  0.2043
 2938TIP3   OH230372   5.980   4.997   7.177 -0.2004  0.0415 -0.5469
 2938TIP3    H130373   6.048   5.032   7.234  0.4981  1.6853 -2.3180
 2938TIP3    H230374   6.018   4.917   7.140  0.1334  0.0619 -0.2505
 2939TIP3   OH230375   5.215   5.577   6.859 -0.3084 -0.5420 -0.3233
 2939TIP3    H130376   5.224   5.576   6.763 -0.8064 -0.2436 -0.3736
 2939TIP3    H230377   5.275   5.645   6.888 -0.3381 -0.4619 -0.4464
 2940TIP3   OH230378   5.361   4.856   8.070  0.7021  0.1187 -0.0443
 2940TIP3    H130379   5.455   4.872   8.059  0.6598  1.6853  1.4966
 2940TIP3    H230380   5.352   4.835   8.163 -0.3283 -1.1948 -0.4426
 2941TIP3   OH230381   6.847   5.077   7.616  0.3036  0.2426 -0.0370
 2941TIP3    H130382   6.805   5.000   7.580  1.0910  0.5296 -1.6257
 2941TIP3    H230383   6.840   5.143   7.547  1.0761  1.0741  0.6602
 2942TIP3   OH230384   5.934   7.019   6.749 -0.2310 -0.6066 -0.3678
 2942TIP3    H130385   5.935   6.982   6.838 -1.0007 -0.0107 -0.1052
 2942TIP3    H230386   6.019   6.995   6.712 -0.6408 -2.4849 -0.1406
 2943TIP3   OH230387   5.098   4.670   8.078  0.2170  0.8863  0.3140
 2943TIP3    H130388   5.066   4.674   7.988  0.3398 -1.1942  0.1504
 2943TIP3    H230389   5.185   4.630   8.071 -0.2506 -0.3509  1.4605
 2944TIP3   OH230390   4.509   4.719   7.240  0.1620  0.0424  0.1123
 2944TIP3    H130391   4.473   4.734   7.328 -0.0492 -2.2442  0.4645
 2944TIP3    H230392   4.601   4.697   7.256  1.0653  3.1898 -0.5617
 2945TIP3   OH230393   6.188   5.313   6.730 -0.1315 -0.0810  0.3099
 2945TIP3    H130394   6.108   5.272   6.763  0.3090  0.2965  1.8896
 2945TIP3    H230395   6.255   5.245   6.737 -0.3607 -0.4928 -1.2922
 2946TIP3   OH230396   5.106   5.990   6.973 -0.5938 -0.4799  0.6237
 2946TIP3    H130397   5.135   5.969   6.884 -1.2619 -0.6307  0.4416
 2946TIP3    H230398   5.145   5.921   7.028  0.5846  0.1362  0.5813
 2947TIP3   OH230399   4.103   5.877   6.136  0.3585  0.2586 -0.3217
 2947TIP3    H130400   4.039   5.920   6.193 -1.5674 -1.0762 -1.3912
 2947TIP3    H230401   4.106   5.787   6.167  2.2644  0.4648  0.1430
 2948TIP3   OH230402   5.818   6.396   0.255  0.4862  0.1717  0.5456
 2948TIP3    H130403   5.818   6.301   0.240  0.9355  0.3213 -0.4418
 2948TIP3    H230404   5.751   6.430   0.195  1.1219  0.6000  0.0712
 2949TIP3   OH230405   0.077   4.355   0.229 -0.4106 -0.2209  0.7129
 2949TIP3    H130406   0.035   4.441   0.233  0.4426  0.1641  1.8984
 2949TIP3    H230407   0.055   4.314   0.313  1.1981 -0.1713  1.1853
 2950TIP3   OH230408   5.826   5.630   0.724 -0.1703 -0.5033 -0.0115
 2950TIP3    H130409   5.881   5.703   0.696 -1.5003  1.1246  1.4776
 2950TIP3    H230410   5.868   5.552   0.687  0.5016  1.1291 -2.8388
 2951TIP3   OH230411   6.064   0.267   6.867 -0.8679  0.2317 -0.3056
 2951TIP3    H130412   6.124   0.341   6.861  0.5701 -0.9034 -0.1885
 2951TIP3    H230413   6.050   0.239   6.777 -0.9095  0.2603 -0.3082
 2952TIP3   OH230414   7.116   6.746   6.836  0.0848 -0.1638 -0.3975
 2952TIP3    H130415   7.200   6.771   6.874  0.4591  1.0462 -2.0074
 2952TIP3    H230416   7.123   6.651   6.822  0.5390 -0.3541  1.0038
 2953TIP3   OH230417   0.304   6.700   6.806  0.4122  0.2849 -0.2570
 2953TIP3    H130418   0.214   6.731   6.814 -0.0712 -0.7945 -1.3714
 2953TIP3    H230419   0.297   6.617   6.758  1.8649 -0.5021  0.8562
 2954TIP3   OH230420   6.309   5.749   8.196  0.2254  0.1798 -0.2931
 2954TIP3    H130421   6.335   5.671   8.147 -2.5815  0.2208 -1.9682
 2954TIP3    H230422   6.296   5.718   8.286  0.6587 -0.9415 -0.6126
 2955TIP3   OH230423   6.682   6.016   7.265 -0.3558  0.1603 -0.2145
 2955TIP3    H130424   6.726   5.953   7.208 -0.1507  1.3527 -1.4143
 2955TIP3    H230425   6.597   5.977   7.283 -0.3841 -0.2952 -1.2589
 2956TIP3   OH230426   6.759   5.976   8.229 -0.1134  0.0462 -0.3251
 2956TIP3    H130427   6.666   5.956   8.220  0.0148 -1.6524  1.6406
 2956TIP3    H230428   6.795   5.962   8.142 -1.3952 -1.0211 -0.7002
 2957TIP3   OH230429   7.011   6.744   6.299  0.7831  0.0905  0.0476
 2957TIP3    H130430   6.970   6.734   6.213 -0.2125 -0.2672  0.5609
 2957TIP3    H230431   7.022   6.655   6.331  1.7957  0.1901  0.0014
 2958TIP3   OH230432   0.560   5.880   0.023  0.1772  0.0507  0.0641
 2958TIP3    H130433   0.586   5.939   0.095  1.9133 -1.3049  0.5768
 2958TIP3    H230434   0.566   5.935  -0.055  2.0977  0.5013  0.4907
 2959TIP3   OH230435   6.753   1.610   6.597 -0.4213  0.4993 -0.5056
 2959TIP3    H130436   6.672   1.644   6.558  1.0875  1.1769 -3.1582
 2959TIP3    H230437   6.822   1.665   6.560  1.2837 -0.0441  1.7562
 2960TIP3   OH230438   0.011   5.731   7.811  0.3192  0.4351 -0.3886
 2960TIP3    H130439  -0.020   5.650   7.852 -0.3036  1.0953  0.4677
 2960TIP3    H230440   0.070   5.702   7.742  0.4673 -0.7390  0.2230
 2961TIP3   OH230441   4.015   5.389   2.306 -0.1435 -0.5631  0.5744
 2961TIP3    H130442   4.073   5.370   2.380 -0.7875 -2.6926  0.5528
 2961TIP3    H230443   3.950   5.319   2.308  0.4322 -1.2680 -2.6464
 2962TIP3   OH230444   4.938   0.183   7.731  0.0480 -0.3016  0.6351
 2962TIP3    H130445   4.931   0.196   7.636  0.2034  2.6651  0.9763
 2962TIP3    H230446   4.864   0.127   7.753 -1.0838  0.4862 -0.9992
 2963TIP3   OH230447   5.045   4.862   7.611  0.8874 -0.1685  0.0138
 2963TIP3    H130448   4.982   4.930   7.583 -0.2242 -1.2237 -0.0789
 2963TIP3    H230449   5.093   4.903   7.683 -0.6956  0.2574  0.8652
 2964TIP3   OH230450   0.213   0.931   7.520  0.1920 -0.5247  0.2691
 2964TIP3    H130451   0.308   0.924   7.525  0.3018  0.6025 -0.2150
 2964TIP3    H230452   0.187   0.970   7.603  0.2869  0.5239 -0.1918
 2965TIP3   OH230453   5.816   7.156   7.090  0.2359 -0.2266  0.2976
 2965TIP3    H130454   5.756   7.092   7.053 -0.4402  0.2571  0.5347
 2965TIP3    H230455   5.877   7.105   7.143 -0.7829 -0.5974  1.1200
 2966TIP3   OH230456   1.499   6.498   7.745 -0.2707  0.5723  0.3301
 2966TIP3    H130457   1.437   6.472   7.677  0.1253 -0.4339  0.3372
 2966TIP3    H230458   1.469   6.584   7.774 -1.0725  0.5304 -0.3597
 2967TIP3   OH230459   0.251   6.456   6.657 -0.3669 -0.3363  0.4168
 2967TIP3    H130460   0.331   6.434   6.608 -0.5907 -0.8027  0.2541
 2967TIP3    H230461   0.181   6.444   6.593 -0.5900 -0.1778  0.6346
 2968TIP3   OH230462   0.823   6.267   0.458 -0.2108  0.5301 -0.2396
 2968TIP3    H130463   0.820   6.221   0.375 -1.7183 -0.3438  0.2702
 2968TIP3    H230464   0.916   6.287   0.472  0.2457 -0.7644 -1.3328
 2969TIP3   OH230465   0.817   6.856   6.961 -0.2632 -0.1365  0.2267
 2969TIP3    H130466   0.833   6.853   7.055 -0.1540 -1.6573  0.1675
 2969TIP3    H230467   0.729   6.819   6.950 -0.8168  1.2335 -0.1619
 2970TIP3   OH230468   2.284   7.175   7.051  0.1904 -0.0190  0.0366
 2970TIP3    H130469   2.220   7.239   7.020 -0.3723 -1.6065 -2.2118
 2970TIP3    H230470   2.241   7.129   7.122 -1.9793 -2.4345 -2.7608
 2971TIP3   OH230471   6.733   4.683   1.076 -0.3618 -0.0324 -0.7621
 2971TIP3    H130472   6.794   4.642   1.014 -0.7353 -0.0944 -1.0909
 2971TIP3    H230473   6.731   4.622   1.150  1.0874  0.6872 -0.1182
 2972TIP3   OH230474   1.576   7.159   6.866  0.2334  0.4413  0.6058
 2972TIP3    H130475   1.584   7.200   6.780  0.0795 -1.0253 -0.1216
 2972TIP3    H230476   1.610   7.070   6.855  1.1123  0.5343  2.3030
 2973TIP3   OH230477   5.359   5.040   7.625 -0.4215 -0.4226 -0.2144
 2973TIP3    H130478   5.453   5.027   7.612 -0.3321  0.2117 -0.2015
 2973TIP3    H230479   5.344   5.133   7.608 -0.5948  0.0700  2.3894
 2974TIP3   OH230480   5.104   7.033   8.319  0.1963  0.4014 -0.7735
 2974TIP3    H130481   5.118   6.951   8.271  0.1827 -0.5217  0.7848
 2974TIP3    H230482   5.190   7.074   8.323  0.1459  0.6270 -1.8405
 2975TIP3   OH230483   0.170   4.098   8.024  0.2235 -0.3144  0.2175
 2975TIP3    H130484   0.127   4.013   8.011  0.9594 -0.6604  0.0287
 2975TIP3    H230485   0.157   4.116   8.117  0.2636 -0.7438  0.3094
 2976TIP3   OH230486   5.525   5.527   6.461  0.6694 -0.1725  0.3707
 2976TIP3    H130487   5.510   5.515   6.367  1.3487  1.8352 -0.0049
 2976TIP3    H230488   5.620   5.528   6.470  0.6535 -2.8979  1.4526
 2977TIP3   OH230489   6.750   7.093   7.248  0.5628  0.4294 -0.5653
 2977TIP3    H130490   6.802   7.115   7.326 -0.2789  1.2790 -0.2343
 2977TIP3    H230491   6.754   7.172   7.194 -0.7686  0.6693 -0.3271
 2978TIP3   OH230492   5.192   1.104   7.123  0.0604  0.4145  0.5474
 2978TIP3    H130493   5.211   1.192   7.090  0.2956  0.3280  0.4552
 2978TIP3    H230494   5.117   1.117   7.182 -0.5156  0.5369 -0.1915
 2979TIP3   OH230495   7.268   0.253   0.537  0.5213  0.0207 -0.4767
 2979TIP3    H130496   7.293   0.175   0.488  0.2815  0.5103 -1.3775
 2979TIP3    H230497   7.188   0.284   0.495 -0.2198 -0.0810  0.8043
 2980TIP3   OH230498   7.071   7.007   6.830 -0.4962 -0.5045 -0.4033
 2980TIP3    H130499   7.161   7.024   6.858 -1.0398  1.0667  0.4534
 2980TIP3    H230500   7.066   6.912   6.820  1.5278 -0.5150 -1.4216
 2981TIP3   OH230501   5.136   0.042   7.452  0.0202 -0.2603 -0.6700
 2981TIP3    H130502   5.150   0.120   7.398  1.7507 -0.1541 -0.0965
 2981TIP3    H230503   5.042   0.042   7.470  0.0841  2.0174 -0.2073
 2982TIP3   OH230504   6.561   6.342   6.551  0.4249  0.2372 -0.4347
 2982TIP3    H130505   6.485   6.308   6.598 -0.1953  1.9156 -0.1837
 2982TIP3    H230506   6.542   6.435   6.540  2.1329  0.5267 -0.9996
 2983TIP3   OH230507   6.321   6.726   7.916 -0.2936 -0.3201 -0.3819
 2983TIP3    H130508   6.344   6.816   7.895  1.7117 -0.9205 -0.9192
 2983TIP3    H230509   6.225   6.725   7.921 -0.4309  1.4041 -2.2767
 2984TIP3   OH230510   7.099   0.371   7.243 -0.0541  0.0822  0.2710
 2984TIP3    H130511   7.124   0.426   7.169 -0.3460 -1.0725 -0.7087
 2984TIP3    H230512   7.004   0.372   7.242 -0.0586  0.3530  0.8617
 2985TIP3   OH230513   5.953   0.188   1.076  0.1462  0.1051 -0.4022
 2985TIP3    H130514   5.926   0.242   1.151  0.1418 -0.5549  0.0872
 2985TIP3    H230515   5.953   0.099   1.111  0.3996 -0.1811 -1.1283
 2986TIP3   OH230516   6.092   7.005   5.957  0.5103 -0.5608 -0.2375
 2986TIP3    H130517   6.116   6.921   5.996 -1.7009 -1.3293 -0.4511
 2986TIP3    H230518   6.014   6.986   5.904  0.3900  1.4844 -0.8655
 2987TIP3   OH230519   0.493   5.575   8.160  0.3462 -0.5927  0.4693
 2987TIP3    H130520   0.539   5.659   8.156  0.5057 -0.6754  0.5649
 2987TIP3    H230521   0.415   5.588   8.106 -0.1433 -0.0627  1.2870
 2988TIP3   OH230522   4.897   0.288   7.253 -0.2582  0.7105  0.0175
 2988TIP3    H130523   4.934   0.330   7.176 -1.6639  1.3704 -0.3117
 2988TIP3    H230524   4.812   0.255   7.225 -0.7287  0.8361  1.2337
 2989TIP3   OH230525   7.009   0.527   0.653 -0.4765 -0.4886 -0.8332
 2989TIP3    H130526   7.014   0.547   0.560  1.5691 -0.3507 -0.7159
 2989TIP3    H230527   6.969   0.440   0.658  0.2211 -0.8715 -1.8786
 2990TIP3   OH230528   0.585   0.221   0.969 -0.0586 -0.3372  0.1800
 2990TIP3    H130529   0.671   0.236   1.009  0.2027 -0.6854 -0.2418
 2990TIP3    H230530   0.579   0.288   0.901 -0.9981  1.0033  1.5584
 2991TIP3   OH230531   3.137   5.216   6.200 -0.2108 -0.0479  0.2966
 2991TIP3    H130532   3.231   5.219   6.182 -0.5823  1.1666 -1.6244
 2991TIP3    H230533   3.118   5.297   6.246 -0.5881  0.5602 -0.8901
 2992TIP3   OH230534   4.438   5.585   7.014  0.0398 -0.1150  0.2752
 2992TIP3    H130535   4.526   5.611   7.043  0.0309 -1.3787  1.4501
 2992TIP3    H230536   4.443   5.587   6.918  1.2755  0.0744  0.3365
 2993TIP3   OH230537   6.945   6.571   7.329 -0.4813 -0.4551  0.0229
 2993TIP3    H130538   6.945   6.588   7.235  0.3162  2.4908  0.5182
 2993TIP3    H230539   6.997   6.641   7.366  2.1129 -3.5179  2.3920
 2994TIP3   OH230540   6.891   6.118   6.844 -0.4963 -0.0469  0.3928
 2994TIP3    H130541   6.879   6.167   6.925  2.7260  2.1430 -0.3493
 2994TIP3    H230542   6.891   6.184   6.775 -0.5999 -1.5941 -1.1445
 2995TIP3   OH230543   1.127   6.595   6.926 -0.2128 -0.4577 -0.2713
 2995TIP3    H130544   1.059   6.588   6.992 -1.3988  0.9950 -1.3169
 2995TIP3    H230545   1.182   6.667   6.954 -0.7240  0.1688 -0.8606
 2996TIP3   OH230546   0.808   5.261   7.481  0.1217 -0.1240  0.0902
 2996TIP3    H130547   0.902   5.246   7.473  0.3755  0.4671  1.8737
 2996TIP3    H230548   0.799   5.356   7.485 -0.4515 -0.2206  1.1413
 2997TIP3   OH230549   0.901   4.002   6.627 -0.0356 -0.3373 -0.1540
 2997TIP3    H130550   0.834   4.006   6.559 -0.4749 -0.7417  0.2532
 2997TIP3    H230551   0.864   3.944   6.694  0.3569  0.1224  0.4665
 2998TIP3   OH230552   7.079   5.905   8.138  0.0908  0.3080  0.2493
 2998TIP3    H130553   7.055   5.980   8.191 -3.8895  0.4601 -1.5534
 2998TIP3    H230554   7.094   5.941   8.051  0.6386 -0.6576 -0.0637
 2999TIP3   OH230555   0.002   6.505   6.525  0.1229 -0.3935 -0.0777
 2999TIP3    H130556  -0.068   6.513   6.461  0.1589 -1.0275 -0.2033
 2999TIP3    H230557  -0.043   6.490   6.608 -0.0443  3.2967  0.5871
 3000TIP3   OH230558   5.426   0.971   7.253 -0.1063 -0.1956  0.5718
 3000TIP3    H130559   5.350   1.030   7.249  0.6530  0.7967  0.6720
 3000TIP3    H230560   5.403   0.908   7.321 -0.6333  0.3922  0.9474
 3001TIP3   OH230561   6.096   6.529   7.375  0.6323  0.1049 -0.3143
 3001TIP3    H130562   6.086   6.434   7.368  0.7175  0.1182 -0.6194
 3001TIP3    H230563   6.117   6.544   7.468 -1.0259 -0.0229  0.0897
 3002TIP3   OH230564   5.571   5.326   6.678 -0.3746  0.7891 -0.2891
 3002TIP3    H130565   5.607   5.287   6.598 -0.2165  0.6479 -0.1496
 3002TIP3    H230566   5.477   5.322   6.665 -0.3315  1.7336 -0.9294
 3003TIP3   OH230567   0.337   6.305   8.222 -0.0402 -0.4819  0.4435
 3003TIP3    H130568   0.374   6.293   8.310  1.4598  0.6146 -0.0294
 3003TIP3    H230569   0.412   6.321   8.166 -0.8668 -2.4923 -1.3145
 3004TIP3   OH230570   7.076   6.361   7.125  0.3808 -0.2725 -0.0706
 3004TIP3    H130571   7.006   6.299   7.103 -0.4569  0.6917 -0.1714
 3004TIP3    H230572   7.057   6.387   7.215  0.1520  0.5817 -0.3602
 3005TIP3   OH230573   4.835   6.889   7.892  1.0463  0.3647  0.2562
 3005TIP3    H130574   4.882   6.834   7.955  1.1179 -0.6675 -0.6742
 3005TIP3    H230575   4.861   6.978   7.914  2.8681 -0.1345  0.2659
 3006TIP3   OH230576   6.419   5.992   6.780 -0.4301 -0.6405 -0.3812
 3006TIP3    H130577   6.512   6.014   6.791 -0.4208 -1.1044  0.5312
 3006TIP3    H230578   6.396   5.944   6.860 -1.2548 -1.2182 -0.9546
 3007TIP3   OH230579   1.076   0.944   7.137  0.3449  0.0911  0.2234
 3007TIP3    H130580   1.065   1.038   7.153  0.1066  0.1264 -0.1367
 3007TIP3    H230581   0.992   0.915   7.102  1.4680  0.4795 -3.0535
 3008TIP3   OH230582   0.340   6.486   6.334 -0.7721 -0.4938  0.2302
 3008TIP3    H130583   0.359   6.492   6.241 -0.7814  0.4529  0.2796
 3008TIP3    H230584   0.379   6.566   6.371 -2.9867  0.4254  0.6552
 3009TIP3   OH230585   6.902   6.709   6.032 -0.4967  0.1071 -0.3160
 3009TIP3    H130586   6.955   6.720   5.953  0.2966 -0.7650  0.0794
 3009TIP3    H230587   6.822   6.667   6.002  0.4109 -1.5666 -0.4659
 3010TIP3   OH230588   6.817   5.785   7.993 -0.3635  0.4420 -0.1887
 3010TIP3    H130589   6.901   5.806   7.953  0.1750 -0.9769  0.1520
 3010TIP3    H230590   6.796   5.698   7.958 -0.8141  0.0202  1.1296
 3011TIP3   OH230591   0.336   1.324   6.592 -0.3282 -0.2090 -0.0227
 3011TIP3    H130592   0.406   1.385   6.613 -0.7442  0.3270 -0.1712
 3011TIP3    H230593   0.307   1.289   6.677 -0.2890  0.0228  0.0846
 3012TIP3   OH230594   5.991   6.073   7.553  0.0266  0.1254 -0.1201
 3012TIP3    H130595   5.964   6.017   7.625 -1.9621 -0.7597 -1.5034
 3012TIP3    H230596   5.949   6.157   7.570 -0.7441 -0.1944 -0.4383
 3013TIP3   OH230597   6.662   6.602   5.955 -0.2952 -0.1220  0.1771
 3013TIP3    H130598   6.611   6.573   6.031 -0.4193  0.8341  0.4622
 3013TIP3    H230599   6.620   6.558   5.881 -1.2864  0.3289  0.4583
 3014TIP3   OH230600   6.495   5.712   7.425  0.3073  0.6586  0.2014
 3014TIP3    H130601   6.522   5.672   7.342  0.0832  3.5956 -1.3712
 3014TIP3    H230602   6.576   5.744   7.464  0.1818  1.0989  0.1040
 3015TIP3   OH230603   5.749   5.484   6.795  0.4622  0.1508 -0.0814
 3015TIP3    H130604   5.750   5.544   6.720 -0.8418  0.6959  0.3177
 3015TIP3    H230605   5.684   5.418   6.772 -0.5929  0.8202  0.9475
 3016TIP3   OH230606   0.067   0.483   7.898  0.0596  0.6570 -0.2173
 3016TIP3    H130607   0.037   0.393   7.889  0.8372  0.3757 -0.0717
 3016TIP3    H230608   0.055   0.503   7.991  2.1068 -0.1132  0.2311
 3017TIP3   OH230609   6.536   6.953   6.346 -0.0804 -0.4107  0.3754
 3017TIP3    H130610   6.625   6.955   6.380 -0.4020  0.9361  1.1786
 3017TIP3    H230611   6.547   6.942   6.251  1.0461  2.1158  0.1603
 3018TIP3   OH230612   7.014   6.768   5.781 -0.1538  0.4555  0.4216
 3018TIP3    H130613   6.987   6.833   5.717  2.3681 -0.1261 -1.3324
 3018TIP3    H230614   7.110   6.774   5.783  0.0097 -1.7714  1.7352
 3019TIP3   OH230615   6.208   6.508   6.107 -0.1255 -0.4119  0.2044
 3019TIP3    H130616   6.299   6.479   6.116  0.0848  0.1022 -0.2646
 3019TIP3    H230617   6.159   6.452   6.168  0.5656 -0.3881  0.7851
 3020TIP3   OH230618   0.002   6.768   6.271  0.3521 -0.4242  0.2653
 3020TIP3    H130619   0.044   6.747   6.355 -1.9040  0.0767  1.5341
 3020TIP3    H230620  -0.087   6.733   6.279  0.7192 -2.2587 -2.7318
 3021TIP3   OH230621   6.685   1.041   1.483 -0.6911 -0.8005  0.3243
 3021TIP3    H130622   6.747   1.027   1.554 -0.0165 -0.8693 -0.2790
 3021TIP3    H230623   6.657   0.953   1.458  0.9129 -0.9122 -1.1254
 3022TIP3   OH230624   0.734   2.308   7.636  0.3946  0.4138 -0.1380
 3022TIP3    H130625   0.650   2.347   7.613  0.8247  2.2287  1.2748
 3022TIP3    H230626   0.718   2.213   7.633 -1.0627  0.6962 -2.1047
 3023TIP3   OH230627   4.672   5.649   7.165  0.2934  0.2825  0.1775
 3023TIP3    H130628   4.686   5.632   7.258  3.1617  1.3921  0.0043
 3023TIP3    H230629   4.650   5.742   7.160  1.9543  0.6726 -0.3647
 3024TIP3   OH230630   3.000   3.843   7.733 -0.5907  0.1854 -0.2984
 3024TIP3    H130631   2.926   3.894   7.763  1.0214  1.1451  2.1600
 3024TIP3    H230632   3.075   3.903   7.737  0.8916 -1.6469  0.3391
 3025TIP3   OH230633   5.649   6.578   6.215 -0.0687  0.4661  0.0449
 3025TIP3    H130634   5.613   6.640   6.278 -0.2926 -2.5328  2.9883
 3025TIP3    H230635   5.574   6.528   6.184  0.6783 -1.6183  1.4724
 3026TIP3   OH230636   0.348   0.696   6.774  0.7005  0.8450 -0.2548
 3026TIP3    H130637   0.431   0.736   6.799  1.1940  0.3059 -1.0024
 3026TIP3    H230638   0.286   0.769   6.772  0.5328  0.8269  2.9196
 3027TIP3   OH230639   4.812   6.762   6.508 -0.0861  0.2204  0.3093
 3027TIP3    H130640   4.791   6.743   6.600  0.3145  1.2629  0.6277
 3027TIP3    H230641   4.761   6.841   6.488 -0.1494  0.0129 -0.3604
 3028TIP3   OH230642   6.991   5.742   6.698  0.1343  0.1569 -0.2535
 3028TIP3    H130643   7.027   5.816   6.649 -0.4351  0.6957  0.1374
 3028TIP3    H230644   7.036   5.745   6.782 -1.0228  1.0255  0.3593
 3029TIP3   OH230645   7.148   5.890   6.473  0.2681  0.0209 -0.2616
 3029TIP3    H130646   7.158   5.828   6.400 -0.8479 -1.6941  1.0160
 3029TIP3    H230647   7.227   5.878   6.526 -0.6652 -1.4811  0.8309
 3030TIP3   OH230648   6.311   0.248   6.423 -0.5874  0.0483 -0.5395
 3030TIP3    H130649   6.407   0.255   6.423 -0.4615 -1.2866  0.7168
 3030TIP3    H230650   6.295   0.155   6.405 -1.6519  0.2538 -0.6515
 3031TIP3   OH230651   1.121   5.999   7.116  0.5393 -0.2595 -0.3518
 3031TIP3    H130652   1.059   6.056   7.071  0.0327 -0.8924 -0.4698
 3031TIP3    H230653   1.179   6.058   7.163 -1.0514  0.2917  0.9394
 3032TIP3   OH230654   0.157   4.681   6.247  0.2914 -0.3304  0.2278
 3032TIP3    H130655   0.245   4.715   6.263  0.5295 -0.5518 -0.5731
 3032TIP3    H230656   0.142   4.698   6.154 -0.7841  0.3317  0.5221
 3033TIP3   OH230657   4.735   4.792   7.740  0.3957  0.4655  0.1364
 3033TIP3    H130658   4.680   4.721   7.774  1.0137  0.5534  1.3157
 3033TIP3    H230659   4.676   4.866   7.731 -0.0608  0.0610 -0.2787
 3034TIP3   OH230660   6.723   0.171   6.688 -0.0624 -0.3877  0.4955
 3034TIP3    H130661   6.751   0.085   6.657  0.0219 -0.4188  0.6572
 3034TIP3    H230662   6.804   0.213   6.719  0.4683  1.0195 -2.5860
 3035TIP3   OH230663   6.567   0.706   1.672  0.1632 -0.4901  0.3734
 3035TIP3    H130664   6.605   0.741   1.591  2.4711 -0.0435  1.6111
 3035TIP3    H230665   6.511   0.777   1.704  2.8767  1.1788  1.5582
 3036TIP3   OH230666   6.495   6.803   6.112  0.0035  0.0598 -0.0629
 3036TIP3    H130667   6.441   6.817   6.034  2.1000  1.8708 -1.2471
 3036TIP3    H230668   6.505   6.708   6.117 -1.5296 -0.1727 -1.0259
 3037TIP3   OH230669   5.792   5.043   6.626  0.7872  0.1998 -0.1749
 3037TIP3    H130670   5.708   4.998   6.616  0.5375  0.6088  0.1005
 3037TIP3    H230671   5.823   5.057   6.536 -0.2054  1.5077 -0.3169
 3038TIP3   OH230672   4.934   6.825   6.911  0.8759  0.2721 -0.4375
 3038TIP3    H130673   5.007   6.769   6.882  0.9680 -0.1540  0.5785
 3038TIP3    H230674   4.920   6.799   7.002  0.5572  1.5406 -0.1243
 3039TIP3   OH230675   7.087   7.268   0.673 -0.1476  0.2158 -1.1554
 3039TIP3    H130676   7.092   7.355   0.713  2.1436 -0.1948 -0.4686
 3039TIP3    H230677   6.993   7.252   0.662 -0.5937  3.0360 -1.8997
 3040TIP3   OH230678   1.037   1.179   7.523 -0.9186  0.0969 -0.4891
 3040TIP3    H130679   1.032   1.131   7.606  0.8870 -3.4446 -2.2852
 3040TIP3    H230680   0.949   1.213   7.510 -1.7519 -1.0054  1.8770
 3041TIP3   OH230681   4.070   0.533   0.865  0.5431  0.0368 -0.6094
 3041TIP3    H130682   4.124   0.574   0.932  1.4794 -0.1622 -1.2295
 3041TIP3    H230683   4.064   0.599   0.795 -0.3019  0.1872 -0.4088
 3042TIP3   OH230684   6.296   6.135   7.783 -0.0309  0.3432  0.3022
 3042TIP3    H130685   6.230   6.121   7.851 -1.5824 -1.6666 -1.5507
 3042TIP3    H230686   6.270   6.218   7.742  0.2396  0.9756  1.3920
 3043TIP3   OH230687   0.187   6.022   6.417 -0.2235 -0.4671 -0.4702
 3043TIP3    H130688   0.229   5.938   6.395  2.3546  0.5313  0.4409
 3043TIP3    H230689   0.216   6.081   6.348 -1.2081 -0.0632 -0.5392
 3044TIP3   OH230690   6.270   6.529   6.454 -0.0865  0.3590 -0.6126
 3044TIP3    H130691   6.199   6.569   6.505 -0.0049 -1.2523  0.8273
 3044TIP3    H230692   6.228   6.498   6.374 -0.8192  0.2730 -0.1974
 3045TIP3   OH230693   5.387   6.255   6.361 -0.3498 -0.2089  0.4088
 3045TIP3    H130694   5.305   6.302   6.348  0.2724  0.9520  0.5991
 3045TIP3    H230695   5.451   6.303   6.308  0.6535  0.1903  1.9545
 3046TIP3   OH230696   4.748   6.860   7.619 -0.2355 -0.2853  0.0342
 3046TIP3    H130697   4.838   6.851   7.588 -0.4155 -1.6005 -0.1554
 3046TIP3    H230698   4.756   6.881   7.712  0.2837  1.3395 -0.3787
 3047TIP3   OH230699   0.393   7.215   7.885 -0.3993  0.0315  0.5719
 3047TIP3    H130700   0.429   7.151   7.947  2.4097  1.5889  0.6559
 3047TIP3    H230701   0.382   7.166   7.803  2.4942 -0.4342  0.4055
 3048TIP3   OH230702   0.453   6.975   7.126 -0.1167 -0.4818 -0.1552
 3048TIP3    H130703   0.377   6.939   7.171 -0.7642  1.1552  0.0970
 3048TIP3    H230704   0.514   6.998   7.196 -0.1971  0.0084 -0.2455
 3049TIP3   OH230705   6.315   5.785   6.975  0.3029  0.4750  0.4597
 3049TIP3    H130706   6.302   5.698   6.936  0.8813  1.0112 -0.9743
 3049TIP3    H230707   6.249   5.791   7.043 -1.0974 -0.2957 -0.7990
 3050TIP3   OH230708   4.557   4.885   6.799 -0.2732  0.0022 -0.2513
 3050TIP3    H130709   4.499   4.906   6.872  1.9172  2.9241  0.7136
 3050TIP3    H230710   4.633   4.842   6.839 -0.0595 -0.4269 -1.0814
 3051TIP3   OH230711   4.983   5.764   0.168 -0.0957  0.2390  0.0257
 3051TIP3    H130712   4.990   5.853   0.134  1.6606  0.7621  1.6808
 3051TIP3    H230713   5.073   5.734   0.178 -0.5903 -0.7627  1.9094
 3052TIP3   OH230714   1.159   6.132   0.108  0.3401 -0.0479 -0.5820
 3052TIP3    H130715   1.240   6.124   0.159 -0.7852  1.9901  1.6111
 3052TIP3    H230716   1.116   6.047   0.118  2.6616 -1.5366 -2.6793
 3053TIP3   OH230717   0.880   6.077   8.094  0.2907 -0.1741  0.4146
 3053TIP3    H130718   0.858   6.015   8.024 -0.5142  0.7595 -0.1644
 3053TIP3    H230719   0.903   6.158   8.048 -2.0101  1.0082  1.2674
 3054TIP3   OH230720   6.746   6.646   6.595 -0.4864  0.2314 -0.4079
 3054TIP3    H130721   6.694   6.672   6.519 -0.7713  1.0817  0.0764
 3054TIP3    H230722   6.820   6.598   6.558 -0.5689  0.7380 -1.2338
 3055TIP3   OH230723   5.707   4.952   8.071 -0.2427  0.2037 -0.3708
 3055TIP3    H130724   5.741   5.018   8.011 -0.5050  1.9008  1.3042
 3055TIP3    H230725   5.783   4.925   8.123 -0.0150 -1.2665 -1.4353
 3056TIP3   OH230726   0.171   6.373   6.958 -0.2784 -0.1917 -0.0110
 3056TIP3    H130727   0.091   6.391   6.908  0.6057  3.1039 -0.3661
 3056TIP3    H230728   0.241   6.374   6.893  0.3769 -0.1384  0.6844
 3057TIP3   OH230729   7.233   1.297   7.281 -0.1217  0.1715 -0.5981
 3057TIP3    H130730   7.200   1.235   7.346  1.5156 -0.1153 -0.0140
 3057TIP3    H230731   7.242   1.245   7.201 -1.8774  0.4601 -1.0089
 3058TIP3   OH230732   6.431   6.592   7.418  0.1817 -0.4543  0.0179
 3058TIP3    H130733   6.459   6.682   7.435 -0.2801 -0.1836 -0.6388
 3058TIP3    H230734   6.481   6.565   7.341  1.9788 -1.5416  1.5275
 3059TIP3   OH230735   4.520   7.029   6.893 -0.2299  0.1068  0.1517
 3059TIP3    H130736   4.468   7.041   6.973 -4.6257  1.7297 -2.7956
 3059TIP3    H230737   4.509   6.937   6.871 -0.0751 -0.0404  0.6829
 3060TIP3   OH230738   6.663   6.114   0.717  0.0245  0.4868  0.0008
 3060TIP3    H130739   6.732   6.064   0.759  0.9188 -0.4520 -2.4779
 3060TIP3    H230740   6.591   6.051   0.706 -0.2234  0.7359  0.2016
 3061TIP3   OH230741   1.139   7.190   6.808 -0.0775 -0.0560 -0.0899
 3061TIP3    H130742   1.155   7.171   6.900 -2.2581  0.7119  0.4720
 3061TIP3    H230743   1.047   7.169   6.795 -0.4755  2.4229 -1.4250
 3062TIP3   OH230744   5.870   6.598   6.376 -0.4195  0.2633 -0.0058
 3062TIP3    H130745   5.788   6.600   6.327 -0.0171 -0.3430 -0.7038
 3062TIP3    H230746   5.931   6.549   6.321  0.3298  0.4466  0.6425
 3063TIP3   OH230747   0.297   5.457   6.253  0.1841 -0.1102 -0.1268
 3063TIP3    H130748   0.248   5.537   6.232  0.2049 -0.4358 -1.5127
 3063TIP3    H230749   0.382   5.489   6.282 -0.6970  0.4461  1.9323
 3064TIP3   OH230750   1.094   5.406   7.597  0.4540  0.0336  0.4395
 3064TIP3    H130751   1.017   5.462   7.597 -0.9014 -1.7940  0.5644
 3064TIP3    H230752   1.151   5.443   7.530 -1.0124  0.7489 -0.4164
 3065TIP3   OH230753   6.251   6.854   6.320 -0.1756  0.1224 -0.3977
 3065TIP3    H130754   6.339   6.885   6.301 -0.2152  1.1058  0.9797
 3065TIP3    H230755   6.240   6.868   6.414 -1.7791 -0.0368 -0.5497
 3066TIP3   OH230756   4.235   6.212   7.576 -0.2157 -0.1017 -0.0158
 3066TIP3    H130757   4.176   6.217   7.501  2.0338 -1.3834 -1.9263
 3066TIP3    H230758   4.211   6.130   7.620 -1.9226  0.9366  1.0449
 3067TIP3   OH230759   5.929   5.971   7.293  0.4888 -0.5331 -0.3227
 3067TIP3    H130760   5.980   6.011   7.364  0.6073 -2.7596  0.8713
 3067TIP3    H230761   5.995   5.937   7.232  0.3927  1.7127 -1.7759
 3068TIP3   OH230762   7.216   6.290   0.679  0.5023 -1.1077  0.3428
 3068TIP3    H130763   7.151   6.308   0.611  0.9158  0.2805  0.3185
 3068TIP3    H230764   7.166   6.291   0.761  0.6041  0.6946  0.3977
 3069TIP3   OH230765   6.615   0.543   6.449 -0.3567 -0.0918  0.5169
 3069TIP3    H130766   6.551   0.552   6.520 -1.6613  0.3066 -0.6786
 3069TIP3    H230767   6.640   0.451   6.450 -1.5354 -0.4162  0.5082
 3070TIP3   OH230768   1.912   5.851   6.610  0.6024 -0.1085 -0.4676
 3070TIP3    H130769   1.882   5.852   6.519  0.1575  0.4950 -0.3190
 3070TIP3    H230770   1.892   5.939   6.642 -0.4724 -0.7295  0.6056
 3071TIP3   OH230771   7.226   5.999   7.889  0.1758  0.0760  0.1756
 3071TIP3    H130772   7.306   6.031   7.930 -0.5261 -0.5128  2.0357
 3071TIP3    H230773   7.246   5.909   7.864  0.3491  0.1807 -0.0595
 3072TIP3   OH230774   0.133   6.020   6.825  0.1837  0.1991  0.1378
 3072TIP3    H130775   0.149   6.036   6.918 -2.4246  0.7051  0.5329
 3072TIP3    H230776   0.046   6.056   6.809 -0.4536 -2.1773 -1.9431
 3073TIP3   OH230777   5.854   5.436   5.856 -0.5326  0.5656 -0.1084
 3073TIP3    H130778   5.935   5.400   5.821 -1.0576 -0.8356  0.0947
 3073TIP3    H230779   5.859   5.421   5.950 -1.2475 -0.0112 -0.1510
 3074TIP3   OH230780   5.074   4.098   7.066  0.2523  0.0031  0.1339
 3074TIP3    H130781   5.080   4.003   7.068  1.6177  0.0909  1.8632
 3074TIP3    H230782   5.105   4.124   6.979 -1.2510 -1.1850 -0.7649
 3075TIP3   OH230783   0.057   6.327   6.326 -0.0380  0.7771 -0.3341
 3075TIP3    H130784   0.116   6.396   6.358 -0.8043  0.5930  1.5758
 3075TIP3    H230785   0.019   6.362   6.246 -1.9793  3.4778  1.6708
 3076TIP3   OH230786   1.314   6.483   7.548  0.2739  0.2080  0.2332
 3076TIP3    H130787   1.282   6.547   7.485 -1.2692 -1.1458 -0.3973
 3076TIP3    H230788   1.295   6.398   7.508  1.3248 -0.6621  1.5257
 3077TIP3   OH230789   5.793   5.642   6.492 -0.0946 -0.0737  0.2638
 3077TIP3    H130790   5.888   5.628   6.493 -0.1978 -0.9541 -0.8286
 3077TIP3    H230791   5.782   5.724   6.444  0.0831 -0.3006 -0.1702
 3078TIP3   OH230792   6.363   5.994   0.113 -0.8987 -0.1517 -0.3800
 3078TIP3    H130793   6.386   6.080   0.149  0.3509 -0.7199  0.2205
 3078TIP3    H230794   6.275   5.977   0.145 -0.5666  0.2430  0.7594
 3079TIP3   OH230795   1.075   6.320   7.044  0.0026  0.3332 -0.2435
 3079TIP3    H130796   1.015   6.318   7.118  0.1029 -1.4424 -0.1993
 3079TIP3    H230797   1.039   6.387   6.986 -0.5019  1.1968  1.0347
 3080TIP3   OH230798   7.261   0.460   7.599  0.2183  0.2344  0.2424
 3080TIP3    H130799   7.246   0.409   7.678  0.0215  1.2953  0.9005
 3080TIP3    H230800   7.339   0.512   7.618  0.9434 -0.4745 -0.7562
 3081TIP3   OH230801   0.219   1.331   7.966  0.3769  0.4015  0.2735
 3081TIP3    H130802   0.274   1.263   7.927 -1.9430 -0.8989 -0.7885
 3081TIP3    H230803   0.221   1.312   8.060  0.9738 -0.1890  0.1480
 3082TIP3   OH230804   0.043   1.989   6.910  0.4039  0.4178 -0.4152
 3082TIP3    H130805   0.138   1.993   6.895  0.4545 -0.6017 -0.4005
 3082TIP3    H230806   0.004   2.008   6.825  0.6443 -0.8244 -0.8111
 3083TIP3   OH230807   3.131   7.048   8.321 -0.1908  0.2821 -0.2171
 3083TIP3    H130808   3.192   6.974   8.321 -0.1554  0.3110 -0.1715
 3083TIP3    H230809   3.064   7.023   8.385 -0.5540 -0.0155 -0.7060
 3084TIP3   OH230810   2.267   0.768   0.629  0.1960 -0.3642  0.9207
 3084TIP3    H130811   2.266   0.691   0.571 -0.6567  0.3252 -0.0053
 3084TIP3    H230812   2.359   0.778   0.653  0.3239 -1.6512  1.0139
 3085TIP3   OH230813   1.701   0.299   7.433 -0.1474  0.4513  0.2241
 3085TIP3    H130814   1.753   0.291   7.353  1.5993  1.6254  1.2207
 3085TIP3    H230815   1.683   0.209   7.459 -0.9950  0.0592 -1.6475
 3086TIP3   OH230816   1.685   3.596   7.518 -0.5458  0.0876  0.1507
 3086TIP3    H130817   1.601   3.554   7.497 -2.3364  3.3328  0.5971
 3086TIP3    H230818   1.721   3.621   7.433 -0.4962 -0.4204  0.0210
 3087TIP3   OH230819   1.535   6.849   1.795 -0.4021 -0.5228  0.3747
 3087TIP3    H130820   1.553   6.778   1.733  0.8885 -0.4198  0.6143
 3087TIP3    H230821   1.538   6.928   1.742  0.5872 -0.4447  0.5441
 3088TIP3   OH230822   1.412   0.388   7.495  0.1909  0.0285 -0.4647
 3088TIP3    H130823   1.395   0.469   7.542 -0.5913 -1.0156  1.0584
 3088TIP3    H230824   1.504   0.369   7.514 -0.4121 -0.9721  1.5858
 3089TIP3   OH230825   6.229   6.030   7.116  0.2542 -0.5071  0.1177
 3089TIP3    H130826   6.281   5.981   7.052  1.6218 -0.0472  0.8702
 3089TIP3    H230827   6.275   6.018   7.199 -0.2042  0.8666  0.5772
 3090TIP3   OH230828   2.055   0.849   8.326  0.1812  0.9993 -0.5046
 3090TIP3    H130829   1.971   0.855   8.371 -0.2744 -2.8220 -0.7346
 3090TIP3    H230830   2.107   0.919   8.365 -3.5024  4.4275 -1.4046
 3091TIP3   OH230831   0.530   6.612   7.458 -0.4204 -0.1230  0.2553
 3091TIP3    H130832   0.477   6.555   7.514 -1.3884 -0.8787 -1.3771
 3091TIP3    H230833   0.620   6.589   7.479 -0.7872 -1.2451  0.6515
 3092TIP3   OH230834   0.954   1.750   0.389  0.5938  0.2155  0.2500
 3092TIP3    H130835   1.032   1.726   0.340  0.0972 -1.1467  0.1147
 3092TIP3    H230836   0.903   1.803   0.328  1.2336  0.8190  0.2267
 3093TIP3   OH230837   3.408   0.967   8.409  0.0099 -0.6396 -0.2158
 3093TIP3    H130838   3.367   0.896   8.360  1.0590 -1.2427 -0.2348
 3093TIP3    H230839   3.381   0.952   8.500 -1.2240 -0.0199 -0.4636
 3094TIP3   OH230840   0.311   0.840   1.149  0.5346  0.3179 -0.0564
 3094TIP3    H130841   0.237   0.834   1.088 -1.3814  0.5559  2.1726
 3094TIP3    H230842   0.366   0.909   1.113 -1.3472  1.5062 -0.7234
 3095TIP3   OH230843   1.885   7.029   8.417  0.0948  0.1660  0.8773
 3095TIP3    H130844   1.885   6.987   8.503 -0.3578  3.2532  2.4896
 3095TIP3    H230845   1.793   7.047   8.400  0.1496 -0.7678 -0.4576
 3096TIP3   OH230846   2.554   6.808   8.146  0.2088 -0.2291 -0.4371
 3096TIP3    H130847   2.578   6.889   8.192  1.7531 -0.0904 -1.4290
 3096TIP3    H230848   2.539   6.836   8.056  0.6189 -1.0081 -0.7590
 3097TIP3   OH230849   1.207   2.778   7.251  0.1517  0.5629 -1.0734
 3097TIP3    H130850   1.219   2.800   7.343 -1.1163  2.0567 -1.2470
 3097TIP3    H230851   1.160   2.695   7.251  0.9849  0.0832 -0.3950
 3098TIP3   OH230852   0.589   2.515   0.568  0.2145  0.2087  0.1324
 3098TIP3    H130853   0.652   2.563   0.622 -1.3148 -0.2814  2.4557
 3098TIP3    H230854   0.616   2.423   0.576  0.0611  0.1491 -0.0391
 3099TIP3   OH230855   1.331   3.378   1.041 -0.1189  0.2048 -0.0942
 3099TIP3    H130856   1.312   3.287   1.020  0.0758  0.2573 -0.4945
 3099TIP3    H230857   1.289   3.392   1.126 -1.7071  0.2715 -0.8854
 3100TIP3   OH230858   2.673   1.650   1.022  0.2475  0.5446  0.3225
 3100TIP3    H130859   2.734   1.723   1.021  0.2020  0.5894  0.8754
 3100TIP3    H230860   2.729   1.573   1.037  0.2553  0.5002  0.0750
 3101TIP3   OH230861   1.505   3.565   7.058  0.0400 -0.1903  0.3718
 3101TIP3    H130862   1.486   3.523   6.974 -0.4042  0.1200  0.3118
 3101TIP3    H230863   1.562   3.638   7.037  1.7198 -1.4175  0.6124
 3102TIP3   OH230864   6.797   2.371   0.911  0.0353 -0.1776 -0.0300
 3102TIP3    H130865   6.846   2.452   0.900  0.5684 -0.6616 -1.4816
 3102TIP3    H230866   6.865   2.303   0.916 -0.3962 -0.5260  1.3190
 3103TIP3   OH230867   3.273   7.078   7.351  0.4114 -0.5763  0.2064
 3103TIP3    H130868   3.229   7.090   7.266 -0.0613  0.6870  0.6237
 3103TIP3    H230869   3.207   7.102   7.416  1.3657  0.2729  0.8725
 3104TIP3   OH230870   1.554   3.185   6.974 -0.1150  0.3407  0.0605
 3104TIP3    H130871   1.636   3.231   6.956 -0.1734  0.3477 -0.1797
 3104TIP3    H230872   1.492   3.218   6.909  0.3112 -1.3790 -1.2382
 3105TIP3   OH230873   1.228   2.201   6.672 -0.0880  0.3155  0.8345
 3105TIP3    H130874   1.270   2.251   6.602 -2.1660  1.0513  0.0664
 3105TIP3    H230875   1.222   2.263   6.745  1.0199 -0.0921  1.2824
 3106TIP3   OH230876   7.102   2.955   1.450  0.1920  0.1175  0.2264
 3106TIP3    H130877   7.019   2.992   1.423 -0.6342 -1.3461  0.6872
 3106TIP3    H230878   7.116   2.989   1.539  0.1682  0.4972  0.0830
 3107TIP3   OH230879   1.210   2.673   8.199 -0.1089  0.2322 -0.0145
 3107TIP3    H130880   1.234   2.762   8.224  1.2322  0.6047 -2.4528
 3107TIP3    H230881   1.275   2.648   8.133 -2.5309 -1.2413 -1.9464
 3108TIP3   OH230882   1.413   1.408   6.787  0.6917  0.1782  0.6877
 3108TIP3    H130883   1.346   1.426   6.853 -0.2455  2.9255 -0.9573
 3108TIP3    H230884   1.420   1.489   6.736  4.0721 -0.6194 -0.2429
 3109TIP3   OH230885   3.161   1.668   0.055  0.1596  0.8684  0.0715
 3109TIP3    H130886   3.162   1.688   0.149 -0.8639  1.2262  0.0126
 3109TIP3    H230887   3.132   1.577   0.050 -1.0273  1.2382  0.0488
 3110TIP3   OH230888   1.634   1.673   6.928 -0.0554 -0.2719  0.5837
 3110TIP3    H130889   1.544   1.702   6.918 -0.2803 -1.2369 -0.2573
 3110TIP3    H230890   1.649   1.613   6.855  1.5396  0.5422  0.2194
 3111TIP3   OH230891   2.126   0.752   7.577  0.5553  0.4773  0.4024
 3111TIP3    H130892   2.112   0.809   7.501  0.3053  0.5026  0.4656
 3111TIP3    H230893   2.152   0.812   7.647  2.5448  0.2518 -0.1224
 3112TIP3   OH230894   2.688   1.507   0.046  0.1955  0.4141  0.1487
 3112TIP3    H130895   2.627   1.579   0.062 -2.0311 -1.1364 -1.1064
 3112TIP3    H230896   2.697   1.464   0.131 -3.2774 -1.4497 -0.3447
 3113TIP3   OH230897   0.224   2.270   2.210  0.1103  0.3208 -0.1731
 3113TIP3    H130898   0.283   2.200   2.239  0.5100  1.5661  2.1006
 3113TIP3    H230899   0.256   2.293   2.123  1.5802 -0.5661  0.1076
 3114TIP3   OH230900   6.214   1.497   7.183 -0.4996  0.0404 -0.1561
 3114TIP3    H130901   6.189   1.448   7.262 -0.1795  2.6475  1.6236
 3114TIP3    H230902   6.131   1.509   7.135 -1.0894  0.3863  0.9345
 3115TIP3   OH230903   1.127   2.221   7.744  0.3094 -0.0624  0.0581
 3115TIP3    H130904   1.059   2.259   7.799 -0.5130  2.7000 -2.7061
 3115TIP3    H230905   1.205   2.219   7.800 -0.5261  2.5162  1.3696
 3116TIP3   OH230906   0.759   0.660   7.147  0.1795  1.0464  0.1683
 3116TIP3    H130907   0.669   0.647   7.178  0.2090  1.6588  0.5245
 3116TIP3    H230908   0.802   0.708   7.217  2.1963 -3.4083  2.1799
 3117TIP3   OH230909   3.326   1.104   0.249  0.0377  0.3003 -0.7501
 3117TIP3    H130910   3.385   1.150   0.308  1.1157 -0.6329 -1.0793
 3117TIP3    H230911   3.322   1.015   0.284 -1.9930  0.5993 -0.1429
 3118TIP3   OH230912   1.369   0.301   8.323 -0.8985 -0.2142  0.2144
 3118TIP3    H130913   1.441   0.362   8.338 -1.3321  0.4157 -0.2415
 3118TIP3    H230914   1.332   0.328   8.239 -2.5286  0.3245  1.0866
 3119TIP3   OH230915   6.695   1.727   7.158  0.0026  0.1164 -0.3373
 3119TIP3    H130916   6.728   1.817   7.150 -0.1054  0.2131  0.3216
 3119TIP3    H230917   6.686   1.697   7.067  0.8352  0.4772 -0.5388
 3120TIP3   OH230918   2.245   5.468   7.825 -0.2131  0.3140  0.5677
 3120TIP3    H130919   2.299   5.389   7.820 -1.8490 -0.7079 -3.1581
 3120TIP3    H230920   2.302   5.538   7.794  0.4698  0.1396  1.4221
 3121TIP3   OH230921   7.040   1.789   7.973  0.2528 -0.9312 -0.0132
 3121TIP3    H130922   7.054   1.851   8.043 -1.4523 -0.2885 -0.2219
 3121TIP3    H230923   7.116   1.730   7.978 -0.0941 -1.2143  2.6687
 3122TIP3   OH230924   7.147   0.906   7.692 -0.2348 -0.3300 -0.3802
 3122TIP3    H130925   7.075   0.847   7.711  0.9145 -1.3631  0.9362
 3122TIP3    H230926   7.137   0.977   7.756  0.4898 -1.0074  0.5042
 3123TIP3   OH230927   4.135   7.300   7.297 -0.4624  0.0829  0.0220
 3123TIP3    H130928   4.146   7.205   7.286  1.2580  0.1153  1.1844
 3123TIP3    H230929   4.042   7.312   7.313 -0.5632 -1.5204  0.7452
 3124TIP3   OH230930   3.702   7.198   7.750  0.1599 -0.3652 -0.3912
 3124TIP3    H130931   3.679   7.122   7.697 -0.6548 -0.0737 -0.4538
 3124TIP3    H230932   3.671   7.177   7.838 -1.1125  0.3729 -0.6496
 3125TIP3   OH230933   3.984   6.854   1.347 -0.1841  0.6157  0.0016
 3125TIP3    H130934   4.000   6.799   1.424 -1.0489 -1.2078 -1.1065
 3125TIP3    H230935   3.904   6.902   1.368  0.6273  1.5732  1.0075
 3126TIP3   OH230936   4.349   5.073   6.584  0.1534 -0.0035 -0.3607
 3126TIP3    H130937   4.439   5.044   6.571  0.1502  0.0436 -0.4927
 3126TIP3    H230938   4.300   5.032   6.513 -0.3612 -1.9221  1.0825
 3127TIP3   OH230939   1.771   1.046   7.238 -0.0515 -0.6872 -0.3682
 3127TIP3    H130940   1.732   1.125   7.199  0.0631 -1.1414 -1.4143
 3127TIP3    H230941   1.726   0.973   7.195 -2.6733 -1.2451  3.1244
 3128TIP3   OH230942   3.057   7.138   1.878 -0.2251  0.0774 -0.0694
 3128TIP3    H130943   2.976   7.097   1.907 -0.6494  0.7534 -0.2725
 3128TIP3    H230944   3.110   7.147   1.957 -0.6424  0.2816  0.1841
 3129TIP3   OH230945   3.352   1.880   1.722 -0.3192  0.7199 -0.4058
 3129TIP3    H130946   3.359   1.971   1.750  0.6425  0.0140  1.7461
 3129TIP3    H230947   3.409   1.873   1.645  0.2591  1.7376 -0.0693
 3130TIP3   OH230948   2.733   6.716   7.535  0.1918 -0.0774 -0.0851
 3130TIP3    H130949   2.737   6.634   7.584  2.6771  0.1557  0.1551
 3130TIP3    H230950   2.746   6.691   7.444  2.8422  0.2111  0.1887
 3131TIP3   OH230951   1.948   1.248   6.924 -0.0144 -0.0932  0.2892
 3131TIP3    H130952   1.967   1.275   6.835 -0.0454 -1.1937 -0.0569
 3131TIP3    H230953   1.909   1.161   6.915 -1.0770  0.2591  1.2884
 3132TIP3   OH230954   2.848   0.506   0.321  0.5079  0.1780  0.2837
 3132TIP3    H130955   2.787   0.567   0.281 -0.3540 -0.1119  1.1439
 3132TIP3    H230956   2.794   0.433   0.350  1.7830 -1.9572 -2.5235
 3133TIP3   OH230957   3.989   2.374   7.930  0.3491 -0.0491  0.6665
 3133TIP3    H130958   4.046   2.412   7.997  0.8647  1.5855 -0.6841
 3133TIP3    H230959   3.904   2.415   7.944  0.1786 -0.4985  0.9772
 3134TIP3   OH230960   4.238   1.078   0.027 -0.1276 -0.2283 -0.2101
 3134TIP3    H130961   4.154   1.074  -0.019 -0.1328  0.7681 -0.2997
 3134TIP3    H230962   4.216   1.105   0.116  0.2934  2.7108 -0.9161
 3135TIP3   OH230963   3.128   0.377   7.807 -0.1088  0.3475 -0.1950
 3135TIP3    H130964   3.073   0.392   7.884  0.4942 -0.2881  0.3609
 3135TIP3    H230965   3.178   0.458   7.796  0.5861  0.0426  0.7169
 3136TIP3   OH230966   1.224   1.545   7.169  0.2455 -0.4396 -0.6739
 3136TIP3    H130967   1.228   1.488   7.245  0.4322 -0.0656 -0.4026
 3136TIP3    H230968   1.173   1.621   7.198  0.6406 -0.1234 -0.8024
 3137TIP3   OH230969   2.110   6.863   6.854 -0.6207  0.1448 -0.0291
 3137TIP3    H130970   2.026   6.858   6.809  1.1867 -1.0312 -3.5320
 3137TIP3    H230971   2.162   6.924   6.801  1.8311 -1.8359 -0.0002
 3138TIP3   OH230972   3.878   1.488   8.484  0.1822 -0.5456  0.3281
 3138TIP3    H130973   3.941   1.549   8.523  1.3402 -2.1539  1.0018
 3138TIP3    H230974   3.800   1.498   8.538 -0.2195  1.5310 -0.5719
 3139TIP3   OH230975   3.496   0.211   1.346  0.4325  0.5535 -0.1864
 3139TIP3    H130976   3.553   0.158   1.401  0.9329  0.7152 -0.5445
 3139TIP3    H230977   3.439   0.258   1.408 -3.3843 -4.0070  0.0904
 3140TIP3   OH230978   2.895   1.289   0.166  0.4336  0.0458  0.7093
 3140TIP3    H130979   2.980   1.247   0.153 -0.1445 -1.0785  0.4594
 3140TIP3    H230980   2.887   1.297   0.261 -0.9650 -3.7053  0.9998
 3141TIP3   OH230981   3.724   0.094   0.603 -0.4910 -0.3014  0.0974
 3141TIP3    H130982   3.727   0.002   0.577  1.3021 -0.1619 -0.2483
 3141TIP3    H230983   3.632   0.119   0.593 -1.1159 -2.2370  0.8788
 3142TIP3   OH230984   3.297   0.185   7.718  0.3381 -0.3258  0.1268
 3142TIP3    H130985   3.243   0.255   7.754 -0.1100  0.4205 -1.9159
 3142TIP3    H230986   3.265   0.106   7.761 -0.0316  0.5531  1.4920
 3143TIP3   OH230987   3.515   0.958   6.441 -0.0310  0.1326 -0.1046
 3143TIP3    H130988   3.521   1.051   6.420 -0.8697  0.1714 -0.1962
 3143TIP3    H230989   3.422   0.943   6.455  0.1920 -0.5049  0.7735
 3144TIP3   OH230990   3.728   0.791   0.867 -0.5899  0.2438 -0.1376
 3144TIP3    H130991   3.664   0.853   0.901  0.4469  0.6439  1.1158
 3144TIP3    H230992   3.797   0.845   0.829 -0.3645 -0.1712 -0.3242
 3145TIP3   OH230993   2.410   6.033   7.596 -0.4874  0.0342  0.0249
 3145TIP3    H130994   2.467   5.993   7.531 -2.1101 -0.9176 -0.8187
 3145TIP3    H230995   2.453   6.014   7.680  0.7120 -0.2059 -0.6375
 3146TIP3   OH230996   3.880   0.746   7.548  0.3169 -0.0388 -0.1403
 3146TIP3    H130997   3.923   0.691   7.482  1.0894  1.4810 -0.9321
 3146TIP3    H230998   3.926   0.726   7.629 -0.8564 -2.1644  0.0180
 3147TIP3   OH230999   2.897   1.248   8.262  0.2240  0.1842 -0.0798
 3147TIP3    H131000   2.852   1.172   8.301 -0.4815  0.1170 -1.0236
 3147TIP3    H231001   2.827   1.304   8.230  0.7205  1.5633  1.1675
 3148TIP3   OH231002   4.029   0.414   7.200  0.2900 -0.5609  0.0133
 3148TIP3    H131003   3.942   0.373   7.205 -1.2952  2.6842  0.4976
 3148TIP3    H231004   4.044   0.448   7.288  2.2034 -1.3044  0.0001
 3149TIP3   OH231005   4.482   0.358   0.209 -0.2260  0.0164 -0.6888
 3149TIP3    H131006   4.544   0.287   0.226 -2.2775 -2.2277 -2.3144
 3149TIP3    H231007   4.411   0.343   0.271 -0.9512  0.2923 -1.4411
 3150TIP3   OH231008   1.769   0.924   7.954  0.0400 -0.6378 -0.0756
 3150TIP3    H131009   1.754   0.833   7.928  1.5725 -1.1990  0.9612
 3150TIP3    H231010   1.863   0.936   7.947 -0.2783  1.2366 -1.3358
 3151TIP3   OH231011   3.405   1.375   1.685  0.2864 -0.2435 -0.0131
 3151TIP3    H131012   3.349   1.431   1.737 -1.4384 -0.1995 -1.8927
 3151TIP3    H231013   3.352   1.298   1.666  1.2161 -0.6769 -0.9329
 3152TIP3   OH231014   2.371   1.782   1.185  0.1842  0.5115  0.0687
 3152TIP3    H131015   2.309   1.850   1.213  0.5896  1.9454 -2.4141
 3152TIP3    H231016   2.358   1.775   1.091 -1.6198 -4.7003  0.5293
 3153TIP3   OH231017   3.381   0.365   6.531 -0.8057  0.2113  0.4398
 3153TIP3    H131018   3.403   0.438   6.472 -0.8430 -0.0307  0.1236
 3153TIP3    H231019   3.418   0.288   6.488 -1.4455 -0.0660  0.3802
 3154TIP3   OH231020   4.327   0.570   6.227 -0.2046  0.1624 -0.4109
 3154TIP3    H131021   4.415   0.546   6.198 -0.9783  0.1196 -2.7894
 3154TIP3    H231022   4.330   0.666   6.233  0.5742  0.0520  1.5256
 3155TIP3   OH231023   4.633   7.124   8.281 -0.6741  0.0356  0.2786
 3155TIP3    H131024   4.576   7.122   8.357 -0.2323 -3.5436  0.5953
 3155TIP3    H231025   4.702   7.187   8.303 -0.8679 -0.5485  2.5832
 3156TIP3   OH231026   1.607   2.303   7.174  0.1069 -0.0043  0.0792
 3156TIP3    H131027   1.577   2.218   7.206 -2.2045  0.7188 -0.0532
 3156TIP3    H231028   1.581   2.304   7.082  0.2266  0.7911  0.0506
 3157TIP3   OH231029   4.920   2.491   6.874 -0.2578 -0.0633 -0.1060
 3157TIP3    H131030   4.943   2.485   6.967  0.8803  1.8941 -0.2351
 3157TIP3    H231031   4.858   2.563   6.869  0.3396  0.4025 -0.9629
 3158TIP3   OH231032   3.383   6.884   7.635 -0.5959 -0.6710 -0.3429
 3158TIP3    H131033   3.330   6.807   7.617  0.3963 -1.2934 -0.6794
 3158TIP3    H231034   3.324   6.958   7.623 -1.5515 -1.3799 -0.0396
 3159TIP3   OH231035   3.106   0.889   6.144 -0.1798  0.7810  0.2909
 3159TIP3    H131036   3.017   0.894   6.107 -0.1516 -1.6800 -0.2033
 3159TIP3    H231037   3.144   0.974   6.125 -0.9365  0.3935 -3.4743
 3160TIP3   OH231038   5.109   7.258   7.961 -0.0241  0.0554 -0.2508
 3160TIP3    H131039   5.135   7.310   7.885 -1.6107 -1.1886 -1.6716
 3160TIP3    H231040   5.160   7.178   7.954  0.6220  0.3794  0.6118
 3161TIP3   OH231041   3.292   0.945   8.106  0.4951 -0.3274 -0.2450
 3161TIP3    H131042   3.271   0.868   8.054  0.2572  0.3102 -1.0941
 3161TIP3    H231043   3.361   0.990   8.057  2.5410 -1.4035  1.5723
 3162TIP3   OH231044   1.311   6.725   7.714 -0.2443  0.4211 -0.0542
 3162TIP3    H131045   1.305   6.814   7.677 -0.3937 -0.0156 -1.1138
 3162TIP3    H231046   1.289   6.668   7.640  1.9340 -0.5876  0.0479
 3163TIP3   OH231047   4.267   2.867   6.572  0.2163  0.5331 -0.2644
 3163TIP3    H131048   4.290   2.928   6.502  1.1342 -1.4322 -1.7181
 3163TIP3    H231049   4.178   2.837   6.549  0.4659 -0.0102 -0.5443
 3164TIP3   OH231050   4.232   2.350   1.365 -0.1407 -0.6866  0.1603
 3164TIP3    H131051   4.244   2.401   1.444  0.3446 -1.6210  0.7009
 3164TIP3    H231052   4.321   2.336   1.331 -0.5021  2.3461 -2.2770
 3165TIP3   OH231053   3.605   1.815   8.250 -0.1089  0.1383 -0.0513
 3165TIP3    H131054   3.568   1.901   8.230 -1.0289  0.5946  3.3359
 3165TIP3    H231055   3.533   1.767   8.291  0.3994 -2.2911 -1.9021
 3166TIP3   OH231056   5.467   6.590   8.009  0.2494 -0.3029 -0.3173
 3166TIP3    H131057   5.451   6.676   7.970  2.5384  0.5126  0.4051
 3166TIP3    H231058   5.381   6.552   8.021 -0.8532  2.1837 -0.0619
 3167TIP3   OH231059   5.763   5.379   0.506  0.9747 -0.0944 -0.7103
 3167TIP3    H131060   5.820   5.387   0.430  0.5408 -0.3461 -1.0703
 3167TIP3    H231061   5.730   5.290   0.501  0.4080  0.1072 -0.6156
 3168TIP3   OH231062   4.178   2.877   0.992 -0.1189 -0.0450 -0.1576
 3168TIP3    H131063   4.249   2.829   1.035  0.2575  0.8140  0.1939
 3168TIP3    H231064   4.122   2.809   0.955  0.0285 -0.7685  0.9410
 3169TIP3   OH231065   4.664   1.447   1.834 -0.0799 -0.3287 -0.2907
 3169TIP3    H131066   4.596   1.464   1.769  0.5782  2.5873 -0.2933
 3169TIP3    H231067   4.632   1.489   1.914  1.0305 -0.2588  0.1313
 3170TIP3   OH231068   5.155   2.666   6.496  0.4411 -0.4005 -0.3742
 3170TIP3    H131069   5.137   2.578   6.530 -0.4824 -0.4961 -1.1043
 3170TIP3    H231070   5.080   2.687   6.442  1.0789  0.4859 -0.9319
 3171TIP3   OH231071   2.871   6.654   6.902  0.3544  0.2503  0.2968
 3171TIP3    H131072   2.900   6.563   6.905  0.2996  0.2647  1.5740
 3171TIP3    H231073   2.776   6.649   6.890  0.4154  0.1550 -0.1609
 3172TIP3   OH231074   2.486   1.193   8.239 -0.0495  0.5992  0.0738
 3172TIP3    H131075   2.547   1.194   8.313  0.3576 -0.7635 -0.2291
 3172TIP3    H231076   2.399   1.192   8.279  0.1052  2.1072  0.5098
 3173TIP3   OH231077   4.455   6.292   7.380 -0.3559 -0.4421 -0.4298
 3173TIP3    H131078   4.528   6.305   7.440  0.4977 -3.5230 -0.7273
 3173TIP3    H231079   4.405   6.219   7.418 -2.0237  0.1427 -1.4295
 3174TIP3   OH231080   3.075   1.064   7.842  0.8186 -0.0002  0.0040
 3174TIP3    H131081   2.990   1.028   7.865  0.2277  0.9188 -0.7202
 3174TIP3    H231082   3.117   1.081   7.927  0.6965 -1.3836  0.3556
 3175TIP3   OH231083   3.524   6.638   8.296 -0.3088  0.1710  0.4145
 3175TIP3    H131084   3.583   6.680   8.358 -0.3314 -0.1915  0.6832
 3175TIP3    H231085   3.576   6.627   8.217  0.1648 -0.6626  0.8328
 3176TIP3   OH231086   3.789   6.255   0.484  0.0311  0.6143 -0.0474
 3176TIP3    H131087   3.842   6.272   0.561  0.1954 -0.5842  0.1207
 3176TIP3    H231088   3.844   6.282   0.410 -0.2578  2.0740  0.2610
 3177TIP3   OH231089   6.421   0.931   7.412  0.7669 -0.0054  0.0079
 3177TIP3    H131090   6.439   0.915   7.505 -0.8372 -1.7510  0.0658
 3177TIP3    H231091   6.326   0.916   7.404  0.4167  2.7175 -1.4014
 3178TIP3   OH231092   4.667   6.372   7.549  0.1888 -0.0620 -0.2405
 3178TIP3    H131093   4.734   6.440   7.562  0.2253 -0.2648  0.6332
 3178TIP3    H231094   4.715   6.290   7.553 -0.1662 -0.2229  0.7622
 3179TIP3   OH231095   5.018   0.516   7.609 -0.0103 -0.3121  0.1809
 3179TIP3    H131096   4.923   0.501   7.606 -0.3913  2.1065 -0.8799
 3179TIP3    H231097   5.055   0.449   7.552 -1.2805  0.1462 -1.2023
 3180TIP3   OH231098   2.483   0.955   7.895 -0.3959 -0.3695 -0.8798
 3180TIP3    H131099   2.514   1.045   7.889 -3.0581  0.5530 -1.2753
 3180TIP3    H231100   2.517   0.924   7.979  0.9507  0.8248 -0.9662
 3181TIP3   OH231101   3.130   3.685   7.917 -0.2456 -0.3330  0.2136
 3181TIP3    H131102   3.114   3.591   7.910  0.4429 -0.3356 -1.5856
 3181TIP3    H231103   3.073   3.725   7.851 -0.0360  0.4624  0.4965
 3182TIP3   OH231104   7.048   1.185   1.440 -0.2555 -0.7867  0.1462
 3182TIP3    H131105   7.024   1.123   1.510 -0.5721 -0.3812  0.4012
 3182TIP3    H231106   7.137   1.161   1.416 -0.0606 -0.7809  0.8573
 3183TIP3   OH231107   4.653   6.746   0.769  0.6245 -0.3501  0.2491
 3183TIP3    H131108   4.662   6.774   0.678  1.6849  0.3788  0.5692
 3183TIP3    H231109   4.704   6.665   0.775  0.5256 -0.4162  0.1828
 3184TIP3   OH231110   6.625   0.592   1.927  0.6834  0.0782  0.1477
 3184TIP3    H131111   6.652   0.615   1.838 -1.7820  1.5851 -0.2667
 3184TIP3    H231112   6.690   0.528   1.957  0.8653 -1.3587 -3.1657
 3185TIP3   OH231113   4.240   6.583   7.958 -0.4608  0.3139 -0.1839
 3185TIP3    H131114   4.276   6.669   7.937 -0.8030 -0.0627 -2.4140
 3185TIP3    H231115   4.172   6.568   7.892  1.2476 -2.7072 -1.3764
 3186TIP3   OH231116   4.996   0.157   1.023  1.3270  0.3859 -0.0399
 3186TIP3    H131117   4.945   0.145   1.103 -0.4278  0.0524 -1.1831
 3186TIP3    H231118   5.027   0.069   1.000  0.8811  0.3054 -0.3388
 3187TIP3   OH231119   2.550   6.383   7.381  0.8235 -0.1447  0.0019
 3187TIP3    H131120   2.500   6.317   7.335  1.1459  0.0995 -0.7011
 3187TIP3    H231121   2.487   6.453   7.399  0.4991 -0.6150  0.6921
 3188TIP3   OH231122   4.495   1.446   6.968 -0.2708 -0.1140 -0.3537
 3188TIP3    H131123   4.557   1.518   6.955 -0.8171  0.3946 -0.1826
 3188TIP3    H231124   4.503   1.425   7.061 -1.0751  0.6252 -0.1124
 3189TIP3   OH231125   3.474   7.185   0.154  0.2484 -0.3333 -0.1203
 3189TIP3    H131126   3.430   7.197   0.070  0.7058 -0.3998 -0.3679
 3189TIP3    H231127   3.412   7.133   0.206  0.0044 -0.3677 -0.4436
 3190TIP3   OH231128   6.285   0.258   2.166 -0.1949 -0.4292 -0.3880
 3190TIP3    H131129   6.257   0.169   2.189  0.5950 -0.4170  0.6627
 3190TIP3    H231130   6.323   0.249   2.078  0.1524 -1.1951 -0.1667
 3191TIP3   OH231131   6.117   0.717   0.238  0.4324  0.3439  0.0954
 3191TIP3    H131132   6.048   0.656   0.213  0.2341  0.1362  1.1326
 3191TIP3    H231133   6.087   0.802   0.204  0.6010 -0.0878 -1.1416
 3192TIP3   OH231134   4.560   0.448   1.069 -0.2255  0.7214  0.8514
 3192TIP3    H131135   4.639   0.433   1.120 -0.6599 -2.3210  0.6755
 3192TIP3    H231136   4.494   0.474   1.133 -0.3427 -1.5062  1.6685
 3193TIP3   OH231137   4.144   1.563   0.997 -0.0791 -0.5091 -0.5345
 3193TIP3    H131138   4.206   1.490   0.992 -1.4984 -1.7683 -0.0778
 3193TIP3    H231139   4.091   1.554   0.918 -0.4075 -0.1095 -0.3608
 3194TIP3   OH231140   5.143   1.188   1.372  0.1938 -0.0634  0.7303
 3194TIP3    H131141   5.072   1.152   1.318 -0.2595  1.6465  0.1553
 3194TIP3    H231142   5.127   1.152   1.459  0.5393 -2.3099 -0.0769
 3195TIP3   OH231143   5.258   5.965   7.360 -0.3553  0.0825 -1.1913
 3195TIP3    H131144   5.219   5.896   7.306  2.0866 -0.6894 -2.0467
 3195TIP3    H231145   5.314   6.014   7.300  1.7292 -0.2397  0.4381
 3196TIP3   OH231146   4.268   0.962   8.158  0.1072 -0.0626 -0.3483
 3196TIP3    H131147   4.178   0.988   8.136 -0.1845  0.3030  1.2379
 3196TIP3    H231148   4.319   0.987   8.081 -0.8763  1.2696 -0.5888
 3197TIP3   OH231149   4.639   1.789   1.374 -0.4103 -0.2272  0.3086
 3197TIP3    H131150   4.732   1.809   1.362 -0.0352 -1.8865  0.3892
 3197TIP3    H231151   4.593   1.854   1.320  0.7806  0.6658  0.3583
 3198TIP3   OH231152   4.681   6.860   0.184  0.2030 -0.2674 -0.2152
 3198TIP3    H131153   4.776   6.869   0.173  0.2633 -0.5282  0.0776
 3198TIP3    H231154   4.666   6.884   0.275  0.0675 -0.8269 -0.0876
 3199TIP3   OH231155   4.559   0.801   7.089 -0.4172 -0.1722 -0.0935
 3199TIP3    H131156   4.620   0.826   7.020  0.0839 -0.2113  0.3348
 3199TIP3    H231157   4.602   0.729   7.135 -0.9784 -0.4960 -0.0660
 3200TIP3   OH231158   4.777   5.809   0.675  0.0916 -0.2394  0.7111
 3200TIP3    H131159   4.695   5.767   0.648 -0.7701  0.6093  1.9526
 3200TIP3    H231160   4.800   5.867   0.602  0.8407 -2.1832 -0.6449
 3201TIP3   OH231161   5.160   6.753   8.497  0.3343  0.3368 -0.1496
 3201TIP3    H131162   5.200   6.668   8.511  0.7944  0.7399  1.0514
 3201TIP3    H231163   5.168   6.768   8.403  3.1114  0.4583  0.0587
 3202TIP3   OH231164   5.337   5.757   1.399 -0.6898 -0.0207  0.0391
 3202TIP3    H131165   5.407   5.739   1.336 -1.8751 -2.8381 -0.5306
 3202TIP3    H231166   5.271   5.805   1.348 -1.7833 -2.5562 -1.0271
 3203TIP3   OH231167   3.806   0.507   0.805 -0.3658  0.2296  0.2493
 3203TIP3    H131168   3.894   0.516   0.842 -0.2403 -2.7655  0.8567
 3203TIP3    H231169   3.761   0.588   0.830  2.0401  1.5767  0.3861
 3204TIP3   OH231170   4.397   0.043   7.372  0.3925  0.0763  0.2589
 3204TIP3    H131171   4.309   0.017   7.344  0.7522  0.8187 -1.6073
 3204TIP3    H231172   4.437   0.080   7.293  2.5675 -0.7499  0.9431
 3205TIP3   OH231173   4.282   2.051   6.500 -0.0846  0.1342  0.2702
 3205TIP3    H131174   4.298   2.009   6.416 -1.2886 -1.9378  1.0361
 3205TIP3    H231175   4.211   2.113   6.483 -0.6379 -0.6067 -0.1527
 3206TIP3   OH231176   3.949   7.274   7.596 -0.5598 -0.0636  0.0605
 3206TIP3    H131177   3.965   7.185   7.563 -1.9144 -1.5628  3.2255
 3206TIP3    H231178   3.879   7.263   7.660  0.0273  3.1516  1.3391
 3207TIP3   OH231179   0.317   1.899   7.616  0.0025 -0.2866  0.4438
 3207TIP3    H131180   0.279   1.821   7.658 -0.5838 -0.4623 -0.3973
 3207TIP3    H231181   0.397   1.916   7.665 -0.7128 -0.4444  1.6780
 3208TIP3   OH231182   0.728   0.280   7.881  0.7170  0.0236 -0.0173
 3208TIP3    H131183   0.643   0.239   7.863 -0.3020  2.5343 -1.0614
 3208TIP3    H231184   0.745   0.260   7.973 -0.3378 -1.6478 -0.1614
 3209TIP3   OH231185   1.615   3.039   7.265  0.4652 -0.0630  0.6450
 3209TIP3    H131186   1.701   3.079   7.273  0.6465 -0.7131  2.1132
 3209TIP3    H231187   1.559   3.107   7.228  1.9817 -0.1586 -1.9730
 3210TIP3   OH231188   3.879   0.915   7.823 -0.2335 -0.1402  0.2788
 3210TIP3    H131189   3.815   0.941   7.756  0.2700  0.6138  0.0857
 3210TIP3    H231190   3.853   0.966   7.901  0.2513  0.3189  0.1417
 3211TIP3   OH231191   1.516   7.010   7.967 -0.0226 -0.5041  0.5735
 3211TIP3    H131192   1.427   7.009   7.933 -0.3440  1.0440  1.2908
 3211TIP3    H231193   1.562   7.073   7.911 -0.0913  0.7010  1.8407
 3212TIP3   OH231194   0.016   5.393   6.532 -0.0984  0.5871  0.1439
 3212TIP3    H131195  -0.056   5.370   6.473  0.1500  0.4526 -0.1064
 3212TIP3    H231196  -0.027   5.409   6.617 -0.4581  0.8178 -0.0788
 3213TIP3   OH231197   0.366   0.460   1.393 -0.4424 -0.1930  0.1035
 3213TIP3    H131198   0.435   0.400   1.421 -1.5013 -2.2885 -1.6316
 3213TIP3    H231199   0.404   0.508   1.320 -0.5552 -0.8050 -0.3608
 3214TIP3   OH231200   4.448   0.978   7.950  0.2513 -0.4340 -0.3828
 3214TIP3    H131201   4.418   1.028   7.874  1.3909 -0.3660 -0.8041
 3214TIP3    H231202   4.504   0.909   7.913  1.7776  0.3200  0.4637
 3215TIP3   OH231203   0.322   0.187   6.760 -0.6658 -0.1451 -0.0890
 3215TIP3    H131204   0.282   0.198   6.846 -1.2059 -0.6362 -0.2758
 3215TIP3    H231205   0.260   0.227   6.699 -0.3366  0.1059 -0.2600
 3216TIP3   OH231206   1.903   1.298   8.173 -0.5187 -0.1305 -0.0521
 3216TIP3    H131207   1.912   1.379   8.123  2.8570  0.1288  0.8142
 3216TIP3    H231208   1.811   1.297   8.201 -1.2829  2.0280 -2.2976
 3217TIP3   OH231209   0.425   0.705   8.322 -0.6344  0.5090  0.1926
 3217TIP3    H131210   0.389   0.631   8.371  0.7786 -1.1014 -1.1346
 3217TIP3    H231211   0.415   0.780   8.381 -1.8373 -0.7818  1.6651
 3218TIP3   OH231212   5.836   0.302   7.473 -0.8843  0.8440 -0.7463
 3218TIP3    H131213   5.887   0.313   7.393 -1.1754  0.7543 -0.9417
 3218TIP3    H231214   5.872   0.368   7.533  1.1910 -0.8585 -0.0192
 3219TIP3   OH231215   1.785   0.198   6.848  0.1852  0.4642  0.2098
 3219TIP3    H131216   1.744   0.190   6.762  1.7878 -0.1319 -0.5116
 3219TIP3    H231217   1.766   0.114   6.891 -0.3707  0.6554  0.3497
 3220TIP3   OH231218   6.183   7.263   8.315 -0.2389 -0.2352 -0.1011
 3220TIP3    H131219   6.186   7.354   8.345  0.7804  0.1218 -1.2526
 3220TIP3    H231220   6.223   7.214   8.386 -0.0394  0.3105  0.1701
 3221TIP3   OH231221   4.219   0.775   7.897 -0.0235  0.4035 -0.5320
 3221TIP3    H131222   4.266   0.809   7.822  1.6438  0.7953  0.6700
 3221TIP3    H231223   4.140   0.735   7.860  0.4576  1.1611 -2.4054
 3222TIP3   OH231224   5.866   2.137   1.269 -0.0482 -0.2828 -0.4846
 3222TIP3    H131225   5.844   2.066   1.330 -0.5369 -0.1161 -0.4594
 3222TIP3    H231226   5.947   2.109   1.228 -0.4048 -1.0142 -0.7119
 3223TIP3   OH231227   0.310   0.137   1.041 -0.4376  0.5287  0.2196
 3223TIP3    H131228   0.267   0.184   1.113  1.1528  0.6590  1.1029
 3223TIP3    H231229   0.391   0.185   1.026  0.7395 -1.3305  0.4675
 3224TIP3   OH231230   5.174   1.782   1.707 -0.4629 -0.0533  0.0158
 3224TIP3    H131231   5.155   1.868   1.670  0.1298 -0.2962 -0.8649
 3224TIP3    H231232   5.096   1.730   1.686  0.2122 -0.4241 -1.6490
 3225TIP3   OH231233   6.269   0.346   1.415 -0.1434 -0.2105 -0.8049
 3225TIP3    H131234   6.340   0.332   1.353 -0.0152  0.7113 -0.8610
 3225TIP3    H231235   6.240   0.257   1.437  0.2899 -0.5640 -1.6186
 3226TIP3   OH231236   0.076   3.172   7.741 -0.4962  0.0622  0.3742
 3226TIP3    H131237   0.059   3.091   7.693 -1.8700  0.9342 -0.6771
 3226TIP3    H231238   0.055   3.242   7.678 -1.6180  1.2252  1.9906
 3227TIP3   OH231239   0.866   1.249   7.872  0.2593 -0.3041  0.4339
 3227TIP3    H131240   0.772   1.264   7.881  0.2626 -0.8421  1.5161
 3227TIP3    H231241   0.873   1.155   7.854  0.5116  0.0063 -1.1196
 3228TIP3   OH231242   0.995   2.569   6.973  0.4564 -0.0899 -0.2248
 3228TIP3    H131243   0.927   2.553   7.039  1.0111 -2.0278 -0.0800
 3228TIP3    H231244   0.978   2.657   6.941 -0.9511  0.1708  1.1954
 3229TIP3   OH231245   5.631   1.115   6.646 -0.6412 -0.3167 -0.2353
 3229TIP3    H131246   5.620   1.200   6.688 -1.6744 -1.6570  2.3731
 3229TIP3    H231247   5.721   1.090   6.667 -0.7555 -0.4260  0.1340
 3230TIP3   OH231248   7.205   7.038   1.192  0.3831  0.1333  0.0812
 3230TIP3    H131249   7.218   6.995   1.276 -0.0791  2.4213  1.3741
 3230TIP3    H231250   7.275   7.103   1.187  0.4634 -0.0566 -1.3438
 3231TIP3   OH231251   1.964   2.821   7.823 -0.0397  0.4961 -0.2566
 3231TIP3    H131252   1.922   2.750   7.774  1.0341 -0.8776  0.7811
 3231TIP3    H231253   1.914   2.826   7.905  1.0926 -0.3627  0.4876
 3232TIP3   OH231254   0.278   6.737   8.124 -0.3136 -0.1724 -0.5654
 3232TIP3    H131255   0.194   6.691   8.120 -1.3442  1.3243  2.1686
 3232TIP3    H231256   0.340   6.670   8.154 -0.3082 -1.4627 -3.2478
 3233TIP3   OH231257   0.487   0.930   7.843  0.1898 -0.0910 -0.2183
 3233TIP3    H131258   0.393   0.914   7.853  0.3680 -0.4884  0.9298
 3233TIP3    H231259   0.506   1.001   7.905  1.0481 -1.5157  1.1690
 3234TIP3   OH231260   6.474   1.263   7.374 -0.7706  0.3636 -0.4470
 3234TIP3    H131261   6.472   1.168   7.361  0.7607  0.2607 -0.0271
 3234TIP3    H231262   6.538   1.276   7.443 -2.3076  1.5813  0.7751
 3235TIP3   OH231263   5.799   0.088   7.219  0.3086  0.3913  0.2199
 3235TIP3    H131264   5.808  -0.004   7.194  0.1560  0.3555  0.2974
 3235TIP3    H231265   5.719   0.091   7.271 -0.9577  0.9632 -1.6959
 3236TIP3   OH231266   0.125   2.268   8.129  0.5261 -0.4001 -0.0092
 3236TIP3    H131267   0.188   2.216   8.078  2.6501  2.2373 -0.2029
 3236TIP3    H231268   0.048   2.275   8.073  1.5720 -0.3549 -1.4653
 3237TIP3   OH231269   4.126   5.504   0.432  0.6447 -0.3767  0.1034
 3237TIP3    H131270   4.104   5.570   0.367  0.0255 -2.8043 -2.2452
 3237TIP3    H231271   4.220   5.512   0.445  0.4410  1.5442  0.5677
 3238TIP3   OH231272   6.065   5.596   6.401 -0.1768 -0.6163 -0.3885
 3238TIP3    H131273   6.095   5.682   6.432  0.2543 -0.9678  0.1619
 3238TIP3    H231274   6.129   5.572   6.333  0.5734 -1.1777  0.4982
 3239TIP3   OH231275   1.157   1.628   7.714  0.0107 -0.1680 -0.3151
 3239TIP3    H131276   1.102   1.595   7.785  1.1022 -1.3651 -0.0150
 3239TIP3    H231277   1.233   1.666   7.757  0.7469 -1.0305 -0.8397
 3240TIP3   OH231278   4.574   1.748   7.166  0.4381  0.0253 -0.2110
 3240TIP3    H131279   4.585   1.676   7.229  1.1541 -1.6068 -2.1387
 3240TIP3    H231280   4.608   1.713   7.084  0.2138  2.3812 -1.3470
 3241TIP3   OH231281   0.051   2.553   6.652  0.3000  0.6417 -0.0952
 3241TIP3    H131282   0.145   2.544   6.667  0.3944  0.7726 -0.5979
 3241TIP3    H231283   0.041   2.639   6.610  0.0222  0.3656 -0.6000
 3242TIP3   OH231284   1.201   2.441   0.987  0.0772 -0.0840  0.1308
 3242TIP3    H131285   1.224   2.355   0.952  0.3553 -0.6025  1.5648
 3242TIP3    H231286   1.274   2.497   0.960 -0.0669 -0.2996 -0.7408
 3243TIP3   OH231287   0.538   1.401   0.304  0.2753 -0.6102 -0.6758
 3243TIP3    H131288   0.532   1.408   0.400 -0.2991 -1.4748 -0.6378
 3243TIP3    H231289   0.579   1.482   0.276 -3.0831  1.4442 -0.0137
 3244TIP3   OH231290   2.170   3.657   6.846 -0.0235  0.0324  0.2132
 3244TIP3    H131291   2.227   3.622   6.777 -1.0069  2.4054 -1.8928
 3244TIP3    H231292   2.230   3.688   6.913  0.9268 -3.2164  0.9410
 3245TIP3   OH231293   0.650   4.790   7.896 -0.1115 -0.2433 -0.5146
 3245TIP3    H131294   0.651   4.773   7.802 -1.1656  1.0860 -0.7837
 3245TIP3    H231295   0.574   4.742   7.929 -0.4498  0.2597 -0.5493
 3246TIP3   OH231296   2.092   5.752   0.857  0.0256 -0.1431 -0.3145
 3246TIP3    H131297   2.096   5.678   0.796  0.8669 -1.1505  0.9216
 3246TIP3    H231298   2.003   5.786   0.848 -1.3931 -3.2362  1.3166
 3247TIP3   OH231299   0.536   3.388   8.098 -0.4157 -0.3703 -0.2750
 3247TIP3    H131300   0.470   3.406   8.165  0.3283  0.1866  0.3246
 3247TIP3    H231301   0.496   3.416   8.016  0.3041  3.1997  0.4806
 3248TIP3   OH231302   2.159   1.497   1.125  0.4427  0.3459 -0.6946
 3248TIP3    H131303   2.192   1.564   1.065  1.3262  1.4019  0.9332
 3248TIP3    H231304   2.238   1.456   1.161 -0.0460  0.9738  1.1328
 3249TIP3   OH231305   2.008   3.688   1.049 -0.5039 -0.6282 -0.5889
 3249TIP3    H131306   2.087   3.643   1.018  1.5985  2.2585  0.3357
 3249TIP3    H231307   1.965   3.623   1.106  2.8804 -1.2625  1.4163
 3250TIP3   OH231308   1.859   3.896   6.645 -0.6260 -0.2761 -0.4895
 3250TIP3    H131309   1.859   3.901   6.550 -1.0398 -1.2911 -0.5495
 3250TIP3    H231310   1.773   3.860   6.667 -0.4912 -0.1563  0.2619
 3251TIP3   OH231311   2.335   0.347   8.259  0.3709 -0.1879 -0.0565
 3251TIP3    H131312   2.242   0.339   8.238 -0.0066  0.0644  1.4373
 3251TIP3    H231313   2.364   0.423   8.209  0.0186 -0.8928 -1.3291
 3252TIP3   OH231314   0.070   2.486   1.245  0.0351 -0.6268  0.1036
 3252TIP3    H131315   0.060   2.390   1.246  0.4386 -0.6729  1.3007
 3252TIP3    H231316   0.074   2.510   1.338  1.4406  0.4014 -0.2115
 3253TIP3   OH231317   0.675   2.732   1.370  0.7348 -0.1826  0.4702
 3253TIP3    H131318   0.694   2.781   1.450  1.1582  0.3081  0.0760
 3253TIP3    H231319   0.749   2.752   1.312  0.7865 -1.0925  0.2149
 3254TIP3   OH231320   3.450   2.352   8.477 -0.2122  0.2311 -0.6092
 3254TIP3    H131321   3.398   2.344   8.557  0.0647 -0.0427 -0.4525
 3254TIP3    H231322   3.512   2.422   8.496 -1.6264  1.7414 -1.4183
 3255TIP3   OH231323   0.820   2.767   7.645 -0.2935  0.4828 -0.6420
 3255TIP3    H131324   0.878   2.723   7.707  0.0214  0.9687 -0.5912
 3255TIP3    H231325   0.875   2.783   7.568 -0.7842 -0.4596 -1.1981
 3256TIP3   OH231326   3.350   3.986   1.075 -0.2698  0.1916 -0.1088
 3256TIP3    H131327   3.317   4.076   1.065  2.1549  1.2096  0.5571
 3256TIP3    H231328   3.444   3.994   1.057  0.0550 -2.1250  0.5166
 3257TIP3   OH231329   1.495   4.022   1.710  0.3568  0.7063 -0.1511
 3257TIP3    H131330   1.490   3.930   1.732 -0.4901  0.2545 -2.0816
 3257TIP3    H231331   1.588   4.038   1.695  0.6623  0.5028  1.5240
 3258TIP3   OH231332   7.059   5.086   0.447 -0.8475 -0.1275 -0.4370
 3258TIP3    H131333   6.998   5.151   0.412 -0.4378 -0.2920 -1.4706
 3258TIP3    H231334   7.121   5.070   0.376 -1.3233 -2.1168 -0.4440
 3259TIP3   OH231335   1.348   4.798   1.106 -0.4213  0.1709  0.1852
 3259TIP3    H131336   1.376   4.883   1.073  0.8422 -0.2815  0.0754
 3259TIP3    H231337   1.416   4.737   1.078 -0.7918 -0.7030  1.1418
 3260TIP3   OH231338   7.168   4.592   0.785  0.4721 -0.9166  0.0998
 3260TIP3    H131339   7.263   4.598   0.799  0.3060  0.7364  0.5960
 3260TIP3    H231340   7.154   4.640   0.703  0.0282 -0.8992  0.1884
 3261TIP3   OH231341   0.571   3.492   7.454 -0.1620  0.3737  0.3670
 3261TIP3    H131342   0.608   3.573   7.421 -0.6089  0.8302  0.9585
 3261TIP3    H231343   0.637   3.457   7.514  1.5816 -1.5745 -2.6035
 3262TIP3   OH231344   0.246   5.711   7.995 -0.5263  0.1658  0.0743
 3262TIP3    H131345   0.197   5.677   8.070  2.4194 -0.6363  1.7269
 3262TIP3    H231346   0.213   5.801   7.984 -2.8785 -0.5888  0.6063
 3263TIP3   OH231347   1.829   1.503   0.969 -0.0594 -0.0725 -0.1656
 3263TIP3    H131348   1.780   1.421   0.981 -1.7297  0.6750 -1.7230
 3263TIP3    H231349   1.876   1.491   0.887  0.7045  0.0556  0.2458
 3264TIP3   OH231350   0.887   3.192   1.008 -0.3069  0.7568 -0.0802
 3264TIP3    H131351   0.929   3.110   0.985 -0.8585  0.6909 -0.8679
 3264TIP3    H231352   0.943   3.230   1.077 -0.0262 -0.2404  0.2405
 3265TIP3   OH231353   1.276   7.163   0.671 -0.5631  0.7229 -0.3228
 3265TIP3    H131354   1.289   7.068   0.668 -0.9132  0.6445  0.5881
 3265TIP3    H231355   1.298   7.193   0.583 -1.4128 -0.3329 -0.9049
 3266TIP3   OH231356   1.869   6.775   1.719 -0.4336 -0.4089 -1.0718
 3266TIP3    H131357   1.825   6.850   1.677  1.2796  0.9533 -0.5167
 3266TIP3    H231358   1.828   6.769   1.805 -1.8490 -1.2727 -1.8060
 3267TIP3   OH231359   1.266   2.184   8.006 -0.1724 -0.5047 -0.7181
 3267TIP3    H131360   1.352   2.189   8.048 -0.9630 -0.2381  0.8744
 3267TIP3    H231361   1.209   2.143   8.071 -1.7926  1.3798 -0.8991
 3268TIP3   OH231362   1.864   2.900   0.675  0.0280 -0.1300  0.0658
 3268TIP3    H131363   1.793   2.868   0.619 -0.9025  0.1451  1.0711
 3268TIP3    H231364   1.940   2.849   0.648 -1.1749 -2.4577  0.8711
 3269TIP3   OH231365   2.216   1.325   8.176  0.7371 -0.4108 -0.0122
 3269TIP3    H131366   2.121   1.329   8.164  0.9203 -1.6383 -2.1018
 3269TIP3    H231367   2.237   1.232   8.167  2.0979 -0.1799  0.7233
 3270TIP3   OH231368   1.398   2.537   7.301 -0.3021  0.1173 -0.1513
 3270TIP3    H131369   1.309   2.517   7.274  0.7830 -2.6038 -1.8481
 3270TIP3    H231370   1.453   2.479   7.249  2.4096  0.9853  1.6403
 3271TIP3   OH231371   1.279   1.712   0.537 -0.0368  0.3404 -0.4052
 3271TIP3    H131372   1.275   1.677   0.626 -0.7898 -0.8223 -0.8832
 3271TIP3    H231373   1.215   1.783   0.536  2.6425  2.9023  1.0320
 3272TIP3   OH231374   7.221   3.134   1.040  0.3655 -0.1732 -0.2427
 3272TIP3    H131375   7.133   3.141   1.004  0.1834  0.7540  0.3816
 3272TIP3    H231376   7.232   3.041   1.060 -0.6746 -0.1996  0.2108
 3273TIP3   OH231377   0.900   3.508   1.317 -0.3209 -0.0074  0.0504
 3273TIP3    H131378   0.808   3.492   1.295 -0.4236 -0.3973  0.7652
 3273TIP3    H231379   0.906   3.603   1.328  0.0266  0.3839 -3.0138
 3274TIP3   OH231380   1.171   3.611   6.588 -0.0600  0.0741  0.2880
 3274TIP3    H131381   1.178   3.689   6.643  0.2083  0.6222 -0.5141
 3274TIP3    H231382   1.151   3.540   6.650  0.4188  0.6446  1.1104
 3275TIP3   OH231383   2.902   3.194   8.268 -0.1442  0.1531 -0.2362
 3275TIP3    H131384   2.995   3.214   8.256 -0.1303  0.7046  0.7423
 3275TIP3    H231385   2.901   3.126   8.335 -0.4387 -0.0552 -0.4508
 3276TIP3   OH231386   1.786   3.182   2.405  0.3526  0.6045  0.5095
 3276TIP3    H131387   1.698   3.217   2.412 -0.8724 -2.0821 -0.7304
 3276TIP3    H231388   1.835   3.249   2.357 -1.6642  1.0118 -1.0462
 3277TIP3   OH231389   0.760   1.766   7.992 -0.5038  0.1531  0.4001
 3277TIP3    H131390   0.734   1.715   7.916 -1.2646 -0.7421  1.2512
 3277TIP3    H231391   0.787   1.851   7.956 -3.9181  0.8695 -0.5868
 3278TIP3   OH231392   1.564   0.414   0.102  0.0413  0.4441 -0.1704
 3278TIP3    H131393   1.512   0.433   0.180  2.7308  2.2397  1.2811
 3278TIP3    H231394   1.548   0.488   0.043  0.9600  1.0698  0.3351
 3279TIP3   OH231395   7.127   1.840   0.316 -0.2244  0.1745  0.1422
 3279TIP3    H131396   7.138   1.745   0.311  1.0716  0.2763  1.0465
 3279TIP3    H231397   7.135   1.869   0.225 -1.9717 -0.7123 -0.3195
 3280TIP3   OH231398   4.507   0.538   1.738  0.0635  0.0159  0.3291
 3280TIP3    H131399   4.527   0.631   1.736 -1.0764  0.4636  4.6537
 3280TIP3    H231400   4.593   0.495   1.736  0.6725  1.2271  0.2495
 3281TIP3   OH231401   1.299   4.419   0.387  0.2647  0.5421  0.1924
 3281TIP3    H131402   1.376   4.429   0.332 -0.9323  1.9596 -1.2695
 3281TIP3    H231403   1.319   4.471   0.465  0.5638  1.4109 -0.4463
 3282TIP3   OH231404   6.615   5.155   1.272  0.1828 -0.3050 -0.0621
 3282TIP3    H131405   6.613   5.212   1.195 -1.7797  0.1989  0.3195
 3282TIP3    H231406   6.663   5.077   1.244  3.2927  1.6674 -0.4766
 3283TIP3   OH231407   1.986   2.319   7.715 -0.0580 -0.0338 -0.5566
 3283TIP3    H131408   1.925   2.254   7.683 -0.8658 -0.3885  1.5840
 3283TIP3    H231409   1.933   2.398   7.728  0.4969  0.4536 -1.2024
 3284TIP3   OH231410   3.208   2.277   6.725  0.4184 -0.0341 -0.4058
 3284TIP3    H131411   3.181   2.366   6.703 -0.1154  0.2552  1.4013
 3284TIP3    H231412   3.166   2.259   6.809  1.6943 -1.4710 -0.0610
 3285TIP3   OH231413   3.403   3.192   1.564 -0.1117  0.2236  0.4521
 3285TIP3    H131414   3.345   3.215   1.636 -0.0896  0.4878  0.3890
 3285TIP3    H231415   3.490   3.221   1.594 -0.2625  1.3206 -0.1101
 3286TIP3   OH231416   2.537   2.716   0.469 -0.6257 -0.5895 -0.3883
 3286TIP3    H131417   2.576   2.761   0.394 -0.4140 -0.2371 -0.0721
 3286TIP3    H231418   2.447   2.699   0.443  0.1167 -2.7681 -1.7366
 3287TIP3   OH231419   2.078   3.407   1.413  0.3799  0.1955  0.2305
 3287TIP3    H131420   2.053   3.421   1.505 -0.8361 -1.2027  0.1313
 3287TIP3    H231421   2.152   3.466   1.399  0.0949  0.9760  1.8967
 3288TIP3   OH231422   2.685   2.186   8.091  0.1471 -0.0819 -0.2224
 3288TIP3    H131423   2.730   2.159   8.011 -0.2438  0.9659 -0.8027
 3288TIP3    H231424   2.633   2.262   8.065 -1.0701 -0.5774  0.7012
 3289TIP3   OH231425   3.083   3.535   0.077 -0.2856  0.3244 -0.7207
 3289TIP3    H131426   3.085   3.488  -0.006 -1.3739 -0.4083 -0.3373
 3289TIP3    H231427   3.150   3.603   0.068  0.7858 -0.8330 -1.5507
 3290TIP3   OH231428   3.559   2.436   7.214 -0.0477 -0.1985 -0.2582
 3290TIP3    H131429   3.560   2.502   7.283 -0.0898  0.4183 -0.8424
 3290TIP3    H231430   3.471   2.441   7.176  0.3257  0.2324 -1.0812
 3291TIP3   OH231431   2.163   1.773   0.676  0.0072  0.1958 -0.4207
 3291TIP3    H131432   2.176   1.868   0.674 -1.2079  0.3511 -1.8093
 3291TIP3    H231433   2.069   1.761   0.669  0.0501 -1.0939  1.0195
 3292TIP3   OH231434   3.611   1.999   7.101  0.5487  0.2143  0.5822
 3292TIP3    H131435   3.658   2.014   7.018  0.8149  0.0413  0.7002
 3292TIP3    H231436   3.664   1.934   7.147  0.3775  0.2781  0.8705
 3293TIP3   OH231437   3.641   3.823   1.015 -0.5207 -0.3239  0.1310
 3293TIP3    H131438   3.679   3.859   1.094 -1.7866  0.7868  0.2514
 3293TIP3    H231439   3.715   3.784   0.968  0.2035 -1.1326  1.9182
 3294TIP3   OH231440   4.129   0.842   1.463  0.8214 -0.3835  0.0359
 3294TIP3    H131441   4.163   0.903   1.529  0.7962  0.1199 -0.4112
 3294TIP3    H231442   4.185   0.856   1.387  1.3658 -1.5535  0.2224
 3295TIP3   OH231443   2.059   3.271   8.067 -0.1103 -0.5967 -0.1918
 3295TIP3    H131444   2.141   3.287   8.020  0.1343  0.5180  0.5936
 3295TIP3    H231445   2.015   3.356   8.067 -1.9320 -1.4884 -1.8147
 3296TIP3   OH231446   2.789   2.880   7.671 -0.0477 -0.1690 -0.4039
 3296TIP3    H131447   2.698   2.911   7.671 -1.0706 -3.0557 -1.2109
 3296TIP3    H231448   2.821   2.900   7.583 -0.1612  0.0941 -0.3850
 3297TIP3   OH231449   0.995   0.426   1.780  0.0185 -0.2843 -0.2350
 3297TIP3    H131450   0.981   0.346   1.830  0.1747 -0.7708 -0.9723
 3297TIP3    H231451   0.910   0.445   1.741 -0.0621  0.0078  0.0770
 3298TIP3   OH231452   3.849   2.217   1.085 -0.0112 -0.3692  0.1351
 3298TIP3    H131453   3.888   2.207   1.172 -0.5139 -1.5542  0.2459
 3298TIP3    H231454   3.917   2.185   1.025  0.6588  1.2345  0.0078
 3299TIP3   OH231455   4.110   1.626   7.694 -0.0557  0.0480 -0.4712
 3299TIP3    H131456   4.121   1.716   7.724 -0.2012  0.4375 -1.5445
 3299TIP3    H231457   4.131   1.572   7.770 -3.6252  1.0236  1.3021
 3300TIP3   OH231458   1.424   2.844   1.401 -0.1328 -0.1316 -0.1632
 3300TIP3    H131459   1.371   2.765   1.414 -1.2846  0.4288 -1.3279
 3300TIP3    H231460   1.467   2.858   1.485 -1.1479 -1.1112  0.5400
 3301TIP3   OH231461   0.514   3.060   0.997 -0.0386 -0.1270 -0.6196
 3301TIP3    H131462   0.449   2.998   0.963 -0.9353  0.7351 -0.5048
 3301TIP3    H231463   0.464   3.116   1.057  1.1507 -0.4898  0.7484
 3302TIP3   OH231464   1.517   0.716   1.953 -0.2054  0.2939  0.2010
 3302TIP3    H131465   1.468   0.672   2.023  0.5038 -0.0140  0.5143
 3302TIP3    H231466   1.534   0.803   1.988 -0.1444  0.2531  0.2732
 3303TIP3   OH231467   1.414   2.911   1.140  0.0126 -0.1862  0.1656
 3303TIP3    H131468   1.415   2.872   1.228  1.0501  2.4754  1.3826
 3303TIP3    H231469   1.488   2.972   1.140 -0.8262  0.8743 -2.0919
 3304TIP3   OH231470   3.730   3.963   7.285 -0.4853 -0.2450 -0.2388
 3304TIP3    H131471   3.705   3.927   7.200  1.0192 -1.4384 -0.1967
 3304TIP3    H231472   3.805   4.019   7.266 -1.9261  1.7835 -0.0945
 3305TIP3   OH231473   0.310   0.759   0.450  0.4180  0.3631 -0.0649
 3305TIP3    H131474   0.388   0.715   0.484  2.4343  1.1888 -3.4519
 3305TIP3    H231475   0.237   0.712   0.491  2.6314 -1.6420  1.7303
 3306TIP3   OH231476   4.504   3.154   6.912 -0.3693  0.1195  0.3447
 3306TIP3    H131477   4.449   3.082   6.882 -1.5729  0.6490  1.2209
 3306TIP3    H231478   4.457   3.233   6.884  0.1614  0.5690  0.7095
 3307TIP3   OH231479   2.104   3.113   6.686 -0.8049  0.0053  0.4857
 3307TIP3    H131480   2.192   3.094   6.719 -0.2245  0.1135 -0.9553
 3307TIP3    H231481   2.059   3.151   6.761  0.1596 -0.6881  1.4431
 3308TIP3   OH231482   1.561   1.757   0.461 -0.5228  0.3369 -0.6722
 3308TIP3    H131483   1.566   1.790   0.551 -0.5891  0.1234 -0.5909
 3308TIP3    H231484   1.612   1.820   0.410 -2.5374  1.8548 -0.8915
 3309TIP3   OH231485   2.691   2.661   7.942 -0.3382  0.1823 -0.2870
 3309TIP3    H131486   2.631   2.661   8.016  0.6802 -1.9171  0.6008
 3309TIP3    H231487   2.713   2.753   7.928 -1.7477  0.7416  0.9949
 3310TIP3   OH231488   1.192   4.254   1.297  0.0522  0.7823 -0.3976
 3310TIP3    H131489   1.258   4.186   1.285  0.0762  0.8089 -0.4159
 3310TIP3    H231490   1.227   4.329   1.250 -0.2326  0.6367 -0.8465
 3311TIP3   OH231491   7.221   3.726   0.026  0.2216  0.0288  0.3531
 3311TIP3    H131492   7.280   3.650   0.023 -0.7327 -0.6949  0.0110
 3311TIP3    H231493   7.138   3.691   0.056  0.0403  1.1170  1.1532
 3312TIP3   OH231494   2.421   2.302   1.932  0.2109 -0.5646 -0.6871
 3312TIP3    H131495   2.457   2.235   1.990  0.9437  0.7241  0.3585
 3312TIP3    H231496   2.334   2.269   1.909 -0.2161 -0.9703  1.3795
 3313TIP3   OH231497   1.576   2.251   1.909 -0.3320  0.0807  0.0796
 3313TIP3    H131498   1.540   2.171   1.871 -0.9021  0.3043  0.1526
 3313TIP3    H231499   1.664   2.225   1.939 -1.2176 -1.0297  1.8523
 3314TIP3   OH231500   3.168   0.712   7.468  0.0163 -0.5270 -0.5661
 3314TIP3    H131501   3.186   0.687   7.377 -2.6001 -0.4148 -1.1552
 3314TIP3    H231502   3.072   0.716   7.473  0.0510 -1.8492  2.5420
 3315TIP3   OH231503   3.803   5.246   8.152  0.2235  0.2880  0.0733
 3315TIP3    H131504   3.844   5.159   8.159  0.7055  0.5785  0.8400
 3315TIP3    H231505   3.711   5.230   8.172  0.2827 -0.0670  0.0778
 3316TIP3   OH231506   2.540   4.194   7.840 -0.3080 -0.0011 -0.1162
 3316TIP3    H131507   2.481   4.124   7.869 -0.2077 -0.6035 -1.3234
 3316TIP3    H231508   2.496   4.232   7.764  1.1273 -0.8393 -1.3861
 3317TIP3   OH231509   3.959   3.577   8.222  0.1427  0.2154  0.0488
 3317TIP3    H131510   3.941   3.664   8.187 -1.5721 -0.0657  0.2034
 3317TIP3    H231511   3.991   3.594   8.311  3.0034  0.8368 -1.0474
 3318TIP3   OH231512   4.909   0.574   8.424 -0.8303  0.5067 -0.4473
 3318TIP3    H131513   4.974   0.612   8.484  0.1059  1.1080 -1.8218
 3318TIP3    H231514   4.897   0.484   8.456 -1.8679  1.4286  1.8642
 3319TIP3   OH231515   3.639   1.547   7.740 -0.1352 -0.2714  0.0365
 3319TIP3    H131516   3.669   1.509   7.822  2.9804  2.2959  0.2221
 3319TIP3    H231517   3.718   1.548   7.685 -1.2518  1.5479 -1.5796
 3320TIP3   OH231518   3.050   2.281   0.105  0.6918  0.3304 -0.1971
 3320TIP3    H131519   3.082   2.216   0.167 -0.9127  0.5517  0.8873
 3320TIP3    H231520   3.047   2.235   0.021  0.0190 -0.8586  0.4740
 3321TIP3   OH231521   2.794   0.807   1.163 -0.4230 -0.4796 -0.2301
 3321TIP3    H131522   2.713   0.842   1.200 -0.8185 -0.7237 -0.8638
 3321TIP3    H231523   2.844   0.777   1.238 -1.5684 -1.7156  0.0454
 3322TIP3   OH231524   4.684   4.901   0.806 -0.4466 -0.2119  0.4587
 3322TIP3    H131525   4.669   4.933   0.895  0.8689 -1.4819  1.1641
 3322TIP3    H231526   4.771   4.862   0.809 -0.6438 -0.8379 -1.2371
 3323TIP3   OH231527   2.890   3.707   8.079 -0.2761  0.2106 -0.7480
 3323TIP3    H131528   2.970   3.698   8.028  0.1452 -1.7922  0.2162
 3323TIP3    H231529   2.830   3.643   8.042 -0.7885  0.4178 -0.2884
 3324TIP3   OH231530   1.955   2.577   7.314 -0.3891  0.4264  0.4926
 3324TIP3    H131531   1.963   2.599   7.221  1.3057 -0.7698  0.3289
 3324TIP3    H231532   1.877   2.625   7.343  0.0022  2.1298 -1.1439
 3325TIP3   OH231533   2.850   1.321   7.478 -0.3328 -0.0011 -0.4079
 3325TIP3    H131534   2.921   1.323   7.414 -0.8652 -0.5022 -1.0045
 3325TIP3    H231535   2.878   1.257   7.543 -0.5723 -0.7250 -1.0218
 3326TIP3   OH231536   1.911   3.702   0.571 -0.6004 -0.2687 -0.4684
 3326TIP3    H131537   1.863   3.640   0.626  1.4037 -0.5040  1.0521
 3326TIP3    H231538   1.944   3.768   0.632 -0.0222  0.5536 -1.6576
 3327TIP3   OH231539   3.072   1.031   7.573 -0.1720 -0.1375  0.4181
 3327TIP3    H131540   3.167   1.024   7.571 -0.2185 -1.1849  1.1872
 3327TIP3    H231541   3.052   1.050   7.665 -0.6328  1.2373  0.0366
 3328TIP3   OH231542   4.906   4.322   6.755  0.0484 -0.0078  0.1142
 3328TIP3    H131543   4.882   4.295   6.666  0.5623 -1.2113  0.3319
 3328TIP3    H231544   4.894   4.243   6.808 -0.0033  0.6374  1.0681
 3329TIP3   OH231545   2.758   5.586   0.505 -0.2074 -0.7479  0.1394
 3329TIP3    H131546   2.665   5.564   0.511 -0.7125  0.6446 -1.8208
 3329TIP3    H231547   2.803   5.502   0.505 -1.1394 -1.3633  4.8905
 3330TIP3   OH231548   3.232   4.050   0.641  0.3445  0.2274  0.3197
 3330TIP3    H131549   3.308   4.007   0.680  0.1721 -1.9883 -1.7092
 3330TIP3    H231550   3.262   4.139   0.623  3.0460 -1.0893 -2.0205
 3331TIP3   OH231551   4.630   0.442   7.920 -0.2762  0.1294  0.8003
 3331TIP3    H131552   4.660   0.438   7.829 -1.0021 -1.1360  0.6036
 3331TIP3    H231553   4.540   0.475   7.914 -1.0322 -1.8516  0.8757
 3332TIP3   OH231554   5.808   6.994   0.290  0.1320  0.2150 -0.7052
 3332TIP3    H131555   5.852   7.075   0.261  1.0451  0.1442  0.4772
 3332TIP3    H231556   5.837   6.982   0.380  1.1548 -2.2464 -1.3428
 3333TIP3   OH231557   3.135   2.126   0.314 -0.5366  0.0857  0.1651
 3333TIP3    H131558   3.168   2.128   0.404  2.2113 -1.1180 -0.7654
 3333TIP3    H231559   3.040   2.120   0.323 -0.3169  0.4300  2.9845
 3334TIP3   OH231560   2.169   1.954   6.876 -0.4160 -0.4157  0.2959
 3334TIP3    H131561   2.238   1.934   6.813 -0.4106  0.0131  0.1635
 3334TIP3    H231562   2.215   1.990   6.952 -0.6366  1.7817 -0.5723
 3335TIP3   OH231563   4.158   1.296   0.220  0.1373  0.0989  0.1423
 3335TIP3    H131564   4.098   1.256   0.157 -0.1934  0.1789  0.4101
 3335TIP3    H231565   4.176   1.383   0.184 -0.1710  0.2016  0.2403
 3336TIP3   OH231566   3.588   2.295   1.178  0.3996  0.3666  0.5043
 3336TIP3    H131567   3.675   2.262   1.155 -0.6173 -1.2274 -1.1649
 3336TIP3    H231568   3.600   2.390   1.188  1.6229  0.7221 -3.3606
 3337TIP3   OH231569   4.579   3.098   1.490  0.2199  0.0948 -0.4834
 3337TIP3    H131570   4.561   3.033   1.421 -0.7954 -0.2656  0.1095
 3337TIP3    H231571   4.533   3.064   1.567 -0.6605  1.7347 -0.2739
 3338TIP3   OH231572   5.691   4.481   1.699  0.3109  0.5579 -0.2674
 3338TIP3    H131573   5.690   4.394   1.659 -0.3058 -0.0823  1.0957
 3338TIP3    H231574   5.607   4.519   1.676  0.0443  0.2747  0.2367
 3339TIP3   OH231575   0.702   1.899   1.123  0.2100 -0.1755  0.1930
 3339TIP3    H131576   0.714   1.871   1.033  1.4542 -0.1864  0.3486
 3339TIP3    H231577   0.716   1.819   1.175  2.2249  0.3778  0.5436
 3340TIP3   OH231578   4.261   5.151   7.749 -0.8532  0.2470  0.0442
 3340TIP3    H131579   4.246   5.212   7.677 -2.0984  0.2922  0.3145
 3340TIP3    H231580   4.176   5.108   7.762 -0.1731 -1.0790  0.2848
 3341TIP3   OH231581   2.742   4.880   7.884  0.1321  0.1171  0.0321
 3341TIP3    H131582   2.758   4.975   7.881  2.3675 -0.2431 -0.2319
 3341TIP3    H231583   2.722   4.857   7.793 -0.0529  0.2901  0.0290
 3342TIP3   OH231584   1.936   2.561   8.271  0.2278 -0.1848  0.3963
 3342TIP3    H131585   1.961   2.560   8.363  0.1927 -0.0358  0.4078
 3342TIP3    H231586   2.015   2.588   8.224  0.0215  0.5683  0.4607
 3343TIP3   OH231587   0.346   3.003   0.737  0.0756  0.5600 -0.0952
 3343TIP3    H131588   0.332   2.945   0.813 -0.8126  0.9794  0.0667
 3343TIP3    H231589   0.347   3.091   0.774 -0.8638  0.8006 -0.6348
 3344TIP3   OH231590   4.652   5.516   1.523  0.4005 -0.0171  0.5776
 3344TIP3    H131591   4.608   5.433   1.537 -0.9191  0.4226 -0.8447
 3344TIP3    H231592   4.629   5.568   1.601 -1.6575  0.2130 -0.1431
 3345TIP3   OH231593   2.474   2.572   1.233  0.2981  0.2161  0.3634
 3345TIP3    H131594   2.499   2.613   1.315  0.9698  0.4274  0.0564
 3345TIP3    H231595   2.413   2.502   1.258  1.0628 -0.1938  1.0948
 3346TIP3   OH231596   4.660   4.618   0.350 -0.6869  0.3759 -0.1344
 3346TIP3    H131597   4.755   4.614   0.353 -0.7558 -3.1107 -0.1324
 3346TIP3    H231598   4.634   4.648   0.437  0.4016 -0.0024  0.3345
 3347TIP3   OH231599   3.742   4.566   6.526  0.5271  0.0031  0.1239
 3347TIP3    H131600   3.820   4.579   6.473  2.0763 -1.5704  1.9183
 3347TIP3    H231601   3.728   4.471   6.525  0.0389  0.0457  1.7361
 3348TIP3   OH231602   2.816   4.228   0.685 -0.3386  0.4212 -0.1586
 3348TIP3    H131603   2.904   4.218   0.722  0.0427  1.6482 -0.7255
 3348TIP3    H231604   2.760   4.175   0.742  0.5904  0.5497  0.8798
 3349TIP3   OH231605   2.649   2.529   7.642  0.0075 -0.5455 -0.4649
 3349TIP3    H131606   2.691   2.550   7.725 -1.3393  1.6752 -0.2827
 3349TIP3    H231607   2.559   2.559   7.652 -1.1207 -3.3830 -1.5522
 3350TIP3   OH231608   3.062   3.082   7.186  0.2357  0.2959  0.3249
 3350TIP3    H131609   3.071   3.034   7.269 -1.2566  0.9347  0.8828
 3350TIP3    H231610   3.091   3.171   7.208 -0.5671  0.5714  0.2824
 3351TIP3   OH231611   2.347   2.694   1.000  0.4528  0.0058  0.1523
 3351TIP3    H131612   2.291   2.642   0.943 -0.7451 -0.5352  1.7687
 3351TIP3    H231613   2.389   2.630   1.057  1.5287  0.5449 -0.0106
 3352TIP3   OH231614   1.928   4.729   7.724  0.2699 -0.2954 -0.1497
 3352TIP3    H131615   1.976   4.808   7.747  0.3963  0.1954 -2.0140
 3352TIP3    H231616   1.890   4.699   7.806 -3.1019  3.9232 -0.0031
 3353TIP3   OH231617   3.573   4.139   1.160 -0.4126 -0.1871 -0.1289
 3353TIP3    H131618   3.518   4.171   1.231  1.3863 -0.0004  1.1992
 3353TIP3    H231619   3.661   4.133   1.197  0.1763 -2.1162 -1.7151
 3354TIP3   OH231620   2.202   1.555   8.278  0.3071 -0.8468  0.4482
 3354TIP3    H131621   2.226   1.466   8.254 -1.2870 -0.7963 -1.4379
 3354TIP3    H231622   2.265   1.610   8.232 -0.2536 -0.9119 -0.4053
 3355TIP3   OH231623   2.951   2.283   6.545  0.2817 -0.4953  0.1359
 3355TIP3    H131624   3.002   2.218   6.593 -0.3644 -0.9147  0.2519
 3355TIP3    H231625   2.954   2.254   6.454  0.9732 -0.0451  0.0080
 3356TIP3   OH231626   3.240   5.432   6.730 -0.4227 -0.3372  0.2553
 3356TIP3    H131627   3.287   5.508   6.765  0.4377 -2.2042  3.2466
 3356TIP3    H231628   3.154   5.467   6.707  0.3632  1.8161  0.4562
 3357TIP3   OH231629   4.768   4.599   7.198 -0.2651 -0.3041 -0.0173
 3357TIP3    H131630   4.861   4.623   7.197  0.0609 -1.3928  1.5662
 3357TIP3    H231631   4.740   4.605   7.107  1.3530  0.0847 -0.4991
 3358TIP3   OH231632   2.886   3.056   7.856  0.0330  0.7107  0.1550
 3358TIP3    H131633   2.845   3.017   7.778 -0.4705  2.0459 -0.2623
 3358TIP3    H231634   2.815   3.061   7.920  0.5670 -0.8770  0.9216
 3359TIP3   OH231635   4.625   5.714   0.086 -0.3302  0.1553  0.2890
 3359TIP3    H131636   4.635   5.800   0.128  1.7957 -0.1687  0.5426
 3359TIP3    H231637   4.661   5.653   0.151 -1.3151 -0.8577 -0.1228
 3360TIP3   OH231638   5.444   0.867   6.994  0.2812 -0.5840 -0.0259
 3360TIP3    H131639   5.451   0.891   7.086  0.5931 -2.6035  0.5153
 3360TIP3    H231640   5.351   0.849   6.980 -0.0002  1.1778 -0.5097
 3361TIP3   OH231641   5.776   2.343   6.898 -0.5126 -0.0010 -0.4121
 3361TIP3    H131642   5.764   2.249   6.909 -1.1424  0.3876  2.3733
 3361TIP3    H231643   5.869   2.353   6.877 -0.1962 -1.1405  0.4254
 3362TIP3   OH231644   5.425   6.827   8.190  0.5088 -0.4756  0.4653
 3362TIP3    H131645   5.329   6.828   8.194  0.4073  0.7321 -1.4647
 3362TIP3    H231646   5.452   6.799   8.277 -1.5284  1.8015  1.9125
 3363TIP3   OH231647   3.348   2.352   7.684 -0.2207  0.4659 -0.1851
 3363TIP3    H131648   3.428   2.328   7.730 -0.3162  2.3330  1.0270
 3363TIP3    H231649   3.280   2.351   7.752 -0.8374  0.8566 -0.7913
 3364TIP3   OH231650   4.147   1.710   8.022  0.6900 -0.4111 -0.3067
 3364TIP3    H131651   4.146   1.777   8.090  2.2088 -2.1548  1.4982
 3364TIP3    H231652   4.139   1.758   7.940  1.3565  1.9405  0.9782
 3365TIP3   OH231653   5.001   5.839   8.024  0.2312  0.2646 -0.4978
 3365TIP3    H131654   4.980   5.930   8.004  1.0704  0.5273 -0.2217
 3365TIP3    H231655   5.026   5.800   7.940 -1.7725 -0.1893 -0.9265
 3366TIP3   OH231656   2.295   3.458   1.865 -0.1062 -0.8526  0.2970
 3366TIP3    H131657   2.386   3.429   1.867  0.6862  1.5247  0.4452
 3366TIP3    H231658   2.297   3.541   1.817 -1.8648  0.2600  2.0389
 3367TIP3   OH231659   2.025   2.736   1.096 -0.4088 -0.2574  0.1099
 3367TIP3    H131660   2.079   2.681   1.153 -0.7046 -0.1204  0.5247
 3367TIP3    H231661   1.967   2.783   1.156 -1.1338 -0.5592 -0.3481
 3368TIP3   OH231662   0.425   3.327   8.350 -0.4463  0.0764  0.5500
 3368TIP3    H131663   0.450   3.331   8.442 -0.0795  0.4843  0.4351
 3368TIP3    H231664   0.479   3.256   8.314 -0.3195  0.1620  0.5706
 3369TIP3   OH231665   0.339   4.243   0.216 -0.4466 -0.0492  0.0493
 3369TIP3    H131666   0.309   4.157   0.246 -1.1469  0.1708 -0.0082
 3369TIP3    H231667   0.259   4.296   0.210 -0.1741  0.2386 -1.1484
 3370TIP3   OH231668   6.557   2.990   1.928 -0.5906 -0.6104 -0.1315
 3370TIP3    H131669   6.540   2.910   1.978 -0.5722 -1.2835 -1.1750
 3370TIP3    H231670   6.515   2.975   1.843 -0.1317  0.2692 -0.5303
 3371TIP3   OH231671   6.516   6.272   1.715 -0.0132 -0.1486  0.4570
 3371TIP3    H131672   6.590   6.230   1.672 -1.8693 -3.3274  0.1551
 3371TIP3    H231673   6.535   6.265   1.809  0.2123 -0.7322  0.3706
 3372TIP3   OH231674   0.371   2.867   1.513 -0.1520  0.1587  0.1021
 3372TIP3    H131675   0.381   2.904   1.425  2.0457  0.9354  0.6395
 3372TIP3    H231676   0.442   2.907   1.564 -1.0666 -0.6864  2.0971
 3373TIP3   OH231677   0.053   4.041   0.478  0.0824 -0.2313  0.1932
 3373TIP3    H131678  -0.007   4.110   0.507 -0.7382 -0.6489 -0.4936
 3373TIP3    H231679   0.053   3.978   0.550  0.3459  0.1742  0.5514
 3374TIP3   OH231680   1.188   2.352   7.435  0.4289 -0.3091  0.1341
 3374TIP3    H131681   1.225   2.346   7.523  0.8428 -0.9007 -0.0785
 3374TIP3    H231682   1.229   2.280   7.386 -0.3224 -0.4170 -0.3481
 3375TIP3   OH231683   1.617   1.220   0.696  0.3832 -0.1538  0.6463
 3375TIP3    H131684   1.679   1.221   0.768  1.3241 -0.5615 -0.1480
 3375TIP3    H231685   1.668   1.249   0.620  0.2048 -2.7297 -0.4949
 3376TIP3   OH231686   2.112   0.451   0.267 -0.5568 -0.1595  0.4439
 3376TIP3    H131687   2.049   0.455   0.195  1.1600 -2.0492 -1.2546
 3376TIP3    H231688   2.086   0.373   0.317 -0.4539 -0.0978  0.5941
 3377TIP3   OH231689   0.941   1.648   8.269  0.4326  0.5121  0.3180
 3377TIP3    H131690   0.952   1.723   8.326 -0.2155  0.8373  0.0244
 3377TIP3    H231691   0.890   1.681   8.195  1.0024  0.0250 -0.2962
 3378TIP3   OH231692   3.232   6.616   0.153 -0.0999 -0.2021  0.3602
 3378TIP3    H131693   3.168   6.645   0.218 -0.9087  0.3313 -0.6521
 3378TIP3    H231694   3.191   6.541   0.110  0.5251 -0.6910  0.6166
 3379TIP3   OH231695   0.979   2.773   0.740 -0.1169  0.0927 -0.1513
 3379TIP3    H131696   1.074   2.773   0.746 -0.1621 -0.2604  0.6411
 3379TIP3    H231697   0.959   2.839   0.674  0.6116  1.2950  0.8063
 3380TIP3   OH231698   1.486   1.555   0.164  0.0685 -0.1773 -0.2104
 3380TIP3    H131699   1.471   1.601   0.082  0.6516  1.2002  0.4416
 3380TIP3    H231700   1.581   1.555   0.175 -0.1069  1.4003  1.4462
 3381TIP3   OH231701   6.206   1.663   6.833 -0.0918 -0.3355  0.2044
 3381TIP3    H131702   6.138   1.658   6.900  0.8696  0.5210  1.2503
 3381TIP3    H231703   6.235   1.754   6.834 -0.1764 -0.2742 -1.4959
 3382TIP3   OH231704   4.442   2.660   1.406 -0.5750 -0.7585 -0.2350
 3382TIP3    H131705   4.508   2.612   1.356  1.1546  1.3236 -0.0549
 3382TIP3    H231706   4.492   2.706   1.474 -2.5435 -1.2334  1.5802
 3383TIP3   OH231707   0.829   2.454   1.266  0.4013 -0.3958  0.0436
 3383TIP3    H131708   0.853   2.384   1.327 -0.6746 -2.0122 -1.3474
 3383TIP3    H231709   0.857   2.422   1.180  1.6468  1.7405 -0.3757
 3384TIP3   OH231710   6.395   0.661   6.893  0.2289 -1.0944 -0.4647
 3384TIP3    H131711   6.388   0.714   6.972  1.1224 -0.3389 -0.8825
 3384TIP3    H231712   6.306   0.627   6.879  0.0298 -1.1162  0.7671
 3385TIP3   OH231713   2.001   2.615   7.579  0.2535  0.4047  0.1332
 3385TIP3    H131714   2.003   2.578   7.490 -0.4769 -0.6400  0.5387
 3385TIP3    H231715   1.935   2.563   7.625  2.2629 -0.6190  1.9662
 3386TIP3   OH231716   5.559   6.964   7.988 -0.5411 -0.0625  0.0902
 3386TIP3    H131717   5.528   6.902   7.922 -1.9405  0.1101  0.5569
 3386TIP3    H231718   5.524   6.930   8.071 -0.3841  0.7365  0.4949
 3387TIP3   OH231719   0.032   2.817   1.381  0.2329 -0.0097  0.2689
 3387TIP3    H131720  -0.030   2.890   1.374  1.3736  0.8455 -0.9919
 3387TIP3    H231721   0.048   2.809   1.475 -1.8687 -0.3174  0.6340
 3388TIP3   OH231722   6.844   0.159   7.015 -0.0113 -0.2959  0.3077
 3388TIP3    H131723   6.842   0.143   7.110  2.1665  1.1861  0.6496
 3388TIP3    H231724   6.782   0.230   7.001 -2.9112 -2.7451  0.0678
 3389TIP3   OH231725   0.816   5.987   1.403  0.2249 -0.0467 -0.4327
 3389TIP3    H131726   0.838   6.067   1.450  0.1207  0.1636 -0.7433
 3389TIP3    H231727   0.901   5.944   1.387  0.3761  0.5407 -1.2330
 3390TIP3   OH231728   7.166   5.696   0.814  0.1063 -0.5521  0.0003
 3390TIP3    H131729   7.134   5.657   0.896  1.0543  0.8947  1.0873
 3390TIP3    H231730   7.258   5.673   0.811  0.6164  1.3345  0.5239
 3391TIP3   OH231731   1.747   3.761   7.711  0.5904 -0.2414  0.7134
 3391TIP3    H131732   1.721   3.691   7.651  0.3224 -0.1773  0.7545
 3391TIP3    H231733   1.696   3.745   7.790  1.8938 -1.0823  1.4068
 3392TIP3   OH231734   1.056   2.445   8.211 -0.2654  0.8072  0.3852
 3392TIP3    H131735   1.113   2.380   8.251 -0.9680 -0.3393 -0.4389
 3392TIP3    H231736   1.110   2.524   8.205  1.1479 -0.1786 -0.1442
 3393TIP3   OH231737   5.328   0.304   7.565  0.2783  0.5889  0.1929
 3393TIP3    H131738   5.376   0.387   7.569 -0.1380  0.7781  1.4555
 3393TIP3    H231739   5.275   0.310   7.486 -0.8176  2.1129  1.0386
 3394TIP3   OH231740   6.557   6.249   8.181 -0.1015  0.0163 -0.4745
 3394TIP3    H131741   6.557   6.218   8.091  1.3924  0.0764 -0.4947
 3394TIP3    H231742   6.587   6.174   8.233  0.2868  0.3825 -0.1665
 3395TIP3   OH231743   5.451   4.489   1.895 -0.6294 -0.0429  0.2755
 3395TIP3    H131744   5.413   4.419   1.842 -0.5290 -1.1413  1.6422
 3395TIP3    H231745   5.436   4.568   1.843 -0.4950 -1.0986 -1.4119
 3396TIP3   OH231746   6.805   3.057   6.320 -0.2979 -0.1574 -0.0546
 3396TIP3    H131747   6.863   3.078   6.246 -0.0347  0.5102  0.3430
 3396TIP3    H231748   6.734   3.006   6.280 -0.3755  0.5528 -0.8430
 3397TIP3   OH231749   5.403   1.529   6.837 -0.3965 -0.1228 -0.7254
 3397TIP3    H131750   5.480   1.586   6.835  0.1875 -0.8768  0.0885
 3397TIP3    H231751   5.421   1.462   6.771 -0.4614 -0.1538 -0.7115
 3398TIP3   OH231752   2.272   1.485   7.951  0.1564  0.1116 -0.1316
 3398TIP3    H131753   2.341   1.544   7.981 -0.5384  0.1380  1.4395
 3398TIP3    H231754   2.270   1.414   8.015  0.9404 -1.6279 -1.9780
 3399TIP3   OH231755   1.977   5.220   1.386 -0.1659  0.1348 -0.3127
 3399TIP3    H131756   1.945   5.310   1.389 -0.2899  0.1027 -0.6428
 3399TIP3    H231757   2.055   5.220   1.440 -0.9677  0.1181  0.8676
 3400TIP3   OH231758   6.493   5.153   7.334  0.0002  0.2365  0.4999
 3400TIP3    H131759   6.496   5.151   7.238 -0.4584 -2.3417  0.5003
 3400TIP3    H231760   6.574   5.197   7.359 -0.6258  2.3859 -1.0772
 3401TIP3   OH231761   0.843   5.460   0.690  0.2569 -0.1253  0.1866
 3401TIP3    H131762   0.891   5.378   0.678 -0.5986 -0.3732 -1.7070
 3401TIP3    H231763   0.766   5.435   0.741  1.3460  0.0229  1.9785
 3402TIP3   OH231764   0.930   3.954   7.143 -0.4003  0.5000 -0.4801
 3402TIP3    H131765   0.938   3.964   7.237  1.4692 -2.5304 -0.2452
 3402TIP3    H231766   0.999   4.011   7.107  1.2647 -1.0423  0.1817
 3403TIP3   OH231767   1.324   2.173   0.533  0.4110 -0.2719  0.1279
 3403TIP3    H131768   1.254   2.223   0.490  0.3210 -0.2340  0.3170
 3403TIP3    H231769   1.403   2.196   0.484 -0.0845 -2.2095 -1.6471
 3404TIP3   OH231770   1.072   5.856   0.074  0.4416  0.8128  0.2653
 3404TIP3    H131771   1.006   5.791   0.096 -0.5314  1.2404 -1.2959
 3404TIP3    H231772   1.155   5.818   0.102 -0.1152 -1.1000 -0.6528
 3405TIP3   OH231773   0.635   6.664   7.210  0.2566  0.1126 -0.1720
 3405TIP3    H131774   0.556   6.610   7.217  0.0083  0.2850 -1.6017
 3405TIP3    H231775   0.617   6.739   7.266  0.4336 -1.0650  1.5053
 3406TIP3   OH231776   7.163   5.649   7.465  0.3360  0.9071  0.5943
 3406TIP3    H131777   7.249   5.655   7.508 -0.1701  0.5027  1.6722
 3406TIP3    H231778   7.140   5.556   7.470  0.5896  0.7125 -1.2170
 3407TIP3   OH231779   6.981   1.930   7.741  0.1592  0.3697 -0.1276
 3407TIP3    H131780   6.941   1.863   7.685  1.4110 -0.2294 -0.3101
 3407TIP3    H231781   6.992   1.887   7.826 -0.8719  0.9820  0.3214
 3408TIP3   OH231782   6.607   5.023   2.049 -0.0673  0.5567 -0.5037
 3408TIP3    H131783   6.601   4.934   2.084  1.0960  0.5542 -0.2970
 3408TIP3    H231784   6.558   5.077   2.111  1.0398  0.3836  0.5148
 3409TIP3   OH231785   0.338   5.749   0.567  0.1129 -0.2293  0.0558
 3409TIP3    H131786   0.414   5.695   0.546 -0.7904 -2.5151  2.3957
 3409TIP3    H231787   0.263   5.691   0.553 -1.1240  1.5014 -0.6987
 3410TIP3   OH231788   1.959   4.784   7.197 -0.0951 -0.4669  0.2699
 3410TIP3    H131789   2.000   4.761   7.113  0.1588 -0.1849  0.3175
 3410TIP3    H231790   1.902   4.710   7.216  1.3242 -1.4481  0.8115
 3411TIP3   OH231791   1.179   2.674   1.339 -0.1060  0.1473  1.1877
 3411TIP3    H131792   1.113   2.686   1.271  0.5069  2.1951  0.9111
 3411TIP3    H231793   1.200   2.581   1.336 -0.8166  0.0247 -0.7566
 3412TIP3   OH231794   6.690   5.930   1.267 -0.3340  0.5253 -0.2177
 3412TIP3    H131795   6.781   5.952   1.249  0.1909 -1.7242 -0.5264
 3412TIP3    H231796   6.684   5.929   1.362  0.3516 -0.7284 -0.1765
 3413TIP3   OH231797   0.858   5.708   0.142 -0.0191 -0.1340 -0.0041
 3413TIP3    H131798   0.863   5.614   0.124 -2.4461 -0.4664  1.0177
 3413TIP3    H231799   0.852   5.715   0.237  0.2010  1.0868 -0.0633
 3414TIP3   OH231800   2.088   4.621   7.464 -0.5244 -0.6795  0.2236
 3414TIP3    H131801   2.032   4.694   7.489 -1.5044 -1.1152 -0.6445
 3414TIP3    H231802   2.048   4.545   7.506  0.2486 -0.7837  0.7811
 3415TIP3   OH231803   1.349   4.603   1.616  0.3592 -0.1055 -0.4494
 3415TIP3    H131804   1.331   4.509   1.617  0.0390 -0.0373  0.2990
 3415TIP3    H231805   1.265   4.644   1.633  0.5255  0.3101 -0.6299
 3416TIP3   OH231806   1.947   6.931   0.470 -0.1051  0.0280  0.0120
 3416TIP3    H131807   1.976   6.930   0.562  0.4096 -0.1504 -0.1510
 3416TIP3    H231808   1.930   6.839   0.450  0.1784  0.0246 -0.2005
 3417TIP3   OH231809   3.216   6.115   6.715  0.2371  0.1225  0.3796
 3417TIP3    H131810   3.215   6.133   6.621  0.7140 -1.4814  0.0598
 3417TIP3    H231811   3.244   6.197   6.755 -2.2537  1.5466 -0.7074
 3418TIP3   OH231812   3.111   0.323   7.512 -0.1754 -0.6561 -0.1621
 3418TIP3    H131813   3.175   0.290   7.449  2.3381  1.9679  0.9357
 3418TIP3    H231814   3.145   0.296   7.597  0.3905  2.1661  0.5538
 3419TIP3   OH231815   7.181   7.130   8.440 -0.5643  0.4076 -0.3318
 3419TIP3    H131816   7.176   7.200   8.505  0.1756  0.0029  0.1766
 3419TIP3    H231817   7.156   7.171   8.358  0.6372  1.4719 -0.1837
 3420TIP3   OH231818   0.711   4.732   0.125  0.5147 -0.0746  0.4196
 3420TIP3    H131819   0.712   4.797   0.194  0.8052 -0.0627  0.4041
 3420TIP3    H231820   0.803   4.711   0.110  0.4829  0.2783 -0.2949
 3421TIP3   OH231821   0.683   3.708   1.213 -0.3387 -0.3306  0.2725
 3421TIP3    H131822   0.727   3.735   1.132  0.0871  0.6082  0.8071
 3421TIP3    H231823   0.655   3.790   1.254 -0.6184 -0.8013  1.0490
 3422TIP3   OH231824   7.154   2.676   0.757  0.3060 -0.3530 -0.1366
 3422TIP3    H131825   7.239   2.639   0.781  0.9610  1.1929 -0.0188
 3422TIP3    H231826   7.174   2.765   0.727 -1.3438  0.2798  0.5862
 3423TIP3   OH231827   6.311   5.168   1.317 -0.2659 -0.3402 -0.7717
 3423TIP3    H131828   6.290   5.075   1.328  1.3843 -0.6540 -0.1270
 3423TIP3    H231829   6.407   5.170   1.314 -0.1919  1.6341  1.8581
 3424TIP3   OH231830   7.040   4.382   1.283 -0.3155  0.6779  0.2491
 3424TIP3    H131831   7.116   4.402   1.228  0.3013 -1.3686  0.2976
 3424TIP3    H231832   6.971   4.359   1.220 -0.5646  1.4367  0.2412
 3425TIP3   OH231833   0.464   3.488   7.853 -0.4031 -0.2364  0.6746
 3425TIP3    H131834   0.495   3.544   7.782 -0.9105  0.6817  1.1654
 3425TIP3    H231835   0.435   3.408   7.810  1.5899 -0.6754  0.1021
 3426TIP3   OH231836   1.553   5.668   0.594 -0.0161 -0.5540  0.2301
 3426TIP3    H131837   1.594   5.634   0.515 -1.0989 -0.9240 -0.1896
 3426TIP3    H231838   1.545   5.762   0.578  0.5433 -0.4994  0.2622
 3427TIP3   OH231839   1.281   5.950   8.168  0.5254 -0.4542 -0.1663
 3427TIP3    H131840   1.295   6.007   8.243  0.6445 -1.5372  0.6610
 3427TIP3    H231841   1.190   5.921   8.175  0.6833 -0.9636 -0.1429
 3428TIP3   OH231842   6.094   5.890   0.186 -0.3391  0.0844 -0.2605
 3428TIP3    H131843   6.071   5.894   0.093 -1.5698 -0.9996 -0.0194
 3428TIP3    H231844   6.015   5.859   0.229  0.7329 -1.0583  0.9452
 3429TIP3   OH231845   0.918   5.086   8.428  0.5635  0.3497  0.0586
 3429TIP3    H131846   0.984   5.153   8.410 -0.4618  0.9718 -1.4972
 3429TIP3    H231847   0.923   5.027   8.354  0.8366 -0.8059  0.9905
 3430TIP3   OH231848   0.360   4.566   1.823  0.0190 -0.7839 -0.4174
 3430TIP3    H131849   0.300   4.578   1.896  0.8369  1.7292 -0.1257
 3430TIP3    H231850   0.425   4.504   1.856  1.0014  1.1613  1.4082
 3431TIP3   OH231851   0.547   5.334   8.334 -0.0448  0.0943 -0.7694
 3431TIP3    H131852   0.568   5.423   8.360  0.5787 -0.4056  0.4476
 3431TIP3    H231853   0.562   5.332   8.239  0.7856  1.0374 -0.6588
 3432TIP3   OH231854   1.020   4.544   7.707  0.6726  0.3334  0.7780
 3432TIP3    H131855   0.999   4.545   7.613 -1.3261  0.1977  1.1915
 3432TIP3    H231856   1.075   4.467   7.718  2.6653  1.5180 -0.6182
 3433TIP3   OH231857   1.232   6.788   0.734 -0.2727  0.5926  0.1653
 3433TIP3    H131858   1.259   6.794   0.825 -1.2900  0.1227  0.5051
 3433TIP3    H231859   1.308   6.818   0.684  0.7963 -0.4794  1.1056
 3434TIP3   OH231860   7.181   5.315   7.411  0.3577  0.5484  1.3507
 3434TIP3    H131861   7.195   5.312   7.317  0.6541  0.1047  1.4063
 3434TIP3    H231862   7.267   5.296   7.449  0.1151  0.1544  1.7078
 3435TIP3   OH231863   3.652   5.937   7.434 -0.0348  0.5015  0.2127
 3435TIP3    H131864   3.595   5.862   7.414 -1.0438  1.4297 -0.3955
 3435TIP3    H231865   3.594   6.012   7.436  1.0738  1.3759  0.2181
 3436TIP3   OH231866   2.298   4.230   0.173 -0.1406  0.8177  0.4957
 3436TIP3    H131867   2.257   4.262   0.253  0.6513  1.3334  0.7012
 3436TIP3    H231868   2.238   4.257   0.103 -2.2569 -2.0299  1.0944
 3437TIP3   OH231869   1.284   3.908   0.551  0.1102  0.4202 -0.1440
 3437TIP3    H131870   1.330   3.857   0.618 -1.5765 -0.8089  0.1254
 3437TIP3    H231871   1.194   3.915   0.583 -0.0114  2.4357 -0.8439
 3438TIP3   OH231872   1.724   1.686   1.896  0.4183 -0.0517  0.1160
 3438TIP3    H131873   1.726   1.711   1.803  1.7016  1.3237  0.5091
 3438TIP3    H231874   1.631   1.688   1.919  0.0940 -0.3434 -1.1224
 3439TIP3   OH231875   6.938   5.285   0.810 -0.2761 -0.3746  0.1664
 3439TIP3    H131876   6.967   5.360   0.760 -1.0208 -0.2796 -0.1265
 3439TIP3    H231877   6.963   5.304   0.900 -1.3322  0.6763  0.2521
 3440TIP3   OH231878   0.804   5.726   8.377  0.3855 -0.0695  0.0095
 3440TIP3    H131879   0.823   5.752   8.467 -1.8757 -0.7690  0.7240
 3440TIP3    H231880   0.760   5.642   8.385 -1.4080  0.6718 -1.6305
 3441TIP3   OH231881   6.721   7.248   7.869 -0.8428 -0.1727 -0.2598
 3441TIP3    H131882   6.770   7.289   7.797  0.4347  0.2507  0.8382
 3441TIP3    H231883   6.629   7.252   7.840 -0.3782  0.2512 -1.7418
 3442TIP3   OH231884   0.770   6.587   7.574  0.0020 -0.2170 -0.2367
 3442TIP3    H131885   0.847   6.643   7.563  0.3211 -0.4953  0.5645
 3442TIP3    H231886   0.802   6.511   7.622 -0.8344 -0.1864  0.3815
 3443TIP3   OH231887   3.557   5.516   0.698 -0.3001 -0.2916 -0.6084
 3443TIP3    H131888   3.587   5.607   0.702 -0.2838 -0.2992 -0.5456
 3443TIP3    H231889   3.552   5.496   0.605 -3.5328  0.8488 -0.7571
 3444TIP3   OH231890   3.747   6.052   1.188 -0.1960 -0.0825  0.4748
 3444TIP3    H131891   3.761   6.140   1.153 -1.1561 -0.0108  0.2617
 3444TIP3    H231892   3.813   6.044   1.258  0.2442  0.6017  0.1536
 3445TIP3   OH231893   2.076   4.271   7.494 -0.2156  0.1112  0.5488
 3445TIP3    H131894   2.026   4.329   7.552 -0.0728  1.0524 -0.2759
 3445TIP3    H231895   2.031   4.187   7.501 -1.2260  0.6570  0.7195
 3446TIP3   OH231896   5.005   0.076   7.124 -0.0138 -0.0379 -0.1713
 3446TIP3    H131897   4.998   0.155   7.177 -0.7162  0.9503 -1.6871
 3446TIP3    H231898   4.932   0.021   7.154  1.2066 -0.6882  1.7430
 3447TIP3   OH231899   3.652   5.883   1.516 -1.0666 -0.2225 -0.0956
 3447TIP3    H131900   3.733   5.840   1.486 -0.7959  0.4881 -0.4012
 3447TIP3    H231901   3.582   5.839   1.468 -0.7787 -0.2674 -0.4816
 3448TIP3   OH231902   3.072   5.816   0.143 -1.0951 -0.2985  0.1100
 3448TIP3    H131903   3.106   5.905   0.134 -2.7824  0.4159  0.5865
 3448TIP3    H231904   3.149   5.760   0.139  0.0410  1.2259  0.3418
 3449TIP3   OH231905   2.737   6.205   7.801  0.1970  0.3769  0.7739
 3449TIP3    H131906   2.804   6.175   7.863 -0.5919  0.6750  1.7648
 3449TIP3    H231907   2.654   6.195   7.847 -0.4668 -0.0355 -0.4750
 3450TIP3   OH231908   1.002   3.256   0.168  0.3584 -0.7891 -0.1745
 3450TIP3    H131909   0.998   3.189   0.100 -1.2919 -0.7202 -0.1638
 3450TIP3    H231910   1.060   3.324   0.133 -0.3982 -0.8073 -1.4703
 3451TIP3   OH231911   1.792   3.674   0.324 -0.2037 -0.3423 -0.1226
 3451TIP3    H131912   1.843   3.736   0.272 -1.3835 -0.2366 -1.1786
 3451TIP3    H231913   1.811   3.697   0.415  1.5242 -0.2401 -0.4947
 3452TIP3   OH231914   3.583   5.522   1.713  0.8341  0.4310 -0.1796
 3452TIP3    H131915   3.658   5.500   1.768  2.1951  1.5600 -1.5340
 3452TIP3    H231916   3.595   5.468   1.634  0.9455  1.6123 -0.9732
 3453TIP3   OH231917   3.919   3.709   1.454  0.8052  0.4933 -0.1226
 3453TIP3    H131918   3.951   3.799   1.457  0.4655  0.5703  2.1303
 3453TIP3    H231919   3.947   3.671   1.538 -1.5717 -0.5999  0.2084
 3454TIP3   OH231920   2.842   3.370   8.017  0.1340  0.2377  0.3184
 3454TIP3    H131921   2.858   3.449   7.966  0.0460 -0.0938 -0.2246
 3454TIP3    H231922   2.878   3.299   7.964  0.8131 -0.0167  1.1022
 3455TIP3   OH231923   1.551   3.255   0.641  0.3937 -0.1707  0.3813
 3455TIP3    H131924   1.552   3.298   0.726  1.9959  3.3381 -1.2941
 3455TIP3    H231925   1.470   3.285   0.600  0.6575 -0.1291 -0.1182
 3456TIP3   OH231926   4.061   4.129   1.640 -0.1896  0.1712  0.2280
 3456TIP3    H131927   3.980   4.180   1.637 -0.5826 -0.4458  0.3913
 3456TIP3    H231928   4.101   4.153   1.724  0.0703  0.8822 -0.0882
 3457TIP3   OH231929   2.371   5.614   1.335  0.5463 -0.1725  0.1102
 3457TIP3    H131930   2.354   5.602   1.242 -0.0994  0.1431  0.1864
 3457TIP3    H231931   2.302   5.566   1.379  0.6897 -0.0920  0.4263
 3458TIP3   OH231932   3.951   6.042   0.189 -0.0822  0.1521 -0.0867
 3458TIP3    H131933   4.004   6.000   0.257  0.9756  1.6812  0.0734
 3458TIP3    H231934   3.902   5.970   0.149  2.6639 -1.4516 -0.7209
 3459TIP3   OH231935   3.806   4.530   1.234 -0.7939 -0.1104 -0.2002
 3459TIP3    H131936   3.798   4.524   1.329  3.0245  0.7576  0.2787
 3459TIP3    H231937   3.785   4.621   1.214  1.0103  0.4073  0.1817
 3460TIP3   OH231938   1.372   6.896   8.354 -0.1769 -0.1520 -0.5073
 3460TIP3    H131939   1.337   6.818   8.397  0.2048  0.7471  1.5046
 3460TIP3    H231940   1.433   6.863   8.288 -1.5057 -1.5882 -1.0406
 3461TIP3   OH231941   1.008   6.330   8.052 -0.0486 -0.1375  0.4725
 3461TIP3    H131942   1.016   6.396   7.983  1.5714  0.3303  1.0769
 3461TIP3    H231943   1.081   6.271   8.037 -0.5277 -0.8479  0.9342
 3462TIP3   OH231944   1.244   4.592   6.404 -0.2388 -0.5360 -0.8811
 3462TIP3    H131945   1.302   4.667   6.415  0.0942 -0.9722  0.3628
 3462TIP3    H231946   1.179   4.621   6.340  0.5842  0.3957 -1.3033
 3463TIP3   OH231947   6.584   5.642   8.307  0.2239  0.3816 -0.3476
 3463TIP3    H131948   6.558   5.644   8.215 -0.7564  0.2172 -0.0789
 3463TIP3    H231949   6.528   5.708   8.348  0.1699 -0.0380  0.2514
 3464TIP3   OH231950   2.133   3.300   7.719 -0.0668 -0.0769 -0.3493
 3464TIP3    H131951   2.099   3.373   7.667 -0.3092 -1.1564 -1.7503
 3464TIP3    H231952   2.054   3.254   7.749  0.0994 -0.3337 -0.3071
 3465TIP3   OH231953   2.934   5.478   8.186  0.2048  0.1386  0.2920
 3465TIP3    H131954   2.975   5.563   8.199  1.0943 -0.1673 -0.4914
 3465TIP3    H231955   2.945   5.459   8.093 -0.9182 -0.3640  0.2454
 3466TIP3   OH231956   0.350   4.530   0.277 -0.4873 -0.2536 -0.2151
 3466TIP3    H131957   0.393   4.514   0.193  1.5914  0.2712  0.7325
 3466TIP3    H231958   0.420   4.560   0.335 -1.8192 -0.9848  1.8203
 3467TIP3   OH231959   0.934   4.364   1.291 -0.0900  0.0834 -0.6168
 3467TIP3    H131960   1.027   4.343   1.297 -0.2731 -0.8138 -0.8215
 3467TIP3    H231961   0.895   4.288   1.247 -1.4545 -1.0902  2.4425
 3468TIP3   OH231962   4.289   5.369   0.846 -0.5499 -0.4674  0.2453
 3468TIP3    H131963   4.379   5.390   0.871 -0.3640  1.0517 -1.5666
 3468TIP3    H231964   4.296   5.288   0.796 -0.2285 -0.5827  0.4833
 3469TIP3   OH231965   3.663   3.803   8.383 -0.2824  0.3396 -0.0614
 3469TIP3    H131966   3.615   3.850   8.451  1.2301 -0.3015  1.4864
 3469TIP3    H231967   3.740   3.857   8.366  0.3023 -0.4265  0.0964
 3470TIP3   OH231968   2.285   4.936   7.600  0.3643 -0.8239  0.7110
 3470TIP3    H131969   2.212   4.953   7.660  0.6328  0.2496  0.7473
 3470TIP3    H231970   2.258   4.977   7.518 -0.1625 -2.6121 -0.0240
 3471TIP3   OH231971   1.636   5.077   0.390  0.4941  0.2368 -0.4546
 3471TIP3    H131972   1.728   5.094   0.407  0.3541  0.1566  0.4059
 3471TIP3    H231973   1.608   5.020   0.462  0.1078 -0.8402 -1.4400
 3472TIP3   OH231974   0.350   5.269   0.053  0.1491 -0.2096  0.0715
 3472TIP3    H131975   0.398   5.313  -0.017 -0.8333  0.8164  0.0322
 3472TIP3    H231976   0.262   5.256   0.017 -0.3687  0.3449  1.1244
 3473TIP3   OH231977   3.281   3.237   0.956  0.1615  0.2191  0.7014
 3473TIP3    H131978   3.239   3.321   0.936 -0.9342 -0.4939 -0.0420
 3473TIP3    H231979   3.248   3.177   0.889  2.3162 -0.3979  0.1495
 3474TIP3   OH231980   2.907   6.368   6.908  0.2907  0.3050 -0.0425
 3474TIP3    H131981   2.947   6.309   6.972 -2.0150 -0.3025  0.9077
 3474TIP3    H231982   2.924   6.325   6.824 -0.9836 -1.5548  0.6003
 3475TIP3   OH231983   2.817   5.146   7.858 -0.0605 -0.4287 -0.0938
 3475TIP3    H131984   2.757   5.198   7.912  0.9961 -0.3753  1.0521
 3475TIP3    H231985   2.819   5.191   7.774  1.1984  1.6739  1.0351
 3476TIP3   OH231986   1.375   4.786   7.472 -0.3262 -0.1288  0.2612
 3476TIP3    H131987   1.309   4.846   7.436  0.0691 -1.0828 -2.1608
 3476TIP3    H231988   1.458   4.824   7.446  0.0126 -0.2002  1.2364
 3477TIP3   OH231989   2.837   3.281   7.689  0.2607 -0.4664  0.4367
 3477TIP3    H131990   2.756   3.240   7.721  1.1706 -1.0627  2.0724
 3477TIP3    H231991   2.829   3.373   7.713 -0.4429 -0.2936 -0.4601
 3478TIP3   OH231992   3.184   5.463   7.809 -0.3001 -0.1101 -0.0228
 3478TIP3    H131993   3.176   5.448   7.714  0.2873 -1.9011  0.1973
 3478TIP3    H231994   3.269   5.426   7.832 -1.3926 -1.6523  1.5983
 3479TIP3   OH231995   1.695   4.708   0.865 -0.0367 -0.4418  0.3141
 3479TIP3    H131996   1.767   4.748   0.915  1.5712 -2.2562 -0.4727
 3479TIP3    H231997   1.716   4.615   0.865 -3.1051 -1.1759  1.1561
 3480TIP3   OH231998   2.807   2.739   0.300 -0.6277  0.6058 -0.5050
 3480TIP3    H131999   2.896   2.767   0.279 -0.3522 -1.3406 -2.1418
 3480TIP3    H232000   2.817   2.647   0.325 -2.1125  0.5557 -0.0548
 3481TIP3   OH232001   0.393   5.155   1.199  0.8221 -0.3285  0.1772
 3481TIP3    H132002   0.316   5.100   1.191 -0.7389  1.7600  0.5279
 3481TIP3    H232003   0.418   5.148   1.292  1.9754 -2.1605 -0.2414
 3482TIP3   OH232004   2.240   4.979   0.777  0.1621 -0.1135 -0.1824
 3482TIP3    H132005   2.293   5.011   0.850  0.5418 -1.7976  0.2941
 3482TIP3    H232006   2.152   4.970   0.814  0.2575 -0.5262 -0.0535
 3483TIP3   OH232007   3.881   5.722   1.479  0.0464  0.2501 -0.2275
 3483TIP3    H132008   3.909   5.641   1.437  0.9063 -0.2085  1.2023
 3483TIP3    H232009   3.935   5.790   1.437  0.5995 -0.1506 -0.1727
 3484TIP3   OH232010   0.145   5.137   7.459 -0.2279  0.3149 -0.0189
 3484TIP3    H132011   0.165   5.078   7.387  1.6296 -0.0181  0.7433
 3484TIP3    H232012   0.163   5.086   7.538 -0.8272  1.1495  0.6669
 3485TIP3   OH232013   3.138   4.802   6.160  0.2558 -0.0804  0.5070
 3485TIP3    H132014   3.218   4.814   6.109 -1.6633 -0.7388 -2.8476
 3485TIP3    H232015   3.138   4.709   6.182  1.1104  0.2126  1.7713
 3486TIP3   OH232016   4.478   4.043   6.693 -0.0244  0.2906  0.0301
 3486TIP3    H132017   4.485   4.135   6.716 -0.3260  0.2570  0.2650
 3486TIP3    H232018   4.518   4.036   6.606  0.1713  0.6060  0.0974
 3487TIP3   OH232019   4.350   4.388   7.499 -0.6479 -0.6672 -0.0165
 3487TIP3    H132020   4.390   4.308   7.465  0.6776  0.2426 -0.6557
 3487TIP3    H232021   4.420   4.431   7.548 -0.9321  0.7731 -0.8371
 3488TIP3   OH232022   6.258   5.478   0.623 -0.0410 -0.0391  0.4968
 3488TIP3    H132023   6.296   5.407   0.676 -0.2138 -0.3587  0.2001
 3488TIP3    H232024   6.272   5.557   0.675 -0.1456 -0.3398  0.9874
 3489TIP3   OH232025   7.273   6.623   7.679  0.0663  0.2948  0.2789
 3489TIP3    H132026   7.254   6.530   7.668 -2.5308  0.8084  0.0490
 3489TIP3    H232027   7.220   6.649   7.755  0.9821  1.5293  0.5008
 3490TIP3   OH232028   3.595   0.888   8.068  1.2101  0.1720  0.0428
 3490TIP3    H132029   3.649   0.950   8.020  1.2339 -0.2773 -0.5128
 3490TIP3    H232030   3.588   0.926   8.156  2.6038  0.1335  0.1846
 3491TIP3   OH232031   3.903   3.192   7.851 -0.1453  0.2189  0.1391
 3491TIP3    H132032   3.883   3.172   7.942 -0.7782  1.4904  0.2909
 3491TIP3    H232033   3.962   3.267   7.854  1.8672 -1.3106 -0.4334
 3492TIP3   OH232034   3.201   4.134   0.161 -0.2205 -0.3352  0.0526
 3492TIP3    H132035   3.130   4.071   0.147 -0.3658 -0.6451  2.0447
 3492TIP3    H232036   3.274   4.100   0.109 -1.0739 -0.7883 -0.8734
 3493TIP3   OH232037   4.919   4.996   8.253 -0.1081 -0.4543 -0.8712
 3493TIP3    H132038   4.968   5.007   8.170  0.6238  0.6907 -0.3063
 3493TIP3    H232039   4.865   5.074   8.259  0.3047 -0.2265  0.0297
 3494TIP3   OH232040   3.793   4.613   0.339 -0.0927  0.5945 -0.0825
 3494TIP3    H132041   3.824   4.531   0.300 -0.5548  0.6419 -0.5547
 3494TIP3    H232042   3.706   4.592   0.374 -0.0713  0.7938  0.0914
 3495TIP3   OH232043   2.326   4.277   0.656 -0.0076 -0.0572  0.1413
 3495TIP3    H132044   2.343   4.370   0.672  1.6750 -0.7295  2.4721
 3495TIP3    H232045   2.251   4.257   0.713  0.7679 -0.5471  0.9881
 3496TIP3   OH232046   4.948   5.441   1.722  0.0644 -0.1946  0.1540
 3496TIP3    H132047   4.930   5.359   1.676 -1.5047 -1.5024  2.9453
 3496TIP3    H232048   4.863   5.485   1.726  0.6185  0.9231 -0.0907
 3497TIP3   OH232049   5.306   3.681   6.922  0.0689 -0.5329 -0.0261
 3497TIP3    H132050   5.301   3.764   6.875 -0.3699 -1.0419 -0.9087
 3497TIP3    H232051   5.398   3.673   6.948  0.2735 -0.1370 -0.6290
 3498TIP3   OH232052   5.557   3.527   1.757  0.6918 -0.0531 -0.5256
 3498TIP3    H132053   5.482   3.554   1.810 -0.6106 -1.7964 -1.4376
 3498TIP3    H232054   5.599   3.458   1.808  1.8656  1.1157  0.1149
 3499TIP3   OH232055   4.192   6.791   7.236 -0.5200  0.3129  0.0601
 3499TIP3    H132056   4.118   6.740   7.204 -0.3214 -1.0680  1.7474
 3499TIP3    H232057   4.188   6.784   7.331  2.7301 -1.2312  0.1620
 3500TIP3   OH232058   4.461   4.301   6.811 -0.1421  0.3853  0.3185
 3500TIP3    H132059   4.517   4.375   6.788 -1.3736  1.4871  0.7561
 3500TIP3    H232060   4.446   4.310   6.905  0.4579 -0.9700  0.5571
 3501TIP3   OH232061   5.646   5.110   1.214  0.6027  0.0417  0.3491
 3501TIP3    H132062   5.631   5.167   1.289  0.3931 -0.0851  0.4037
 3501TIP3    H232063   5.699   5.163   1.153 -0.1436  0.5180  0.1107
 3502TIP3   OH232064   3.547   5.121   7.729 -0.1399 -0.2326  0.2036
 3502TIP3    H132065   3.628   5.075   7.707 -0.2888 -0.8079  0.8298
 3502TIP3    H232066   3.538   5.188   7.661 -0.1872 -1.4442 -0.9970
 3503TIP3   OH232067   6.263   5.702   0.344  0.0028 -0.4932 -0.0639
 3503TIP3    H132068   6.192   5.760   0.314  0.2680  1.0786  2.2277
 3503TIP3    H232069   6.248   5.620   0.297 -1.8280  0.6409 -1.5448
 3504TIP3   OH232070   4.586   5.761   0.474 -0.2074  0.1473 -0.2919
 3504TIP3    H132071   4.541   5.845   0.485  0.8795  0.8394 -0.9931
 3504TIP3    H232072   4.525   5.709   0.422 -1.3768  0.0853  1.1060
 3505TIP3   OH232073   5.569   5.402   0.088 -0.1784 -0.1308  0.1338
 3505TIP3    H132074   5.649   5.446   0.059  0.0996 -1.4905 -1.2344
 3505TIP3    H232075   5.599   5.327   0.139 -0.4948 -1.4981 -1.6187
 3506TIP3   OH232076   6.029   5.272   7.361  0.0172  0.0044  0.3224
 3506TIP3    H132077   5.944   5.231   7.344 -0.2114  0.5762  0.0878
 3506TIP3    H232078   6.092   5.201   7.350 -0.3647 -0.2484 -0.2604
 3507TIP3   OH232079   3.713   3.665   7.714 -0.2726  0.4943 -0.3047
 3507TIP3    H132080   3.713   3.758   7.736 -0.7207  0.8594 -1.7967
 3507TIP3    H232081   3.623   3.637   7.724 -0.4400  0.6084 -1.3638
 3508TIP3   OH232082   2.673   4.466   0.063  0.0511  0.2571 -0.1562
 3508TIP3    H132083   2.619   4.420  -0.002  1.8128 -0.7440 -0.9420
 3508TIP3    H232084   2.722   4.397   0.106  0.5875  1.1477  0.6712
 3509TIP3   OH232085   3.277   5.444   7.540 -0.3800  0.7077 -0.0178
 3509TIP3    H132086   3.231   5.497   7.475  0.7752 -0.0471 -1.4704
 3509TIP3    H232087   3.295   5.361   7.496  2.3419  0.9592  0.5141
 3510TIP3   OH232088   2.566   5.126   0.456 -0.1344  0.1505  0.4171
 3510TIP3    H132089   2.534   5.039   0.478 -0.1674  0.7094  2.6691
 3510TIP3    H232090   2.490   5.172   0.421 -0.1995 -0.5826 -0.4449
 3511TIP3   OH232091   5.464   6.521   0.252 -0.1081  0.2353 -0.1345
 3511TIP3    H132092   5.385   6.524   0.198 -0.0803  0.5843 -0.1606
 3511TIP3    H232093   5.430   6.521   0.342 -0.1555 -0.3606 -0.1544
 3512TIP3   OH232094   4.306   5.421   8.302  0.3952 -0.0335  0.3090
 3512TIP3    H132095   4.377   5.457   8.249  0.3279 -0.6788 -0.2311
 3512TIP3    H232096   4.226   5.453   8.260  0.3265 -1.1924 -0.4568
 3513TIP3   OH232097   5.557   5.376   7.475 -0.2062 -0.1104 -0.3219
 3513TIP3    H132098   5.512   5.314   7.418  1.6172 -0.3029 -1.5647
 3513TIP3    H232099   5.571   5.453   7.421  0.1761  0.2868  0.3325
 3514TIP3   OH232100   4.062   4.215   8.386  0.1728  0.0386  0.4238
 3514TIP3    H132101   4.098   4.291   8.433  4.0586 -0.2179 -1.9892
 3514TIP3    H232102   4.126   4.145   8.400 -1.6049 -1.7923 -0.3527
 3515TIP3   OH232103   3.416   5.251   8.422  0.1338 -0.2914  0.2843
 3515TIP3    H132104   3.406   5.160   8.393 -2.0734  0.7439 -2.4528
 3515TIP3    H232105   3.510   5.264   8.429  0.4839 -2.6209  0.1805
 3516TIP3   OH232106   5.689   5.258   1.895  0.2875 -0.5505  0.5413
 3516TIP3    H132107   5.775   5.263   1.937  1.0869 -0.7057 -1.0163
 3516TIP3    H232108   5.650   5.177   1.929  1.2530 -1.1024  0.3506
 3517TIP3   OH232109   3.299   0.121   8.273 -0.4043 -0.0597  0.4001
 3517TIP3    H132110   3.390   0.147   8.257  0.5293 -3.7204 -0.8714
 3517TIP3    H232111   3.254   0.139   8.190 -0.7702  1.3939  0.9048
 3518TIP3   OH232112   5.177   5.938   1.262 -0.1480 -0.0861  0.1661
 3518TIP3    H132113   5.098   5.972   1.219 -0.0266  1.1346  0.9097
 3518TIP3    H232114   5.239   5.925   1.190 -1.5555 -2.6247 -0.6523
 3519TIP3   OH232115   3.047   3.188   1.217  0.0175  0.3503 -0.1973
 3519TIP3    H132116   3.118   3.134   1.253  1.7802  2.3089 -0.6791
 3519TIP3    H232117   3.045   3.164   1.124  0.8213  1.1200 -0.4181
 3520TIP3   OH232118   1.125   3.502   0.072 -0.0313 -0.3336  0.7609
 3520TIP3    H132119   1.164   3.537  -0.008  0.7109 -2.7179  0.0457
 3520TIP3    H232120   1.178   3.538   0.143 -1.0551  2.2658  0.2490
 3521TIP3   OH232121   4.956   4.739   2.025  0.0263 -0.3234 -0.3484
 3521TIP3    H132122   5.051   4.725   2.024 -0.0689 -0.9738 -0.5392
 3521TIP3    H232123   4.932   4.736   2.118  0.3760  1.1572 -0.1956
 3522TIP3   OH232124   2.668   5.557   7.111  0.1928 -0.8433 -0.9046
 3522TIP3    H132125   2.705   5.638   7.076 -1.3399  1.2829  2.2040
 3522TIP3    H232126   2.744   5.503   7.133  1.2925  0.6197 -1.0282
 3523TIP3   OH232127   2.334   4.622   7.563  0.0323  0.2107  0.2001
 3523TIP3    H132128   2.292   4.699   7.525 -1.7721 -0.4999  0.7015
 3523TIP3    H232129   2.328   4.555   7.495 -2.6020 -0.8604  1.4257
 3524TIP3   OH232130   3.482   3.564   7.463  0.2078  0.4285 -0.2830
 3524TIP3    H132131   3.485   3.565   7.559 -2.2329 -0.2644 -0.1666
 3524TIP3    H232132   3.538   3.490   7.438 -0.2523 -0.2648  0.6898
 3525TIP3   OH232133   4.436   5.321   0.469 -0.5258 -0.3630 -1.0533
 3525TIP3    H132134   4.486   5.398   0.445 -1.8356  0.8810  0.1222
 3525TIP3    H232135   4.495   5.271   0.526 -0.1760  0.4814 -0.6646
 3526TIP3   OH232136   4.790   6.421   8.332 -0.1168 -0.1196  0.1372
 3526TIP3    H132137   4.729   6.351   8.312  0.9886 -0.3709 -2.6384
 3526TIP3    H232138   4.739   6.502   8.324 -0.4447 -0.4108 -0.7889
 3527TIP3   OH232139   4.934   3.388   6.685 -0.0985  0.0974  0.1517
 3527TIP3    H132140   5.009   3.329   6.680 -0.0779  0.1214  0.1684
 3527TIP3    H232141   4.937   3.437   6.603 -0.2663 -0.1072  0.0251
 3528TIP3   OH232142   1.268   4.179   0.562  0.1685 -0.0062  0.1904
 3528TIP3    H132143   1.281   4.193   0.655  3.5695 -0.2996 -0.1554
 3528TIP3    H232144   1.266   4.084   0.552  1.6882 -0.0143 -0.2045
 3529TIP3   OH232145   1.084   0.112   7.649  0.0213  0.9286 -0.5425
 3529TIP3    H132146   1.097   0.120   7.555 -0.0255  1.6596 -0.4922
 3529TIP3    H232147   1.162   0.153   7.688  0.5678 -0.3569 -0.2670
 3530TIP3   OH232148   5.829   0.565   0.846 -0.4029  0.0239  0.1401
 3530TIP3    H132149   5.779   0.545   0.926 -1.0509 -1.7914 -0.6891
 3530TIP3    H232150   5.769   0.615   0.792 -1.0261 -1.3166 -0.4426
 3531TIP3   OH232151   5.626   5.056   1.601 -0.1385 -0.5792 -0.3370
 3531TIP3    H132152   5.553   5.051   1.540  0.0322 -0.1350 -0.5826
 3531TIP3    H232153   5.597   5.117   1.669  0.0554 -0.3065 -0.5014
 3532TIP3   OH232154   5.253   4.683   6.324 -0.4014 -0.4041 -0.2424
 3532TIP3    H132155   5.171   4.698   6.372 -0.6079  0.8638 -0.9455
 3532TIP3    H232156   5.252   4.750   6.255  2.0010  0.7229  0.7441
 3533TIP3   OH232157   3.109   3.514   1.022 -0.2815 -0.0106  0.2324
 3533TIP3    H132158   3.136   3.602   0.998  2.9158 -0.9745 -0.0340
 3533TIP3    H232159   3.101   3.516   1.118 -1.7159  0.9171  0.1052
 3534TIP3   OH232160   5.076   4.664   7.257  0.4435  0.4191  0.3896
 3534TIP3    H132161   5.170   4.645   7.265  0.6489  1.1200 -0.2809
 3534TIP3    H232162   5.070   4.721   7.180 -0.4882  0.6954  0.6664
 3535TIP3   OH232163   6.888   6.531   8.326 -1.1357 -0.7011 -0.6056
 3535TIP3    H132164   6.955   6.550   8.391 -1.2587 -0.1141 -0.6535
 3535TIP3    H232165   6.858   6.443   8.349 -1.6117 -0.2595  0.5043
 3536TIP3   OH232166   0.820   6.972   7.211  0.0894  0.2212 -0.3463
 3536TIP3    H132167   0.783   6.906   7.271 -1.5265  0.7430 -0.7467
 3536TIP3    H232168   0.785   7.055   7.243  3.2918  1.1245  1.0624
 3537TIP3   OH232169   0.315   4.195   7.240  0.0959  0.4056 -0.1357
 3537TIP3    H132170   0.361   4.278   7.251  1.1218  0.0171 -1.4006
 3537TIP3    H232171   0.228   4.219   7.207  0.3094  0.9798 -0.2713
 3538TIP3   OH232172   3.417   4.412   1.143 -0.5482 -0.0982  0.6210
 3538TIP3    H132173   3.439   4.483   1.203 -0.5158  1.2550 -0.9664
 3538TIP3    H232174   3.501   4.384   1.107 -0.7393  0.5138 -0.3422
 3539TIP3   OH232175   0.512   6.242   7.470 -0.0515 -0.8848 -0.2317
 3539TIP3    H132176   0.449   6.173   7.450 -0.9012  0.0722 -0.9213
 3539TIP3    H232177   0.587   6.222   7.415 -0.8254 -0.5063 -1.4496
 3540TIP3   OH232178   0.488   0.625   1.195 -0.1978 -0.6389  0.1646
 3540TIP3    H132179   0.394   0.645   1.187 -0.2495 -0.4859  1.1446
 3540TIP3    H232180   0.516   0.610   1.105 -0.6089  1.9003 -0.4379
 3541TIP3   OH232181   6.001   5.956   6.957  0.2743  0.6200  0.5753
 3541TIP3    H132182   5.930   5.921   7.011 -0.0910 -1.2591 -1.0832
 3541TIP3    H232183   6.063   5.992   7.020 -1.1486  0.4024  2.1469
 3542TIP3   OH232184   1.514   5.403   1.803 -0.2148 -0.2371  0.6727
 3542TIP3    H132185   1.447   5.431   1.865 -0.5720 -0.5360  0.4169
 3542TIP3    H232186   1.567   5.482   1.789  0.2592 -0.3285  1.8536
 3543TIP3   OH232187   6.871   5.982   0.825  0.3152  0.5524 -0.3103
 3543TIP3    H132188   6.960   6.013   0.843  0.5478 -0.8865  1.2425
 3543TIP3    H232189   6.861   5.905   0.882 -2.4135  1.5057  0.5881
 3544TIP3   OH232190   6.884   1.780   8.305 -0.2711  1.2083 -0.0594
 3544TIP3    H132191   6.913   1.747   8.220  0.1240 -1.1462  0.9568
 3544TIP3    H232192   6.790   1.766   8.306 -0.2876  1.3123 -0.1432
 3545TIP3   OH232193   6.657   5.482   0.304  0.3153  0.1166 -0.6366
 3545TIP3    H132194   6.588   5.479   0.238  0.5314  0.1051 -0.8680
 3545TIP3    H232195   6.729   5.529   0.261  0.1273  0.9143 -0.0785
 3546TIP3   OH232196   0.372   4.618   7.100 -0.2588  0.9938 -0.1167
 3546TIP3    H132197   0.297   4.560   7.083  0.9350 -0.7289  0.3349
 3546TIP3    H232198   0.349   4.700   7.056 -2.3405  0.4511 -0.1189
 3547TIP3   OH232199   5.415   4.531   6.192 -0.1443 -0.5807 -0.2481
 3547TIP3    H132200   5.350   4.589   6.233  2.0963  0.9503  1.2669
 3547TIP3    H232201   5.448   4.582   6.118  0.9299 -0.4268  0.3333
 3548TIP3   OH232202   0.119   4.363   7.189 -0.2211  0.2987 -0.4346
 3548TIP3    H132203   0.036   4.393   7.152  0.5225  3.0311 -0.0011
 3548TIP3    H232204   0.116   4.388   7.281  0.7904 -0.2005 -0.2508
 3549TIP3   OH232205   0.618   1.598   7.684 -0.1316 -0.8741 -0.0335
 3549TIP3    H132206   0.597   1.507   7.702  0.5055 -1.0718 -0.2708
 3549TIP3    H232207   0.668   1.595   7.602 -0.1672 -0.3104 -0.0754
 3550TIP3   OH232208   6.731   5.895   6.870  0.5483  0.4774  0.0173
 3550TIP3    H132209   6.785   5.974   6.873 -0.2583  0.9847  1.6776
 3550TIP3    H232210   6.722   5.868   6.961 -2.3767  0.6792 -0.1542
 3551TIP3   OH232211   0.040   4.055   6.745 -0.1437  0.1445  0.0677
 3551TIP3    H132212   0.098   4.067   6.821  1.8056  1.8211 -1.6121
 3551TIP3    H232213   0.028   3.960   6.739  1.5520 -0.1618  1.1049
 3552TIP3   OH232214   4.712   5.653   7.827 -0.1675  0.0148 -0.0629
 3552TIP3    H132215   4.753   5.582   7.778 -0.0391 -0.4592  0.7263
 3552TIP3    H232216   4.741   5.640   7.917 -3.1711 -1.1924  0.7958
 3553TIP3   OH232217   4.305   3.687   7.252 -0.2733 -0.7919 -0.5785
 3553TIP3    H132218   4.327   3.733   7.171  1.6637  1.4180  1.1123
 3553TIP3    H232219   4.343   3.600   7.241  1.5869  0.0800 -1.3275
 3554TIP3   OH232220   7.251   6.025   2.051  0.2825  0.4000 -0.3229
 3554TIP3    H132221   7.293   6.093   1.999 -0.5323 -0.2311 -1.8223
 3554TIP3    H232222   7.323   5.967   2.076  1.0043  1.8870  1.1088
 3555TIP3   OH232223   4.082   4.956   0.168 -0.1380  0.5553  0.3685
 3555TIP3    H132224   4.089   4.861   0.163 -1.0869  0.3325  2.6057
 3555TIP3    H232225   4.057   4.983   0.080  1.1043 -1.1481 -0.5473
 3556TIP3   OH232226   1.211   5.577   8.297  0.3458  0.3283 -0.0327
 3556TIP3    H132227   1.286   5.549   8.244  0.3259  1.4704 -0.6874
 3556TIP3    H232228   1.237   5.560   8.387  1.7908  1.5862 -0.1908
 3557TIP3   OH232229   4.335   4.064   1.420 -0.8918  0.0032  0.2241
 3557TIP3    H132230   4.370   4.147   1.450 -1.2127  0.9391 -1.8870
 3557TIP3    H232231   4.408   4.024   1.371 -0.9349 -0.6703  0.7070
 3558TIP3   OH232232   4.401   5.300   6.938  0.4783  0.0771 -0.0890
 3558TIP3    H132233   4.489   5.287   6.901 -0.2848  0.1528 -1.9943
 3558TIP3    H232234   4.401   5.392   6.966  1.0513  0.0385  0.0509
 3559TIP3   OH232235   6.684   0.180   0.448 -0.3372  0.1532  0.0095
 3559TIP3    H132236   6.683   0.152   0.357  0.3021 -0.0521  0.0578
 3559TIP3    H232237   6.645   0.267   0.448 -0.0332  0.2870 -0.5049
 3560TIP3   OH232238   5.796   5.853   6.757  0.1882 -0.7060 -0.7001
 3560TIP3    H132239   5.810   5.890   6.844 -1.0783  0.5744 -1.0259
 3560TIP3    H232240   5.883   5.824   6.729  0.9214  0.5312  0.2404
 3561TIP3   OH232241   1.934   1.212   7.754 -0.5006  0.1932 -0.0366
 3561TIP3    H132242   1.940   1.285   7.692 -0.9856  0.6957  0.5118
 3561TIP3    H232243   1.907   1.138   7.699 -1.2924  0.7186 -0.3786
 3562TIP3   OH232244   2.271   5.651   1.052 -0.6026 -0.2355 -0.8043
 3562TIP3    H132245   2.211   5.699   0.994  0.5428  0.5377 -1.3698
 3562TIP3    H232246   2.296   5.574   1.001  0.5680  0.5511 -1.4388
 3563TIP3   OH232247   2.909   7.065   0.307 -0.1493  0.5843  0.1090
 3563TIP3    H132248   2.914   7.137   0.370 -0.5151  0.0910  0.6968
 3563TIP3    H232249   2.890   6.988   0.360  0.2519  0.0503 -0.5213
 3564TIP3   OH232250   1.128   5.822   6.532 -0.6361 -0.2177  0.1106
 3564TIP3    H132251   1.105   5.762   6.461  2.9021 -0.3695 -1.0275
 3564TIP3    H232252   1.136   5.766   6.609  3.7126 -1.5924 -1.1545
 3565TIP3   OH232253   1.878   0.422   6.995  0.1020  0.5440  0.4805
 3565TIP3    H132254   1.965   0.389   7.019  0.4073  1.8124  1.1681
 3565TIP3    H232255   1.836   0.348   6.951  0.6243 -0.8864  2.3010
 3566TIP3   OH232256   6.074   5.777   6.760 -0.1605 -0.1173 -0.6425
 3566TIP3    H132257   6.072   5.839   6.833 -0.5023  1.0354 -1.6057
 3566TIP3    H232258   6.146   5.717   6.780  1.2239  1.5634 -0.4703
 3567TIP3   OH232259   2.572   6.496   0.741  0.4949  0.2664  0.1827
 3567TIP3    H132260   2.491   6.489   0.689  0.0374  0.4991  0.8590
 3567TIP3    H232261   2.574   6.587   0.771  1.0291  0.2725  0.1393
 3568TIP3   OH232262   1.846   6.230   8.134 -0.0238 -0.7332 -0.0230
 3568TIP3    H132263   1.868   6.246   8.042 -0.9901 -2.0551 -0.5003
 3568TIP3    H232264   1.852   6.316   8.175  2.5665 -0.5044 -0.8409
 3569TIP3   OH232265   3.020   0.909   0.155  0.2868 -0.0258  0.7562
 3569TIP3    H132266   2.990   0.872   0.072  2.6229 -0.8370  0.2383
 3569TIP3    H232267   2.942   0.907   0.211 -1.3166  0.4798 -1.3643
 3570TIP3   OH232268   0.193   0.911   7.833  0.2968 -0.2481  0.0268
 3570TIP3    H132269   0.151   0.864   7.905  2.4665 -3.3104 -0.5609
 3570TIP3    H232270   0.141   0.990   7.821 -3.1152 -2.1467  1.6146
 3571TIP3   OH232271   1.564   6.675   0.801 -0.0942  0.0709  0.5484
 3571TIP3    H132272   1.558   6.595   0.853  0.1148  0.1883  0.7508
 3571TIP3    H232273   1.530   6.744   0.858  1.0968  0.3750  0.9069
 3572TIP3   OH232274   1.605   6.070   8.226 -0.6847  0.1619  0.7269
 3572TIP3    H132275   1.656   5.992   8.251  0.9356  1.5364  1.9103
 3572TIP3    H232276   1.672   6.136   8.206 -2.0376  1.0870 -0.8233
 3573TIP3   OH232277   3.523   6.934   1.591 -0.1490 -0.4550  0.3548
 3573TIP3    H132278   3.541   7.009   1.647 -0.3200 -0.3379  0.2510
 3573TIP3    H232279   3.590   6.870   1.615 -0.5966 -0.6370  1.1215
 3574TIP3   OH232280   5.724   6.989   8.461  0.5289 -0.3846  0.2582
 3574TIP3    H132281   5.772   6.921   8.414 -0.2468  0.3980 -1.7290
 3574TIP3    H232282   5.768   6.996   8.545  2.1803 -1.5926 -0.4766
 3575TIP3   OH232283   2.620   6.149   0.583  0.4833  0.2743 -0.3567
 3575TIP3    H132284   2.552   6.209   0.615  0.8979  0.3097  0.4845
 3575TIP3    H232285   2.588   6.119   0.498 -0.5426  0.3593 -0.0089
 3576TIP3   OH232286   3.080   3.972   8.020  0.0461 -0.4839 -0.0514
 3576TIP3    H132287   3.097   3.889   7.976  1.3482 -0.0857 -0.3094
 3576TIP3    H232288   3.016   3.950   8.088  0.0586 -1.6124 -0.3899
 3577TIP3   OH232289   0.054   1.533   8.239  0.5876 -0.0266 -0.1868
 3577TIP3    H132290   0.089   1.457   8.285  2.3565  0.2811 -0.9793
 3577TIP3    H232291   0.001   1.579   8.305  2.8420  0.2450  1.4818
 3578TIP3   OH232292   2.003   7.088   0.275 -0.1577 -0.0321  0.4245
 3578TIP3    H132293   1.973   7.047   0.357  0.5026 -1.4938 -0.0360
 3578TIP3    H232294   1.948   7.048   0.207 -0.2554  0.6856  0.0787
 3579TIP3   OH232295   3.932   1.349   0.367  0.1270 -0.1207  0.6883
 3579TIP3    H132296   4.019   1.322   0.340 -0.0863 -0.9771  0.8310
 3579TIP3    H232297   3.875   1.277   0.340 -0.4511  0.1631  1.1219
 3580TIP3   OH232298   0.171   2.905   6.942 -0.5457  0.0843 -0.1499
 3580TIP3    H132299   0.139   2.941   7.025 -2.4739  0.1994 -0.9229
 3580TIP3    H232300   0.254   2.863   6.965 -1.6835 -1.0371  2.0984
 3581TIP3   OH232301   3.378   4.866   1.184 -0.3393 -0.0441 -0.2704
 3581TIP3    H132302   3.365   4.939   1.244 -0.3177  1.6450 -2.2485
 3581TIP3    H232303   3.464   4.882   1.146 -0.1789 -1.3175 -0.4628
 3582TIP3   OH232304   2.360   1.944   7.364 -0.0132  0.0104  0.2507
 3582TIP3    H132305   2.324   1.856   7.371 -0.0270 -0.1306 -1.3942
 3582TIP3    H232306   2.448   1.937   7.402  0.0095 -0.7342  0.0726
 3583TIP3   OH232307   1.056   7.130   7.635  0.2146 -0.6208  0.2240
 3583TIP3    H132308   1.025   7.169   7.553  0.4605 -2.6651 -0.8804
 3583TIP3    H232309   1.049   7.200   7.700  0.3098  1.1079 -1.6115
 3584TIP3   OH232310   0.460   0.556   6.995 -0.0679  0.1972 -0.0709
 3584TIP3    H132311   0.472   0.586   7.085  2.3187 -0.7681 -0.0444
 3584TIP3    H232312   0.382   0.602   6.964 -0.2721  1.3503  2.1278
 3585TIP3   OH232313   6.888   0.291   0.597 -0.1760 -0.2067  0.2053
 3585TIP3    H132314   6.931   0.273   0.513  1.2289 -0.2686  0.9216
 3585TIP3    H232315   6.794   0.290   0.576  0.1217 -0.9766 -1.2119
 3586TIP3   OH232316   2.270   7.203   7.737 -0.2334 -0.1167  0.2930
 3586TIP3    H132317   2.226   7.148   7.802  0.4672  0.0021  0.8747
 3586TIP3    H232318   2.270   7.150   7.657 -3.1815  0.6630 -0.2692
 3587TIP3   OH232319   0.071   5.144   6.824  0.1484  0.7198  0.3752
 3587TIP3    H132320   0.161   5.140   6.793  0.2307 -0.2061  0.7006
 3587TIP3    H232321   0.076   5.182   6.912  0.0810  1.8577 -0.1041
 3588TIP3   OH232322   4.870   0.830   0.414 -0.6093 -0.0064 -0.4313
 3588TIP3    H132323   4.904   0.754   0.367 -1.8467 -0.5140 -0.5065
 3588TIP3    H232324   4.948   0.884   0.431  0.0687 -0.5820 -1.6474
 3589TIP3   OH232325   0.721   7.118   8.380 -0.5680 -0.1830 -0.5067
 3589TIP3    H132326   0.726   7.092   8.471  1.7715 -1.3043 -0.9261
 3589TIP3    H232327   0.810   7.146   8.358 -1.4321  1.4996 -2.0367
 3590TIP3   OH232328   2.460   0.498   7.484  0.3237 -0.2296 -0.7531
 3590TIP3    H132329   2.384   0.484   7.541 -0.5450 -1.9488 -2.2721
 3590TIP3    H232330   2.424   0.496   7.396  2.0942 -0.8160 -1.4799
 3591TIP3   OH232331   1.701   0.587   8.271 -0.2738 -0.2865 -0.1316
 3591TIP3    H132332   1.712   0.495   8.247 -2.4122 -0.4273 -0.6905
 3591TIP3    H232333   1.631   0.586   8.336  0.0791  0.8921  0.2665
 3592TIP3   OH232334   4.294   5.571   7.650 -0.1656 -0.4747 -0.5005
 3592TIP3    H132335   4.349   5.630   7.702  0.8989 -1.9588  0.1079
 3592TIP3    H232336   4.234   5.629   7.603  0.4540  1.0431  0.5343
 3593TIP3   OH232337   1.924   7.190   7.506 -1.3086 -0.2441 -0.1896
 3593TIP3    H132338   1.972   7.215   7.427  0.7504 -0.5961  0.9284
 3593TIP3    H232339   1.992   7.169   7.570 -2.8536  3.1823  2.7207
 3594TIP3   OH232340   2.371   5.320   0.266  0.3594 -0.2107 -0.5230
 3594TIP3    H132341   2.389   5.254   0.198  1.1288 -0.3093 -0.2329
 3594TIP3    H232342   2.411   5.400   0.232  0.2541 -0.1269 -0.4461
 3595TIP3   OH232343   2.616   7.135   7.106  0.2546  0.7695 -0.6800
 3595TIP3    H132344   2.578   7.213   7.066 -0.6663  1.0872  0.7607
 3595TIP3    H232345   2.553   7.111   7.175  1.0060 -0.6765 -0.4780
 3596TIP3   OH232346   0.077   6.185   7.170  0.1050  0.0968 -0.7150
 3596TIP3    H132347  -0.000   6.241   7.167  1.5695  2.4490  2.7346
 3596TIP3    H232348   0.144   6.235   7.122  0.8864  0.4470  0.7253
 3597TIP3   OH232349   0.069   6.824   0.512  0.3714 -1.4278  0.6526
 3597TIP3    H132350   0.011   6.900   0.519  1.9358 -0.1292 -0.2199
 3597TIP3    H232351   0.009   6.749   0.501 -1.1542 -0.2003  0.3978
 3598TIP3   OH232352   2.908   6.724   7.864  0.0571  0.1975 -0.2443
 3598TIP3    H132353   2.827   6.675   7.882  1.2811 -0.8612  2.5630
 3598TIP3    H232354   2.891   6.812   7.899 -0.9076  0.8478 -2.2718
 3599TIP3   OH232355   0.687   5.451   1.083  0.1183 -0.3320  0.2627
 3599TIP3    H132356   0.749   5.523   1.072 -0.2666 -0.2883 -1.9043
 3599TIP3    H232357   0.740   5.377   1.111  0.9069  0.1185 -0.0333
 3600TIP3   OH232358   1.841   5.977   0.577 -0.1907  0.0739 -0.3694
 3600TIP3    H132359   1.866   5.885   0.565  1.1332  0.2955  0.5776
 3600TIP3    H232360   1.850   5.991   0.671 -0.2035  1.2322 -0.5405
 3601TIP3   OH232361   1.122   5.010   0.570  0.1373 -0.7174  0.0175
 3601TIP3    H132362   1.197   4.987   0.515 -0.7807 -1.0161 -1.1452
 3601TIP3    H232363   1.141   4.970   0.655  0.1567 -2.9125 -0.9758
 3602TIP3   OH232364   1.710   7.294   7.049  0.4396  0.1219  0.1100
 3602TIP3    H132365   1.673   7.264   7.132 -1.8678  0.9021 -0.6204
 3602TIP3    H232366   1.665   7.243   6.982  2.6696 -0.8778 -0.6636
 3603TIP3   OH232367   0.944   5.157   1.801  0.4939  0.1702 -1.2008
 3603TIP3    H132368   1.006   5.127   1.867 -1.4768 -1.7114 -0.0977
 3603TIP3    H232369   0.984   5.234   1.762  3.2107 -0.6614 -0.1231
 3604TIP3   OH232370   1.228   5.515   7.387 -0.2079  0.4651  0.0740
 3604TIP3    H132371   1.312   5.499   7.344 -0.2425 -1.3043  0.6117
 3604TIP3    H232372   1.234   5.605   7.419  0.6103  1.1037 -1.8172
 3605TIP3   OH232373   2.424   7.174   6.504  0.4343 -0.0139  0.1800
 3605TIP3    H132374   2.454   7.111   6.439  0.5753 -0.4761  0.6849
 3605TIP3    H232375   2.408   7.255   6.455 -0.4109 -0.6373 -0.5959
 3606TIP3   OH232376   2.920   6.645   6.120 -0.2355 -0.2087  0.0523
 3606TIP3    H132377   2.935   6.674   6.030  1.5579  0.2896  0.4977
 3606TIP3    H232378   2.825   6.643   6.129 -0.4170  0.9314 -1.4686
 3607TIP3   OH232379   1.694   5.122   1.338 -0.7045  0.0088  0.0497
 3607TIP3    H132380   1.650   5.102   1.256 -0.5596  1.4084 -0.3843
 3607TIP3    H232381   1.785   5.097   1.324 -0.7363 -0.0112 -0.1135
 3608TIP3   OH232382   1.975   6.018   1.365 -0.1386 -0.7018 -0.2541
 3608TIP3    H132383   1.915   6.002   1.292 -1.7489  0.4884  0.8008
 3608TIP3    H232384   1.982   5.934   1.410  2.3358 -1.9615 -2.8186
 3609TIP3   OH232385   4.525   6.673   7.435  0.5331  0.4961 -0.1716
 3609TIP3    H132386   4.617   6.661   7.462  0.6846  1.5862 -0.1585
 3609TIP3    H232387   4.477   6.679   7.517  0.6859  1.5537 -0.1457
 3610TIP3   OH232388   4.273   6.516   0.646 -0.3546  0.4942  0.2014
 3610TIP3    H132389   4.272   6.547   0.736  0.2495  1.7285 -0.2156
 3610TIP3    H232390   4.365   6.500   0.626 -0.6944 -2.3634  0.6575
 3611TIP3   OH232391   3.089   3.418   7.841 -0.5134  0.1658  0.0257
 3611TIP3    H132392   3.177   3.414   7.878 -1.3623  0.6977  2.1876
 3611TIP3    H232393   3.076   3.332   7.801  0.9681  0.0732 -0.2794
 3612TIP3   OH232394   2.479   0.015   7.547  0.1316 -0.5718 -0.3707
 3612TIP3    H132395   2.574   0.010   7.562  0.0617  0.8791  0.6629
 3612TIP3    H232396   2.440  -0.026   7.624 -0.1212  1.8128  0.8172
 3613TIP3   OH232397   3.912   4.216   7.966 -0.5574 -0.2170 -0.2962
 3613TIP3    H132398   3.967   4.148   8.005 -1.0664  0.0639  0.9493
 3613TIP3    H232399   3.934   4.215   7.873  0.3787 -1.1983 -0.0714
 3614TIP3   OH232400   3.752   0.297   7.216  0.0482  0.5767  0.1608
 3614TIP3    H132401   3.683   0.290   7.151  1.6350  0.1180 -1.5162
 3614TIP3    H232402   3.733   0.378   7.264 -0.2802  1.7442 -1.9059
 3615TIP3   OH232403   1.860   0.663   6.914  0.3842 -0.6519 -0.0867
 3615TIP3    H132404   1.881   0.573   6.937  0.0429 -1.1211 -1.5808
 3615TIP3    H232405   1.812   0.657   6.831 -0.8809  0.7911  0.4954
 3616TIP3   OH232406   3.911   6.442   8.019  0.1124 -0.6095 -0.0931
 3616TIP3    H132407   3.967   6.371   7.989  0.2509 -0.1244 -1.0198
 3616TIP3    H232408   3.943   6.519   7.970  0.4182  0.2253  1.3870
 3617TIP3   OH232409   2.355   1.373   1.321  0.2962 -0.1996 -0.0823
 3617TIP3    H132410   2.437   1.421   1.315  0.0182  0.2821 -0.0455
 3617TIP3    H232411   2.326   1.386   1.411  0.5343 -0.9509  0.1006
 3618TIP3   OH232412   1.766   5.498   8.163 -0.3807  0.8843  0.3032
 3618TIP3    H132413   1.782   5.462   8.076 -0.5374 -0.3980  0.7952
 3618TIP3    H232414   1.852   5.505   8.204 -0.2260  2.2074 -0.2203
 3619TIP3   OH232415   1.510   0.207   0.878  0.4285 -0.0262  0.3171
 3619TIP3    H132416   1.575   0.250   0.822  1.5583  0.0781  1.6747
 3619TIP3    H232417   1.487   0.273   0.943  1.3215 -1.0906  1.7338
 3620TIP3   OH232418   2.854   4.626   8.198  0.5032  0.2572  0.0047
 3620TIP3    H132419   2.858   4.598   8.290 -0.7171 -0.0276 -0.0220
 3620TIP3    H232420   2.910   4.564   8.153  1.8909  0.9895  0.6924
 3621TIP3   OH232421   2.184   7.096   8.191 -0.2775 -0.5604 -0.2452
 3621TIP3    H132422   2.139   7.038   8.253 -0.2019 -0.5106 -0.1444
 3621TIP3    H232423   2.271   7.108   8.228 -1.0081  1.4011  0.8957
 3622TIP3   OH232424   5.703   6.755   6.828  0.0154  0.3829 -0.2584
 3622TIP3    H132425   5.797   6.739   6.835 -0.0476  0.3626  0.6080
 3622TIP3    H232426   5.692   6.793   6.741  0.4060 -2.4207 -1.5649
 3623TIP3   OH232427   2.374   0.937   0.235 -0.2002  0.1432  0.0712
 3623TIP3    H132428   2.342   0.856   0.275 -1.7016  0.7941  0.2200
 3623TIP3    H232429   2.376   0.917   0.141  2.3412 -1.0409  0.3328
 3624TIP3   OH232430   2.857   6.933   7.328  0.7516  0.2210  0.1834
 3624TIP3    H132431   2.894   6.925   7.416  1.0577 -2.0051 -0.1075
 3624TIP3    H232432   2.763   6.931   7.341  0.7931 -1.6003  0.3814
 3625TIP3   OH232433   6.164   0.191   8.467  0.3438  0.1523 -0.3323
 3625TIP3    H132434   6.141   0.271   8.514 -0.4777 -0.3565  0.1530
 3625TIP3    H232435   6.254   0.173   8.493  0.0727  0.1586  0.6691
 3626TIP3   OH232436   3.732   6.985   0.947  0.5938  0.1335  0.5743
 3626TIP3    H132437   3.778   7.048   1.002 -0.6223  0.1772  1.5489
 3626TIP3    H232438   3.776   6.901   0.964  0.7568  0.3023  0.9831
 3627TIP3   OH232439   3.361   3.370   8.460  0.0073 -0.5376 -0.5706
 3627TIP3    H132440   3.336   3.438   8.397  1.3717  0.2217 -0.3095
 3627TIP3    H232441   3.449   3.395   8.489  0.2780 -2.0849 -0.0050
 3628TIP3   OH232442   3.323   7.197   8.432  0.3942 -0.3884  0.4463
 3628TIP3    H132443   3.343   7.271   8.375  2.5510 -1.1344  0.1839
 3628TIP3    H232444   3.244   7.158   8.393 -0.3787  1.3528  0.2071
 3629TIP3   OH232445   1.620   6.349   0.329  0.2338  0.4424  0.6228
 3629TIP3    H132446   1.640   6.256   0.336 -0.0156  0.4223  1.0871
 3629TIP3    H232447   1.600   6.363   0.237  1.0699  0.2014  0.3957
 3630TIP3   OH232448   2.728   5.224   8.291  0.2437 -0.0360  0.1512
 3630TIP3    H132449   2.680   5.208   8.210 -0.3414  0.0857  0.4704
 3630TIP3    H232450   2.723   5.140   8.338 -2.9201  1.0630  1.8811
 3631TIP3   OH232451   3.499   6.730   7.828 -0.4024 -0.8616 -0.9816
 3631TIP3    H132452   3.445   6.778   7.765  2.5364 -0.6569 -3.4600
 3631TIP3    H232453   3.477   6.770   7.912 -1.6747  1.4579 -2.3390
 3632TIP3   OH232454   2.661   6.955   7.673  0.3323 -0.3361 -0.0382
 3632TIP3    H132455   2.679   6.869   7.634  1.2879 -1.2171  2.2562
 3632TIP3    H232456   2.629   6.935   7.760 -1.3863  1.6133 -0.2009
 3633TIP3   OH232457   0.359   5.378   1.669  0.0168 -0.4589 -0.3324
 3633TIP3    H132458   0.267   5.403   1.664  0.1850  0.2483  0.0042
 3633TIP3    H232459   0.405   5.448   1.622  0.3278 -1.1352 -1.0459
 3634TIP3   OH232460   3.991   0.422   8.234  0.7723  0.2811  0.6604
 3634TIP3    H132461   3.985   0.482   8.160 -0.2234  0.5044  0.9211
 3634TIP3    H232462   4.068   0.452   8.283  1.4921  0.0726 -0.3244
 3635TIP3   OH232463   3.029   6.539   7.663  0.3883 -0.4376 -0.0441
 3635TIP3    H132464   2.945   6.495   7.652  1.0847 -1.6291 -0.6656
 3635TIP3    H232465   3.007   6.624   7.702 -1.0456 -0.9689  0.3216
 3636TIP3   OH232466   6.401   6.285   7.312  0.4257 -0.3278 -0.1583
 3636TIP3    H132467   6.474   6.230   7.283  0.4376 -0.3873 -0.0147
 3636TIP3    H232468   6.435   6.332   7.388  0.4275 -0.0955 -0.3011
 3637TIP3   OH232469   2.941   0.475   1.441  0.0127  0.3199  0.0706
 3637TIP3    H132470   2.924   0.440   1.529 -0.4803  1.4385  0.4352
 3637TIP3    H232471   2.917   0.568   1.448 -0.3701  0.3262 -1.3516
 3638TIP3   OH232472   6.314   5.344   7.858  0.0604 -0.1241 -0.3226
 3638TIP3    H132473   6.407   5.325   7.873  0.2426 -0.2434 -1.5773
 3638TIP3    H232474   6.314   5.426   7.808 -0.5558  0.4012  0.5089
 3639TIP3   OH232475   4.944   0.529   6.359 -0.0427 -0.0742  0.4131
 3639TIP3    H132476   4.977   0.611   6.322 -0.9640  1.0115  1.9357
 3639TIP3    H232477   4.908   0.481   6.283  0.1928  1.0808 -0.4343
 3640TIP3   OH232478   3.751   7.159   8.047  0.3992  0.0024  0.0252
 3640TIP3    H132479   3.843   7.181   8.065  0.4937 -0.7949  0.5359
 3640TIP3    H232480   3.716   7.134   8.133 -0.4316  0.7652 -0.0835
 3641TIP3   OH232481   6.418   5.888   7.925  0.5202 -0.6822 -0.6848
 3641TIP3    H132482   6.451   5.953   7.863 -0.7299  0.0124 -0.6288
 3641TIP3    H232483   6.332   5.864   7.891  0.6068 -1.6886 -0.2339
 3642TIP3   OH232484   1.310   4.691   0.497  0.4000 -0.8855  0.4657
 3642TIP3    H132485   1.394   4.674   0.456 -0.2618 -1.4787 -0.6474
 3642TIP3    H232486   1.291   4.783   0.477  0.4641 -0.9423  0.1535
 3643TIP3   OH232487   6.142   6.723   7.196 -0.0213 -0.3198  0.3169
 3643TIP3    H132488   6.218   6.682   7.154 -0.1411 -0.9237  0.6853
 3643TIP3    H232489   6.115   6.660   7.263 -0.6444  0.0413  0.4073
 3644TIP3   OH232490   6.602   6.323   7.569  0.5103 -0.0498 -0.5638
 3644TIP3    H132491   6.551   6.397   7.603 -1.5316 -2.1861  1.2750
 3644TIP3    H232492   6.691   6.357   7.560 -0.5956  2.9187 -0.8432
 3645TIP3   OH232493   4.910   6.021   0.850  0.1403 -0.1394 -0.3253
 3645TIP3    H132494   4.908   5.929   0.822 -0.6974 -0.1744 -0.1622
 3645TIP3    H232495   4.916   6.017   0.946  0.2008 -0.0243 -0.3239
 3646TIP3   OH232496   4.016   7.277   8.097  0.5860  0.3304 -0.0123
 3646TIP3    H132497   4.002   7.369   8.079 -1.1494 -0.1863 -1.4257
 3646TIP3    H232498   4.063   7.244   8.020  0.1007 -0.2094 -0.0875
 3647TIP3   OH232499   6.341   4.303   1.637  0.3130  0.7055 -0.0547
 3647TIP3    H132500   6.334   4.241   1.709  0.8045  1.5807  0.7581
 3647TIP3    H232501   6.434   4.308   1.618 -0.0038 -1.5065 -2.5352
 3648TIP3   OH232502   4.189   5.476   1.432 -0.0357  0.1696 -0.1193
 3648TIP3    H132503   4.151   5.418   1.366  1.0562 -0.5890 -0.1114
 3648TIP3    H232504   4.275   5.436   1.451  0.4954  1.4896  0.2887
 3649TIP3   OH232505   4.783   5.808   7.576  0.0861  0.5138  0.7453
 3649TIP3    H132506   4.729   5.738   7.538 -1.0398  1.1527  1.1752
 3649TIP3    H232507   4.790   5.785   7.669 -2.4685  2.3475  1.4309
 3650TIP3   OH232508   3.926   4.560   7.753  0.2214  0.0818  0.0943
 3650TIP3    H132509   3.976   4.619   7.808  1.0222 -1.4154  0.9981
 3650TIP3    H232510   3.992   4.509   7.705 -0.4420 -0.5830 -0.1356
 3651TIP3   OH232511   1.920   6.022   0.849 -0.1801 -0.3814  0.2176
 3651TIP3    H132512   1.882   6.108   0.835 -1.1312 -0.8851 -0.4338
 3651TIP3    H232513   2.008   6.038   0.883  0.3852  0.8731 -1.7670
 3652TIP3   OH232514   3.459   7.203   7.922  1.1308 -0.4008 -0.7906
 3652TIP3    H132515   3.482   7.296   7.922  0.4749 -0.2390 -1.1309
 3652TIP3    H232516   3.522   7.163   7.983 -0.4668  0.7412  1.7085
 3653TIP3   OH232517   4.081   5.007   1.369 -0.1162 -0.1742 -0.0020
 3653TIP3    H132518   4.140   4.970   1.304  0.4102 -0.5341  0.6708
 3653TIP3    H232519   4.028   4.932   1.399  1.5756 -0.5965  2.0300
 3654TIP3   OH232520   6.803   0.982   7.772  0.1377  0.0814 -0.8351
 3654TIP3    H132521   6.853   0.904   7.749 -0.2074 -0.7702  1.1925
 3654TIP3    H232522   6.864   1.035   7.824 -0.3920  0.0104 -0.1347
 3655TIP3   OH232523   5.160   6.905   7.116 -0.6226  0.2658  0.0342
 3655TIP3    H132524   5.173   6.979   7.176 -1.7928 -0.0277  0.6745
 3655TIP3    H232525   5.087   6.857   7.154 -0.1624 -0.9691 -0.6339
 3656TIP3   OH232526   2.695   5.810   1.092 -0.0938 -0.3619  0.0472
 3656TIP3    H132527   2.693   5.768   1.006 -0.3115 -0.6948  0.2128
 3656TIP3    H232528   2.609   5.851   1.101 -0.0649 -0.3122  0.0956
 3657TIP3   OH232529   3.397   3.833   8.053  0.0097  0.8690  0.2854
 3657TIP3    H132530   3.315   3.804   8.014  1.3437 -1.1842 -1.1161
 3657TIP3    H232531   3.429   3.903   7.994 -0.0573  0.7070  0.0568
 3658TIP3   OH232532   4.691   0.247   7.042 -0.0671  0.0534 -0.1816
 3658TIP3    H132533   4.669   0.338   7.024  0.9474  1.0326  3.2084
 3658TIP3    H232534   4.752   0.222   6.972  1.4860  2.7238  0.1658
 3659TIP3   OH232535   6.029   0.282   7.975 -0.7569 -0.0591 -0.0997
 3659TIP3    H132536   5.958   0.229   8.011 -1.1719  2.3720  2.8098
 3659TIP3    H232537   6.090   0.294   8.048 -0.1124  2.4876 -0.9925
 3660TIP3   OH232538   5.440   6.792   7.827 -0.8356  0.2847  0.1781
 3660TIP3    H132539   5.345   6.778   7.833 -0.9012  0.0485 -1.3263
 3660TIP3    H232540   5.476   6.705   7.806 -0.3018  0.4147  0.5471
 3661TIP3   OH232541   4.783   1.247   1.394 -0.6732 -0.6642 -0.3957
 3661TIP3    H132542   4.844   1.178   1.369 -3.0235 -2.7847 -0.4152
 3661TIP3    H232543   4.752   1.221   1.481 -1.0861  0.7300 -0.1123
 3662TIP3   OH232544   6.060   6.192   0.266  0.2200 -0.6240 -0.2329
 3662TIP3    H132545   6.035   6.100   0.277 -0.1231 -0.5439 -0.3587
 3662TIP3    H232546   6.073   6.203   0.172 -0.2996 -0.3933 -0.2763
 3663TIP3   OH232547   5.385   6.262   0.227 -0.2548  0.0953  0.1228
 3663TIP3    H132548   5.294   6.277   0.250 -0.1197 -0.1211  0.8255
 3663TIP3    H232549   5.424   6.349   0.223 -0.0007  0.0953  1.9323
 3664TIP3   OH232550   5.067   5.790   0.557  0.1348  0.0456 -0.0022
 3664TIP3    H132551   5.013   5.775   0.635  0.8423 -2.6595  0.0359
 3664TIP3    H232552   5.010   5.839   0.497 -2.0452 -1.8231  0.4351
 3665TIP3   OH232553   5.049   1.312   6.529  0.4982 -0.0981 -0.0069
 3665TIP3    H132554   5.022   1.387   6.476 -0.7306 -1.2285 -1.0090
 3665TIP3    H232555   5.126   1.277   6.484 -1.7675 -2.3351 -2.3463
 3666TIP3   OH232556   4.986   0.596   0.259  0.3135  0.3880  0.0686
 3666TIP3    H132557   4.897   0.570   0.236 -0.6788  1.0511  2.9375
 3666TIP3    H232558   5.028   0.516   0.291  1.1425 -0.1569 -2.2548
 3667TIP3   OH232559   5.254   7.044   7.901 -0.0838  0.0332 -0.4448
 3667TIP3    H132560   5.342   7.057   7.937 -0.5135 -1.3808  1.1753
 3667TIP3    H232561   5.269   7.004   7.815  0.8577  0.6148 -0.5642
 3668TIP3   OH232562   6.631   5.407   6.867 -0.3518 -0.5968 -0.2170
 3668TIP3    H132563   6.584   5.489   6.884  0.9213 -0.0185  0.6638
 3668TIP3    H232564   6.589   5.343   6.924 -0.1412 -0.1081  0.4955
 3669TIP3   OH232565   2.418   3.972   0.153 -0.1432 -0.0782  0.0540
 3669TIP3    H132566   2.476   3.956   0.227 -0.7585 -1.1582  0.3049
 3669TIP3    H232567   2.360   4.042   0.183 -0.5241 -0.6530  0.6661
 3670TIP3   OH232568   1.030   5.512   6.546  0.2281  0.1114  0.0635
 3670TIP3    H132569   1.087   5.435   6.543 -1.5289 -1.2254  0.0505
 3670TIP3    H232570   1.036   5.551   6.459  0.4639 -0.5157 -0.2020
 3671TIP3   OH232571   3.020   6.509   0.540 -0.0012 -0.1195  0.4301
 3671TIP3    H132572   3.023   6.413   0.532  0.1942 -0.2035  1.5253
 3671TIP3    H232573   3.072   6.529   0.618  0.6407  0.9440 -0.2516
 3672TIP3   OH232574   1.648   6.542   8.227 -0.7851 -0.8050  0.0590
 3672TIP3    H132575   1.594   6.616   8.254 -1.0906 -1.6296  1.7848
 3672TIP3    H232576   1.591   6.490   8.170 -1.1273 -0.6000  0.2152
 3673TIP3   OH232577   6.815   6.077   7.521 -0.2879 -0.0150  0.1951
 3673TIP3    H132578   6.763   6.041   7.450  0.3253 -1.2232  0.3361
 3673TIP3    H232579   6.757   6.078   7.597 -1.1768  1.9813 -0.4736
 3674TIP3   OH232580   0.232   6.994   7.333 -0.0592  0.2639 -0.8267
 3674TIP3    H132581   0.226   7.086   7.309 -1.2044  0.1133 -1.1288
 3674TIP3    H232582   0.186   6.987   7.416  1.6869  0.3100  0.1577
 3675TIP3   OH232583   6.819   6.521   0.188 -0.2672  0.5580  0.4810
 3675TIP3    H132584   6.888   6.555   0.131 -0.5137  0.6879  0.2565
 3675TIP3    H232585   6.743   6.513   0.130  0.0017 -1.1519  0.3356
 3676TIP3   OH232586   6.035   5.305   7.897  0.0706 -0.3791  0.2599
 3676TIP3    H132587   6.069   5.387   7.863  1.2774 -0.7342  0.6073
 3676TIP3    H232588   6.112   5.256   7.926 -0.8578 -0.4044  2.8130
 3677TIP3   OH232589   4.970   5.692   7.096  0.0589 -0.7540  0.2022
 3677TIP3    H132590   4.882   5.708   7.130 -1.1630 -1.9840 -2.2311
 3677TIP3    H232591   4.968   5.601   7.066  1.9216 -0.5559 -0.5636
 3678TIP3   OH232592   6.143   0.368   6.611  0.1106 -0.2536 -0.3788
 3678TIP3    H132593   6.063   0.341   6.567 -0.5079 -0.6165  0.9492
 3678TIP3    H232594   6.213   0.344   6.551 -0.7886  0.3019 -1.6604
 3679TIP3   OH232595   7.213   5.292   8.312  0.1339  0.4396  0.2803
 3679TIP3    H132596   7.224   5.354   8.240  0.9748  0.3364  0.3226
 3679TIP3    H232597   7.292   5.302   8.365  0.5048 -1.0201  0.0271
 3680TIP3   OH232598   6.051   6.664   7.963 -0.0892  0.6513  0.1932
 3680TIP3    H132599   5.985   6.709   7.910  0.2757  0.1774 -0.6722
 3680TIP3    H232600   6.002   6.627   8.035 -0.6800  0.8278 -0.1135
 3681TIP3   OH232601   6.634   0.858   8.247  0.0456  0.3996  0.1260
 3681TIP3    H132602   6.628   0.947   8.282 -1.4345 -0.0464  1.0596
 3681TIP3    H232603   6.547   0.821   8.261  0.9023 -1.4932  0.5505
 3682TIP3   OH232604   0.412   5.564   1.026  0.3453  0.0006 -0.0077
 3682TIP3    H132605   0.448   5.633   0.970 -2.9389  0.5954 -1.4617
 3682TIP3    H232606   0.472   5.491   1.016  0.5531  0.5631 -3.2525
 3683TIP3   OH232607   0.248   0.227   0.573  0.1928  0.1402 -0.0778
 3683TIP3    H132608   0.237   0.136   0.544 -1.2903 -0.2036  1.4753
 3683TIP3    H232609   0.161   0.254   0.600  0.7949  1.7499  0.2842
 3684TIP3   OH232610   5.362   6.195   7.929  0.1225  0.0042 -0.6312
 3684TIP3    H132611   5.406   6.223   8.009 -3.0700 -0.3085  1.3050
 3684TIP3    H232612   5.388   6.103   7.918 -0.6626 -0.4250  0.9596
 3685TIP3   OH232613   6.032   5.960   0.469 -0.1915 -0.5357  0.5744
 3685TIP3    H132614   5.967   5.942   0.402  0.2075  0.8455 -0.1941
 3685TIP3    H232615   6.078   5.877   0.480  1.8528  0.0041 -3.1555
 3686TIP3   OH232616   4.688   6.765   6.151 -0.1521  0.6113 -0.3691
 3686TIP3    H132617   4.718   6.847   6.191 -1.2747 -0.2668  2.3595
 3686TIP3    H232618   4.621   6.793   6.088 -0.0849  1.8491  0.0895
 3687TIP3   OH232619   0.402   0.174   0.297 -0.2974 -1.2758 -0.5875
 3687TIP3    H132620   0.439   0.246   0.348 -0.5261 -0.5914 -1.3783
 3687TIP3    H232621   0.383   0.106   0.361 -1.1154 -0.2034  0.3107
 3688TIP3   OH232622   6.308   0.838   1.443 -0.1803  0.5378  1.2042
 3688TIP3    H132623   6.279   0.804   1.528  0.9405  1.2319  1.8848
 3688TIP3    H232624   6.396   0.872   1.460  1.0075 -1.4240 -0.7684
 3689TIP3   OH232625   5.820   5.538   6.187 -0.0454  0.1186 -0.5056
 3689TIP3    H132626   5.891   5.480   6.159 -0.1822 -1.3201  2.0526
 3689TIP3    H232627   5.837   5.555   6.279 -1.7042  1.7423 -0.4603
 3690TIP3   OH232628   0.714   0.826   8.110 -0.1500 -0.2475 -0.2478
 3690TIP3    H132629   0.622   0.808   8.093  0.5871 -2.7031 -1.7645
 3690TIP3    H232630   0.736   0.769   8.183  0.2469  0.1666 -0.0422
 3691TIP3   OH232631   7.146   6.999   0.888 -0.2047 -0.0098 -0.1249
 3691TIP3    H132632   7.185   7.002   0.976  2.0083  0.4915 -1.1000
 3691TIP3    H232633   7.132   6.905   0.873  1.7066 -0.3183 -0.1878
 3692TIP3   OH232634   5.511   6.234   7.348 -0.5797  0.2373 -0.3073
 3692TIP3    H132635   5.587   6.193   7.306  0.4353  1.0234  0.7333
 3692TIP3    H232636   5.436   6.201   7.298  0.2936 -1.9909 -0.2331
 3693TIP3   OH232637   4.974   1.895   6.789  0.1474  0.7827  0.7330
 3693TIP3    H132638   4.953   1.807   6.759  1.5055  0.8204 -0.3596
 3693TIP3    H232639   4.958   1.893   6.883  0.6639 -0.7759  0.7914
 3694TIP3   OH232640   4.457   5.786   7.774  0.2630 -0.1017  0.0818
 3694TIP3    H132641   4.478   5.866   7.724 -1.7787  0.3627 -0.0665
 3694TIP3    H232642   4.543   5.748   7.793  1.2417  1.5875 -0.7226
 3695TIP3   OH232643   4.189   6.721   7.532 -0.0801  0.3500 -0.5657
 3695TIP3    H132644   4.200   6.639   7.485 -1.5618 -0.9052  1.1893
 3695TIP3    H232645   4.247   6.715   7.607 -1.3979  0.1704  0.4671
 3696TIP3   OH232646   5.362   5.853   8.404 -0.2507 -0.2219  0.2539
 3696TIP3    H132647   5.341   5.804   8.324  1.4397 -0.7006  0.0954
 3696TIP3    H232648   5.376   5.785   8.470 -0.6063  0.1429  0.7025
 3697TIP3   OH232649   6.951   4.872   6.090 -0.0250  0.0309 -0.2756
 3697TIP3    H132650   6.901   4.790   6.086  0.8748 -0.4601 -1.6186
 3697TIP3    H232651   7.041   4.844   6.104  0.2969  0.7811 -0.8273
 3698TIP3   OH232652   6.624   0.993   8.014  0.0678 -0.5713 -0.4387
 3698TIP3    H132653   6.665   0.932   8.076 -0.2989  0.3326  0.7099
 3698TIP3    H232654   6.688   1.000   7.943  0.8990 -0.9418  0.2502
 3699TIP3   OH232655   1.593   5.686   8.379 -0.3311  0.0117  0.5255
 3699TIP3    H132656   1.652   5.628   8.429  0.2821 -0.4641 -0.7399
 3699TIP3    H232657   1.550   5.739   8.446  1.3795  0.2112  1.5135
 3700TIP3   OH232658   6.453   6.510   0.869 -0.5442 -0.0143  0.0930
 3700TIP3    H132659   6.443   6.476   0.780  2.7881 -2.6989  0.6318
 3700TIP3    H232660   6.363   6.523   0.900 -1.7932 -0.3709 -3.1518
 3701TIP3   OH232661   7.281   0.096   1.196  0.3730 -0.3648  0.1495
 3701TIP3    H132662   7.325   0.153   1.259  1.8308 -0.9405 -0.3224
 3701TIP3    H232663   7.337   0.019   1.190 -1.3089 -1.6322  0.3877
 3702TIP3   OH232664   1.246   1.524   1.389  0.5526 -0.3097  0.4065
 3702TIP3    H132665   1.223   1.452   1.331  0.4219  0.3573 -0.3799
 3702TIP3    H232666   1.305   1.485   1.454  3.2732 -0.4297 -2.0216
 3703TIP3   OH232667   0.038   3.380   0.996  0.4625 -0.1691 -0.2684
 3703TIP3    H132668   0.113   3.336   0.955  1.7915  0.7184  1.1435
 3703TIP3    H232669  -0.023   3.310   1.016  1.1187 -0.9676 -1.0282
 3704TIP3   OH232670   1.121   0.013   1.913 -0.1366 -0.3531  0.3377
 3704TIP3    H132671   1.117  -0.024   1.825 -0.9118  3.3165 -1.2900
 3704TIP3    H232672   1.206   0.057   1.917  0.0191 -0.7491  1.5395
 3705TIP3   OH232673   1.429   2.567   0.946  0.6198  0.2883 -0.1230
 3705TIP3    H132674   1.453   2.606   0.862  2.8614 -0.1496  0.2859
 3705TIP3    H232675   1.511   2.565   0.995 -0.2296 -1.5329  1.2459
 3706TIP3   OH232676   2.255   1.665   0.927 -0.1293  0.3058 -0.0467
 3706TIP3    H132677   2.229   1.719   0.851  3.4602  3.3986  0.7309
 3706TIP3    H232678   2.312   1.598   0.890 -1.3075 -0.4751 -0.4915
 3707TIP3   OH232679   6.137   0.409   0.130 -0.0268  0.0797  0.2310
 3707TIP3    H132680   6.168   0.496   0.104  0.5012  0.8445  3.2002
 3707TIP3    H232681   6.204   0.377   0.191 -0.7591 -1.9502 -0.0088
 3708TIP3   OH232682   0.923   0.173   0.790  0.5425  0.0458 -0.5852
 3708TIP3    H132683   0.933   0.158   0.884  2.5878  0.1778 -0.7494
 3708TIP3    H232684   0.887   0.261   0.784 -2.7611 -1.1664  0.1250
 3709TIP3   OH232685   0.899   3.863   8.476 -0.3112 -0.0535  0.3181
 3709TIP3    H132686   0.863   3.778   8.505  0.8993 -0.7571 -0.2064
 3709TIP3    H232687   0.854   3.927   8.531 -1.7942 -0.9682  0.2160
 3710TIP3   OH232688   1.201   0.169   0.746 -0.4631  0.5667  0.4953
 3710TIP3    H132689   1.217   0.112   0.821  0.4764 -0.2181 -0.2939
 3710TIP3    H232690   1.106   0.166   0.734 -0.7625  1.7132  2.4358
 3711TIP3   OH232691   1.527   1.012   2.289  0.3324  0.0900  0.2859
 3711TIP3    H132692   1.554   1.008   2.197 -0.1781  0.3387  0.1191
 3711TIP3    H232693   1.442   0.969   2.290  1.0404 -1.3024  0.9298
 3712TIP3   OH232694   0.605   1.420   7.164 -0.7732  0.4862 -0.1241
 3712TIP3    H132695   0.585   1.415   7.070 -0.9249 -1.1596 -0.0326
 3712TIP3    H232696   0.567   1.340   7.200  1.5517 -0.2039  0.8892
 3713TIP3   OH232697   1.556   6.536   1.972 -0.1265  0.0745 -0.2212
 3713TIP3    H132698   1.595   6.450   1.962 -1.0273 -0.2118 -1.5108
 3713TIP3    H232699   1.471   6.520   2.013 -0.7736  0.2137 -1.4714
 3714TIP3   OH232700   2.351   1.978   0.423 -0.2813 -0.1152 -0.2328
 3714TIP3    H132701   2.271   2.015   0.460 -0.6215 -1.0675  0.0032
 3714TIP3    H232702   2.416   1.984   0.494 -0.5667 -0.7252  0.0874
 3715TIP3   OH232703   0.143   2.173   0.464 -0.4453  0.7985  0.0384
 3715TIP3    H132704   0.163   2.211   0.378 -0.1971  0.3792 -0.0919
 3715TIP3    H232705   0.062   2.124   0.450  0.4028 -0.5166 -0.3310
 3716TIP3   OH232706   7.018   1.205   0.315  0.3657 -0.3219 -0.0206
 3716TIP3    H132707   6.932   1.238   0.340 -0.0620 -0.0311 -1.7854
 3716TIP3    H232708   7.055   1.275   0.261  0.8344 -1.3075 -0.9936
 3717TIP3   OH232709   0.209   0.642   2.230  0.3170  0.4193 -0.7340
 3717TIP3    H132710   0.251   0.672   2.311  1.0988 -0.1585 -0.9324
 3717TIP3    H232711   0.154   0.569   2.257 -0.3913  1.0156 -0.5195
 3718TIP3   OH232712   1.011   1.728   0.971  0.2281 -0.4346  0.7532
 3718TIP3    H132713   1.017   1.818   0.938 -1.0938 -0.1484  1.2616
 3718TIP3    H232714   0.956   1.683   0.907  1.0737 -0.9350  0.3831
 3719TIP3   OH232715   4.906   6.815   7.234 -0.0317 -0.7046 -0.4872
 3719TIP3    H132716   4.855   6.890   7.266  2.7741  0.4588  1.4473
 3719TIP3    H232717   4.896   6.749   7.302 -0.4644 -1.1513 -0.9874
 3720TIP3   OH232718   2.686   6.957   0.777 -0.0397 -0.4321  0.1665
 3720TIP3    H132719   2.672   6.862   0.775 -0.3832 -0.4123  1.5452
 3720TIP3    H232720   2.603   6.994   0.806  0.9094  0.0940  2.3053
 3721TIP3   OH232721   2.664   1.229   8.469 -0.2680  0.5260  0.0254
 3721TIP3    H132722   2.646   1.308   8.520  0.3129  0.0468  0.9666
 3721TIP3    H232723   2.751   1.202   8.495 -0.5058 -0.4998 -0.2217
 3722TIP3   OH232724   0.174   1.223   0.243  0.3600 -0.3604  0.1590
 3722TIP3    H132725   0.232   1.272   0.185 -1.6002 -0.3359 -1.8470
 3722TIP3    H232726   0.214   1.136   0.249  0.7507 -0.2601 -0.9399
 3723TIP3   OH232727   0.707   1.467   2.050  0.3934 -0.2591 -0.4807
 3723TIP3    H132728   0.731   1.455   1.958 -0.5860 -2.1548 -0.5193
 3723TIP3    H232729   0.651   1.392   2.069 -0.7123  0.9777  1.2152
 3724TIP3   OH232730   0.196   2.751   6.267 -0.4849 -0.2762  0.3717
 3724TIP3    H132731   0.225   2.715   6.182 -2.9553 -0.4002 -0.4434
 3724TIP3    H232732   0.162   2.838   6.246  0.1975  0.2605  1.4746
 3725TIP3   OH232733   1.175   1.315   1.223 -0.6601  0.2712  0.4120
 3725TIP3    H132734   1.142   1.314   1.133 -1.0843  0.8860  0.5509
 3725TIP3    H232735   1.137   1.238   1.263  0.0274 -0.3461 -0.1044
 3726TIP3   OH232736   1.746   0.272   8.490 -0.0631  0.3608  0.3224
 3726TIP3    H132737   1.752   0.295   8.397 -1.3839  0.9004  0.3706
 3726TIP3    H232738   1.666   0.314   8.520 -1.0412 -2.0025  1.0864
 3727TIP3   OH232739   1.465   5.741   1.706 -0.2722  0.2897  0.1984
 3727TIP3    H132740   1.538   5.679   1.715 -0.4844 -0.1960 -1.2436
 3727TIP3    H232741   1.445   5.767   1.796  1.2691 -0.0377  0.6660
 3728TIP3   OH232742   0.846   1.432   0.573  0.6860  0.4607 -0.1332
 3728TIP3    H132743   0.762   1.456   0.534 -1.0403 -2.0591  1.9256
 3728TIP3    H232744   0.875   1.355   0.525 -0.1573 -1.0627  1.7447
 3729TIP3   OH232745   6.507   0.311   1.216  0.1159 -0.1740 -0.0824
 3729TIP3    H132746   6.601   0.319   1.236  0.4673  1.0059 -2.1257
 3729TIP3    H232747   6.503   0.252   1.141 -0.5446  1.7743 -1.6279
 3730TIP3   OH232748   1.388   0.316   1.623 -0.0216 -0.0003  0.9078
 3730TIP3    H132749   1.465   0.294   1.676 -1.3214 -2.2816  1.8846
 3730TIP3    H232750   1.376   0.241   1.566  0.9854  2.1721 -2.3003
 3731TIP3   OH232751   1.930   1.162   8.472  0.5279  0.4127 -0.1774
 3731TIP3    H132752   1.853   1.110   8.449  1.5312 -0.8615 -0.7117
 3731TIP3    H232753   1.956   1.204   8.389 -0.3607  1.9083  0.2786
 3732TIP3   OH232754   3.020   0.454   0.046  0.0849 -0.1086  0.4609
 3732TIP3    H132755   3.074   0.376   0.032 -1.2337 -0.8343 -0.7499
 3732TIP3    H232756   3.053   0.491   0.128  2.5259 -0.4233 -0.3119
 3733TIP3   OH232757   2.269   1.324   0.177 -0.9363  0.5708  0.0180
 3733TIP3    H132758   2.190   1.373   0.158 -0.2744  1.2736 -0.9728
 3733TIP3    H232759   2.332   1.391   0.205 -0.4276  0.1285 -0.0663
 3734TIP3   OH232760   0.066   2.240   1.741  0.0016  0.0942 -0.0734
 3734TIP3    H132761  -0.019   2.270   1.710 -0.9273 -2.7569 -0.3685
 3734TIP3    H232762   0.055   2.229   1.836 -0.1535 -0.8962 -0.2056
 3735TIP3   OH232763   0.418   1.022   0.522 -0.3478  0.2789 -0.0091
 3735TIP3    H132764   0.409   1.009   0.427 -0.5461  0.1197  0.0331
 3735TIP3    H232765   0.377   0.945   0.561  3.0789 -1.6161  0.1344
 3736TIP3   OH232766   1.332   6.821   0.337  0.4572  0.0301 -0.0828
 3736TIP3    H132767   1.297   6.760   0.272  2.0661 -1.0269  0.0135
 3736TIP3    H232768   1.326   6.907   0.294  0.6688 -0.5421 -1.3001
 3737TIP3   OH232769   0.933   0.883   0.601 -0.7806 -0.2182  0.0539
 3737TIP3    H132770   1.015   0.896   0.649  0.1115 -0.7570 -1.2899
 3737TIP3    H232771   0.878   0.957   0.627  1.0466  1.5209 -0.8828
 3738TIP3   OH232772   1.881   1.764   0.687 -0.1448  0.6746 -0.3709
 3738TIP3    H132773   1.793   1.750   0.722 -0.0672  0.8742 -0.0923
 3738TIP3    H232774   1.874   1.739   0.595 -0.7192  1.5658 -0.5720
 3739TIP3   OH232775   0.680   1.811   0.880  0.3505  0.4036 -0.1277
 3739TIP3    H132776   0.733   1.776   0.808  0.0554 -0.5815  0.1173
 3739TIP3    H232777   0.622   1.874   0.838 -0.7151 -1.1130 -0.9835
 3740TIP3   OH232778   0.742   1.183   1.646  0.0745  0.8709  0.1289
 3740TIP3    H132779   0.671   1.228   1.691 -0.4610  0.4060 -0.2396
 3740TIP3    H232780   0.762   1.108   1.702 -1.7178 -0.6429 -1.2035
 3741TIP3   OH232781   1.436   0.131   0.093  0.1653 -0.4619  0.2087
 3741TIP3    H132782   1.455   0.182   0.171  1.5470  0.9399 -1.0079
 3741TIP3    H232783   1.475   0.045   0.109 -2.3390 -1.2654  2.3482
 3742TIP3   OH232784   1.707   1.468   7.377 -0.1413 -0.4572 -0.5024
 3742TIP3    H132785   1.718   1.396   7.316 -1.4116 -2.6066  1.7104
 3742TIP3    H232786   1.796   1.502   7.390  0.3871 -1.2342 -2.0430
 3743TIP3   OH232787   0.761   0.447   1.042  0.0676 -0.2512  0.3543
 3743TIP3    H132788   0.717   0.452   1.126  0.2392  0.3059  0.4178
 3743TIP3    H232789   0.798   0.535   1.029 -0.0537 -0.2981 -0.3486
 3744TIP3   OH232790   1.698   6.093   0.355  0.2283 -0.2693 -0.0113
 3744TIP3    H132791   1.704   6.015   0.299 -0.0604  1.2398 -2.2021
 3744TIP3    H232792   1.733   6.065   0.439  1.0769 -2.4838 -1.0667
 3745TIP3   OH232793   2.503   0.783   0.750  0.0387 -0.1351 -0.3219
 3745TIP3    H132794   2.548   0.712   0.704  0.1901  1.0306 -2.0380
 3745TIP3    H232795   2.569   0.821   0.807 -0.0723 -1.4249  0.6837
 3746TIP3   OH232796   7.178   0.122   0.014  0.5733  0.0307  0.8523
 3746TIP3    H132797   7.274   0.115   0.014  0.6102  0.3544 -1.1776
 3746TIP3    H232798   7.160   0.197   0.071  1.6839  1.5033 -0.6588
 3747TIP3   OH232799   3.879   0.335   0.610  0.5356  0.4016  0.1762
 3747TIP3    H132800   3.835   0.397   0.669 -2.6961 -0.6784 -1.0036
 3747TIP3    H232801   3.816   0.264   0.599  2.7846 -1.4411 -1.2963
 3748TIP3   OH232802   0.018   1.659   1.850  0.1217  0.3530  0.0466
 3748TIP3    H132803  -0.020   1.595   1.789  0.1768 -0.3008  0.6938
 3748TIP3    H232804  -0.024   1.640   1.934 -0.2399  1.5063  0.1337
 3749TIP3   OH232805   1.010   7.069   1.743  0.3948  0.3730  0.3127
 3749TIP3    H132806   0.927   7.086   1.697  1.1612  3.0452 -0.1469
 3749TIP3    H232807   0.983   7.032   1.827 -1.2005  0.0042 -0.3257
 3750TIP3   OH232808   1.785   0.757   0.919  0.0921 -0.0974 -0.0306
 3750TIP3    H132809   1.718   0.787   0.858 -0.8102  0.7012  1.3459
 3750TIP3    H232810   1.868   0.771   0.873 -0.5659  0.6833 -0.9811
 3751TIP3   OH232811   7.267   2.244   1.347 -0.2801  0.3264 -0.0598
 3751TIP3    H132812   7.340   2.224   1.406  1.0187  0.9543 -1.4204
 3751TIP3    H232813   7.197   2.186   1.375  0.1827  0.8599  2.3363
 3752TIP3   OH232814   3.526   1.545   0.744  0.7286  0.6734 -0.5562
 3752TIP3    H132815   3.475   1.535   0.663  0.7364  0.4227 -0.5300
 3752TIP3    H232816   3.591   1.475   0.740  0.3850  0.3267 -0.0743
 3753TIP3   OH232817   0.982   1.255   0.458 -0.0138  0.9277  0.4783
 3753TIP3    H132818   1.067   1.294   0.478  0.1761  1.1615 -0.7081
 3753TIP3    H232819   1.002   1.182   0.400 -0.7016  1.8153 -0.9133
 3754TIP3   OH232820   2.116   2.704   0.824  0.6544 -0.2890 -0.2457
 3754TIP3    H132821   2.055   2.720   0.896  1.6379 -1.2351  0.8101
 3754TIP3    H232822   2.141   2.613   0.833  0.5230 -0.5160 -2.0134
 3755TIP3   OH232823   1.952   1.161   0.637  0.0612 -0.2263  0.4122
 3755TIP3    H132824   1.983   1.187   0.550  0.9308  0.2378  0.8544
 3755TIP3    H232825   2.021   1.104   0.671 -0.3783 -0.5794  0.7200
 3756TIP3   OH232826   0.854   0.744   2.128  0.1377  0.5974  0.7373
 3756TIP3    H132827   0.937   0.771   2.169 -0.6188  1.0605  1.9924
 3756TIP3    H232828   0.869   0.653   2.102  1.8481  1.3875 -1.2238
 3757TIP3   OH232829   0.760   1.018   1.888  0.5046  0.7230  0.1754
 3757TIP3    H132830   0.780   0.931   1.920 -0.9276  0.2803 -0.0775
 3757TIP3    H232831   0.715   1.061   1.962 -0.8678  0.4347 -0.4688
 3758TIP3   OH232832   0.573   1.509   0.653 -0.1182 -0.7536  0.0088
 3758TIP3    H132833   0.490   1.500   0.608  0.4275 -0.1754 -1.1137
 3758TIP3    H232834   0.593   1.602   0.651  0.8172 -0.9496 -0.1958
 3759TIP3   OH232835   2.759   0.405   0.634 -0.4907 -0.1948 -0.6618
 3759TIP3    H132836   2.718   0.331   0.589 -0.2550 -0.1484 -0.9580
 3759TIP3    H232837   2.812   0.365   0.702 -1.9313 -0.1968  0.4738
 3760TIP3   OH232838   0.739   6.734   1.945 -0.5159 -0.0919  0.1117
 3760TIP3    H132839   0.746   6.689   1.861 -0.8791  1.5149 -0.7810
 3760TIP3    H232840   0.805   6.691   2.000  0.5284 -0.3668 -1.3260
 3761TIP3   OH232841   2.060   0.927   1.378 -0.8007  0.3201 -0.2221
 3761TIP3    H132842   2.148   0.927   1.416  0.1441  1.1960 -2.3076
 3761TIP3    H232843   2.024   0.841   1.401  0.4168  0.1361  1.0465
 3762TIP3   OH232844   6.885   6.455   7.561  0.1274  0.1167 -0.1093
 3762TIP3    H132845   6.944   6.380   7.569  2.1435  1.7630  0.9160
 3762TIP3    H232846   6.916   6.502   7.483 -0.5752  0.3575 -0.2465
 3763TIP3   OH232847   0.727   6.872   2.413 -0.3755 -0.1075 -0.2565
 3763TIP3    H132848   0.761   6.872   2.503  0.4065 -0.2939 -0.5495
 3763TIP3    H232849   0.752   6.787   2.377 -0.6140 -0.0018 -0.6806
 3764TIP3   OH232850   1.305   0.101   8.049  0.0179  0.4785 -0.5656
 3764TIP3    H132851   1.352   0.175   8.010 -2.9279  2.0543 -1.2845
 3764TIP3    H232852   1.270   0.053   7.974 -2.6185  1.4519  0.0049
 3765TIP3   OH232853   0.151   2.025   1.016 -0.0656 -0.1001  0.5191
 3765TIP3    H132854   0.056   2.015   1.012  0.0792 -0.8553 -1.4631
 3765TIP3    H232855   0.185   1.941   0.987  1.1812  1.0426 -1.4549
 3766TIP3   OH232856   1.280   0.418   2.397  0.0016  0.1198  0.3024
 3766TIP3    H132857   1.344   0.482   2.429 -2.7502  1.6531  3.0655
 3766TIP3    H232858   1.226   0.467   2.335 -0.0932 -0.4741 -0.0904
 3767TIP3   OH232859   1.293   0.957   1.368  0.0030  0.4964 -0.3966
 3767TIP3    H132860   1.343   1.013   1.428  0.1664 -0.2336  0.1568
 3767TIP3    H232861   1.358   0.928   1.304  0.1794 -0.0105  0.0054
 3768TIP3   OH232862   7.055   1.593   1.549 -0.3434  0.1804 -0.4272
 3768TIP3    H132863   7.002   1.544   1.612 -0.0798 -1.1105 -1.1808
 3768TIP3    H232864   7.090   1.526   1.490  0.5145  1.2250 -1.1306
 3769TIP3   OH232865   0.096   1.273   0.552  0.0837  0.0560 -0.3470
 3769TIP3    H132866   0.090   1.247   0.644 -2.4358  0.0050 -0.4965
 3769TIP3    H232867   0.142   1.200   0.510 -0.8811 -1.0412  0.4528
 3770TIP3   OH232868   6.075   0.953   7.122  0.0490  0.1729  0.3325
 3770TIP3    H132869   6.022   0.951   7.042 -3.8163  0.1382  2.7922
 3770TIP3    H232870   6.065   1.041   7.157  0.4723 -0.2559  1.5946
 3771TIP3   OH232871   1.965   1.253   1.200  0.8688  0.6163 -0.4745
 3771TIP3    H132872   2.012   1.186   1.250  0.0548 -0.5660 -1.2445
 3771TIP3    H232873   1.992   1.237   1.109  0.5294  1.2383 -0.6862
 3772TIP3   OH232874   1.789   6.151   7.211  0.1267 -0.2269  0.5801
 3772TIP3    H132875   1.760   6.093   7.281 -1.8105 -0.9970 -0.7941
 3772TIP3    H232876   1.867   6.110   7.174  0.5805 -0.3165  1.6479
 3773TIP3   OH232877   3.260   7.156   1.000 -0.1333 -0.6175 -0.3863
 3773TIP3    H132878   3.215   7.083   1.041 -0.6718  0.5770  1.2006
 3773TIP3    H232879   3.319   7.189   1.067  1.2638 -0.5606 -1.6077
 3774TIP3   OH232880   2.185   0.567   1.236 -0.0687  0.2390  0.1382
 3774TIP3    H132881   2.260   0.553   1.178 -0.3655 -0.1080 -0.1690
 3774TIP3    H232882   2.134   0.486   1.228 -0.0343  0.1209  1.0020
 3775TIP3   OH232883   0.066   0.815   8.043  0.2386 -0.2715 -0.4609
 3775TIP3    H132884   0.040   0.887   8.101 -0.0767 -0.2206 -0.6692
 3775TIP3    H232885   0.040   0.736   8.090 -0.0172 -0.2304 -0.5394
 3776TIP3   OH232886   0.036   1.413   1.320  0.3469 -0.3405 -0.3651
 3776TIP3    H132887   0.022   1.441   1.410  1.0139 -0.4074 -0.2348
 3776TIP3    H232888   0.060   1.494   1.273  1.9066 -0.6218 -0.0674
 3777TIP3   OH232889   2.287   1.589   6.799  0.2508  0.2516  0.1444
 3777TIP3    H132890   2.313   1.662   6.855 -0.0841  0.9701 -0.6301
 3777TIP3    H232891   2.196   1.571   6.824 -0.1181  1.0073 -0.6103
 3778TIP3   OH232892   2.126   1.088   2.064 -0.3853  0.2173 -0.3094
 3778TIP3    H132893   2.096   1.142   2.138  0.5344 -0.9170  0.9044
 3778TIP3    H232894   2.206   1.047   2.095  0.0264 -0.2692 -1.9628
 3779TIP3   OH232895   2.296   0.241   0.581  0.1665  0.3499 -0.3233
 3779TIP3    H132896   2.342   0.256   0.498  0.4168 -1.2067 -0.4773
 3779TIP3    H232897   2.364   0.251   0.648  0.0582  1.1610 -0.3288
 3780TIP3   OH232898   0.568   1.181   0.134 -0.4011  0.0544  0.0506
 3780TIP3    H132899   0.531   1.247   0.193 -1.0101 -0.3715  0.1520
 3780TIP3    H232900   0.597   1.111   0.193  1.3798  0.7744  0.0374
 3781TIP3   OH232901   1.713   1.959   1.657  0.2617 -0.2075  0.1849
 3781TIP3    H132902   1.722   1.867   1.633  1.2503  0.0625 -0.5186
 3781TIP3    H232903   1.795   1.982   1.700  0.3271  0.5428 -0.3227
 3782TIP3   OH232904   2.756   0.970   0.267  0.1785  0.2643  0.1801
 3782TIP3    H132905   2.685   0.952   0.206  0.2489 -0.8722  0.4327
 3782TIP3    H232906   2.713   0.987   0.351  0.2047 -0.2940  0.3036
 3783TIP3   OH232907   5.486   6.802   8.461 -0.3855  0.2449  0.0836
 3783TIP3    H132908   5.578   6.831   8.456 -0.9244  1.8799 -0.7706
 3783TIP3    H232909   5.465   6.807   8.554 -0.1476  1.6923  0.0778
 3784TIP3   OH232910   0.141   0.564   0.571 -0.3035  0.5894  0.4419
 3784TIP3    H132911   0.113   0.530   0.657 -0.8830  1.9801  0.8228
 3784TIP3    H232912   0.206   0.501   0.540  0.2135  0.2808  2.0954
 3785TIP3   OH232913   0.202   1.481   0.145  0.0692  0.5244  0.1542
 3785TIP3    H132914   0.121   1.525   0.119  0.1075 -0.0016 -0.8854
 3785TIP3    H232915   0.256   1.550   0.181 -0.1668  1.2066 -0.7706
 3786TIP3   OH232916   3.683   1.836   1.836  0.2202  0.1519  0.2092
 3786TIP3    H132917   3.612   1.776   1.861  1.3819 -0.6228  1.7362
 3786TIP3    H232918   3.717   1.869   1.919  0.2890  2.1311 -0.5908
 3787TIP3   OH232919   1.780   6.646   0.284  0.3048  0.5202 -0.1359
 3787TIP3    H132920   1.837   6.604   0.348  0.6917  1.1292 -0.0723
 3787TIP3    H232921   1.707   6.680   0.335 -0.6233 -1.1200 -0.3477
 3788TIP3   OH232922   1.355   3.140   1.422 -0.7193  0.0588  0.1564
 3788TIP3    H132923   1.329   3.047   1.423  1.1196 -0.4770  0.8619
 3788TIP3    H232924   1.288   3.184   1.475 -0.7920 -1.1047  1.0669
 3789TIP3   OH232925   1.080   7.243   0.398 -0.1846 -0.0539  0.3607
 3789TIP3    H132926   1.106   7.332   0.422  1.1077 -0.2722 -0.1665
 3789TIP3    H232927   1.062   7.199   0.481 -0.9932  0.7454  0.6133
 3790TIP3   OH232928   6.983   0.618   1.695 -0.4979 -0.3533 -0.2461
 3790TIP3    H132929   7.059   0.661   1.656 -1.6219  1.4673 -0.4404
 3790TIP3    H232930   7.011   0.526   1.705  2.4735  0.6935  1.6891
 3791TIP3   OH232931   1.865   1.302   0.198 -0.0034  0.9037 -0.1407
 3791TIP3    H132932   1.894   1.279   0.110  2.4451  0.0145  0.8603
 3791TIP3    H232933   1.827   1.221   0.232 -0.4505  1.0998 -0.1642
 3792TIP3   OH232934   2.701   2.194   6.863  0.0207 -0.0171 -0.2411
 3792TIP3    H132935   2.743   2.161   6.784 -1.6419  0.2650 -1.2677
 3792TIP3    H232936   2.627   2.136   6.878 -1.3958  1.6601 -0.5754
 3793TIP3   OH232937   0.403   2.175   0.157  0.2924 -0.3098  0.6877
 3793TIP3    H132938   0.492   2.209   0.171  0.3324 -0.7093  1.4008
 3793TIP3    H232939   0.373   2.219   0.077  0.5518  0.9742  1.2915
 3794TIP3   OH232940   1.784   1.155   1.537  0.4250  0.1870  0.1540
 3794TIP3    H132941   1.774   1.113   1.622  3.0063 -2.9204 -1.0070
 3794TIP3    H232942   1.868   1.200   1.542  0.5145  0.1221 -0.7152
 3795TIP3   OH232943   6.731   0.761   1.059  0.3800  0.1801  0.5677
 3795TIP3    H132944   6.810   0.728   1.017 -0.6668 -0.3865 -1.0119
 3795TIP3    H232945   6.678   0.684   1.077 -0.1991  0.6271  0.8190
 3796TIP3   OH232946   0.456   0.380   0.727 -0.0687 -0.2541  0.1195
 3796TIP3    H132947   0.418   0.302   0.689 -1.1929  0.6634 -0.6691
 3796TIP3    H232948   0.381   0.436   0.747  0.6902  0.4498  1.0661
 3797TIP3   OH232949   2.924   6.667   1.167  0.5067 -0.6151  0.2668
 3797TIP3    H132950   3.017   6.676   1.149  0.1976 -1.1528 -1.6610
 3797TIP3    H232951   2.900   6.581   1.134 -0.9340  0.0228 -0.4200
 3798TIP3   OH232952   1.894   1.968   7.127 -0.2333 -0.2098 -0.0445
 3798TIP3    H132953   1.871   2.061   7.120 -4.2174 -1.0229  1.1300
 3798TIP3    H232954   1.913   1.955   7.220  0.2856 -0.5913 -0.2020
 3799TIP3   OH232955   0.179   2.123   1.492  0.4261 -0.1611  0.1346
 3799TIP3    H132956   0.196   2.052   1.555  0.0892 -1.4225 -1.1755
 3799TIP3    H232957   0.223   2.095   1.412  0.9985  1.5254 -0.1563
 3800TIP3   OH232958   2.238   3.451   0.592  0.0495  0.4248 -0.3893
 3800TIP3    H132959   2.207   3.541   0.592  0.9600  0.7546  1.3472
 3800TIP3    H232960   2.214   3.417   0.505 -0.8917  2.1147 -0.8017
 3801TIP3   OH232961   1.841   0.973   1.739 -0.3266  0.1636  0.7548
 3801TIP3    H132962   1.824   0.895   1.686 -1.0722 -0.4995  1.9496
 3801TIP3    H232963   1.884   0.939   1.818  1.1335  1.1762  0.4148
 3802TIP3   OH232964   1.056   1.706   1.444  0.5078  0.2902 -0.1496
 3802TIP3    H132965   1.118   1.634   1.432  0.0498 -0.3688  1.3530
 3802TIP3    H232966   1.068   1.761   1.367  2.9448  0.1578  0.1001
 3803TIP3   OH232967   0.989   1.902   8.379  0.6065 -0.1023  0.1290
 3803TIP3    H132968   0.942   1.981   8.354 -1.9946 -1.6403 -0.1188
 3803TIP3    H232969   1.013   1.916   8.471 -1.2458  0.3834  0.5783
 3804TIP3   OH232970   1.602   1.093   1.111  0.2851  0.1307 -0.4355
 3804TIP3    H132971   1.676   1.050   1.154 -0.5689 -0.0742  0.8504
 3804TIP3    H232972   1.533   1.027   1.110 -0.6680  1.1089  0.5328
 3805TIP3   OH232973   0.618   7.278   1.648  0.0630 -0.0840 -0.2008
 3805TIP3    H132974   0.677   7.202   1.651  0.7187  0.3926 -0.6640
 3805TIP3    H232975   0.552   7.254   1.583  0.6903  0.0345 -0.8869
 3806TIP3   OH232976   1.339   6.849   1.044 -0.4489 -0.3891 -0.1495
 3806TIP3    H132977   1.266   6.790   1.029 -1.2516  0.4518  0.4065
 3806TIP3    H232978   1.317   6.895   1.125  1.4717 -1.2926  0.9170
 3807TIP3   OH232979   1.193   1.963   1.964 -0.2585  0.1669 -0.4480
 3807TIP3    H132980   1.099   1.952   1.951 -0.7108  3.0333  0.0902
 3807TIP3    H232981   1.208   1.933   2.054 -0.7036  0.0527 -0.4119
 3808TIP3   OH232982   0.630   7.262   7.670 -0.6389  0.6243 -0.2813
 3808TIP3    H132983   0.686   7.230   7.741 -0.9281 -1.0659 -0.7865
 3808TIP3    H232984   0.586   7.339   7.707 -2.4494 -1.4832  2.1781
 3809TIP3   OH232985   6.960   1.743   6.716 -0.5233 -0.3616 -0.1441
 3809TIP3    H132986   6.897   1.812   6.736 -0.7427 -0.5053 -0.3233
 3809TIP3    H232987   6.980   1.703   6.801 -0.7516 -0.3805 -0.0992
 3810TIP3   OH232988   1.571   5.901   2.198  0.1062  0.4099  0.3812
 3810TIP3    H132989   1.631   5.971   2.175  0.6553 -0.3424 -0.5522
 3810TIP3    H232990   1.513   5.938   2.264 -1.0816  2.4650 -1.7318
 3811TIP3   OH232991   6.901   0.841   0.496 -0.1949  0.5221 -0.1625
 3811TIP3    H132992   6.934   0.763   0.451 -1.6181 -0.0533 -0.2523
 3811TIP3    H232993   6.938   0.835   0.583  2.4283  1.5396 -1.1726
 3812TIP3   OH232994   2.572   1.183   1.061  0.2603 -0.4421 -0.1542
 3812TIP3    H132995   2.591   1.274   1.084 -2.0298  0.2387 -0.8265
 3812TIP3    H232996   2.500   1.158   1.118  0.0905 -1.4551 -0.7957
 3813TIP3   OH232997   6.953   6.945   7.117 -0.3468 -0.8806 -0.0222
 3813TIP3    H132998   6.937   6.855   7.087  0.3423 -0.9914 -0.0607
 3813TIP3    H232999   6.867   6.975   7.147 -0.9834 -0.8934 -1.7650
 3814TIP3   OH233000   7.086   1.002   1.665 -0.0073  0.4683  0.0860
 3814TIP3    H133001   7.107   0.936   1.599 -0.1982  0.7274 -0.2329
 3814TIP3    H233002   7.160   0.999   1.726  0.8394  1.1881 -0.8826
 3815TIP3   OH233003   2.174   7.279   0.091  1.1335 -0.3437  0.3244
 3815TIP3    H133004   2.110   7.208   0.093 -0.0248  0.6951  1.3235
 3815TIP3    H233005   2.130   7.349   0.044  2.1051 -0.1325 -0.2768
 3816TIP3   OH233006   0.686   2.476   8.355 -0.6227  0.1241 -0.2201
 3816TIP3    H133007   0.640   2.486   8.271  0.6260 -2.3371 -1.2615
 3816TIP3    H233008   0.681   2.382   8.373  1.8767  0.1770  0.8759
 3817TIP3   OH233009   1.677   7.007   0.482  0.3226 -0.4107  0.0451
 3817TIP3    H133010   1.656   7.078   0.421 -0.4746 -0.9149 -0.2776
 3817TIP3    H233011   1.773   7.005   0.485  0.3523  0.2323 -0.4710
 3818TIP3   OH233012   0.744   5.299   1.545  0.4216 -0.2079 -0.2929
 3818TIP3    H133013   0.702   5.306   1.630  0.3227 -1.3854 -0.2261
 3818TIP3    H233014   0.790   5.382   1.533 -0.6130  0.4546  0.3335
 3819TIP3   OH233015   2.103   0.456   0.650 -0.5918  0.0790 -0.3595
 3819TIP3    H133016   2.186   0.413   0.633 -0.2611  0.0676  1.2708
 3819TIP3    H233017   2.067   0.473   0.563  2.7596  3.3547 -1.2275
 3820TIP3   OH233018   3.008   0.966   6.882 -0.2235  0.5380 -0.0820
 3820TIP3    H133019   2.968   0.883   6.907 -1.3475  0.9989 -0.3441
 3820TIP3    H233020   2.939   1.014   6.837  1.0393  0.7354 -1.8838
 3821TIP3   OH233021   2.238   6.224   0.550 -0.7161 -0.0780  0.2322
 3821TIP3    H133022   2.277   6.259   0.470  0.6177  4.4623  2.7046
 3821TIP3    H233023   2.144   6.234   0.538 -0.5653 -0.1199 -1.0519
 3822TIP3   OH233024   1.411   1.730   1.609 -0.3749 -0.6883  0.0794
 3822TIP3    H133025   1.354   1.799   1.644 -0.4286  0.3430 -1.9851
 3822TIP3    H233026   1.350   1.658   1.589 -0.5677 -0.6323  0.4432
 3823TIP3   OH233027   0.097   6.302   1.999 -0.1058 -0.7555  0.0425
 3823TIP3    H133028   0.039   6.322   1.926 -0.6597  0.6228  0.8522
 3823TIP3    H233029   0.048   6.329   2.077  1.3426 -0.2169  0.7783
 3824TIP3   OH233030   0.410   0.466   8.472  0.1785  0.2135 -0.1383
 3824TIP3    H133031   0.405   0.380   8.430 -0.7942  0.2860 -0.1771
 3824TIP3    H233032   0.486   0.460   8.530  1.3149 -0.0021 -1.6306
 3825TIP3   OH233033   7.266   2.990   0.746 -0.7585 -0.1550  0.0635
 3825TIP3    H133034   7.294   3.040   0.822 -0.8479  0.5127 -0.3379
 3825TIP3    H233035   7.170   2.995   0.748 -0.7274  1.0179 -0.8494
 3826TIP3   OH233036   1.698   2.876   1.625 -0.2227  0.0925  0.3270
 3826TIP3    H133037   1.672   2.785   1.608 -1.4422  0.7847 -1.6098
 3826TIP3    H233038   1.794   2.871   1.633 -0.1577 -1.1811 -0.9878
 3827TIP3   OH233039   7.282   1.666   7.987  0.4087 -0.2669  0.0162
 3827TIP3    H133040   7.321   1.617   8.059  1.0536 -0.3435 -0.3802
 3827TIP3    H233041   7.339   1.648   7.912  0.4872  0.8659 -0.2024
 3828TIP3   OH233042   0.694   3.689   0.655 -0.5081 -0.6486 -0.0001
 3828TIP3    H133043   0.778   3.671   0.611 -0.5917  1.4415 -1.0757
 3828TIP3    H233044   0.698   3.782   0.677 -1.3270 -1.2131  2.6597
 3829TIP3   OH233045   1.432   0.808   7.399  0.3887  0.9687  0.0246
 3829TIP3    H133046   1.341   0.835   7.407  0.2372  1.0392 -1.7920
 3829TIP3    H233047   1.480   0.889   7.381  0.8813  0.9976  1.4140
 3830TIP3   OH233048   0.619   1.195   2.111  0.0834  0.2313  0.2356
 3830TIP3    H133049   0.640   1.190   2.204  0.0902 -0.0425  0.2197
 3830TIP3    H233050   0.525   1.180   2.107 -0.1956  1.8219  0.3412
 3831TIP3   OH233051   0.639   2.479   6.921  0.2700 -0.1979 -0.4111
 3831TIP3    H133052   0.680   2.518   6.998 -0.8802  0.4134 -0.0989
 3831TIP3    H233053   0.645   2.546   6.853  1.0186 -0.6241 -0.7688
 3832TIP3   OH233054   2.115   2.094   8.218  0.1067  0.7369 -0.6833
 3832TIP3    H133055   2.103   2.158   8.148  0.7528  1.2306 -0.3493
 3832TIP3    H233056   2.168   2.024   8.178 -1.5077 -0.1177 -1.3602
 3833TIP3   OH233057   0.096   2.554   0.797  0.2129 -0.0009  0.3286
 3833TIP3    H133058   0.082   2.468   0.757  0.0648 -0.0026  0.3848
 3833TIP3    H233059   0.135   2.535   0.882 -1.2863 -0.0774  1.0007
 3834TIP3   OH233060   6.870   1.418   0.432  0.2793 -0.3723 -0.7064
 3834TIP3    H133061   6.949   1.388   0.478  0.3850 -0.4391 -0.9291
 3834TIP3    H233062   6.814   1.453   0.501 -0.6433 -2.7987 -0.1929
 3835TIP3   OH233063   7.239   0.631   0.839 -0.5567  0.4765  0.0946
 3835TIP3    H133064   7.167   0.624   0.776  0.1783  0.4786 -0.7559
 3835TIP3    H233065   7.296   0.557   0.817  0.6569  1.5691 -0.4667
 3836TIP3   OH233066   0.847   2.237   1.793 -0.1301  0.0490 -0.3004
 3836TIP3    H133067   0.892   2.321   1.802 -0.4823  0.1959  0.1198
 3836TIP3    H233068   0.776   2.241   1.857 -2.1982  0.7716 -2.5302
 3837TIP3   OH233069   2.707   0.850   7.704  0.4822 -0.1837  0.5597
 3837TIP3    H133070   2.697   0.922   7.642 -0.6957  0.0607  1.0181
 3837TIP3    H233071   2.620   0.839   7.743  1.1322 -0.5049  1.9692
 3838TIP3   OH233072   1.336   7.056   1.901 -0.1329  0.2630 -0.8289
 3838TIP3    H133073   1.271   7.107   1.852 -0.6177 -0.5413 -1.0217
 3838TIP3    H233074   1.346   6.975   1.851  0.4035  0.0252 -0.3452
 3839TIP3   OH233075   3.958   1.591   0.770 -0.1331  0.1251 -0.5009
 3839TIP3    H133076   3.916   1.618   0.689  1.2140  1.7542 -0.6759
 3839TIP3    H233077   3.977   1.673   0.816 -0.7456 -0.7654  1.4048
 3840TIP3   OH233078   6.655   1.295   1.381  0.6005 -0.2402  0.1676
 3840TIP3    H133079   6.688   1.361   1.442  0.8712  0.4255 -0.6830
 3840TIP3    H233080   6.658   1.213   1.430 -1.7273  0.6874  1.9593
 3841TIP3   OH233081   0.393   0.745   2.408 -0.2022 -0.1996  0.2279
 3841TIP3    H133082   0.403   0.715   2.498 -0.3510 -0.7527  0.0603
 3841TIP3    H233083   0.455   0.692   2.358 -0.8146 -0.5742 -0.1415
 3842TIP3   OH233084   2.030   1.768   8.278  0.1517  0.2515  0.2358
 3842TIP3    H133085   2.075   1.808   8.203 -0.8537 -0.7943 -0.9444
 3842TIP3    H233086   2.074   1.684   8.290 -0.9687 -0.4475 -0.4519
 3843TIP3   OH233087   0.705   6.326   0.131 -0.2595 -0.2113  0.2512
 3843TIP3    H133088   0.742   6.408   0.163  2.1791 -0.8133 -0.9257
 3843TIP3    H233089   0.620   6.350   0.095  0.3632  1.7714  0.0833
 3844TIP3   OH233090   2.632   5.235   0.072 -0.7159 -0.1933 -0.1526
 3844TIP3    H133091   2.616   5.166   0.008  2.6587 -0.7428 -0.5051
 3844TIP3    H233092   2.692   5.195   0.135  2.0641  2.6356 -0.8691
 3845TIP3   OH233093   6.920   1.584   0.199 -0.1452 -0.1926  0.0042
 3845TIP3    H133094   6.874   1.544   0.272  0.6233  0.1751  0.6956
 3845TIP3    H233095   6.979   1.515   0.168  1.2556  0.4159  1.2633
 3846TIP3   OH233096   0.300   5.728   0.027  0.2811  0.2299  0.5238
 3846TIP3    H133097   0.291   5.721   0.122 -1.4477 -0.3974  0.3345
 3846TIP3    H233098   0.383   5.772   0.014  0.7358 -0.0563  2.3270
 3847TIP3   OH233099   0.596   6.981   0.956 -0.1620 -0.2605 -0.4521
 3847TIP3    H133100   0.616   7.074   0.957 -1.5674  0.0389 -0.0969
 3847TIP3    H233101   0.675   6.939   0.991 -0.2904  0.9342  1.3237
 3848TIP3   OH233102   0.369   6.636   1.181 -0.2698  0.8367 -0.4459
 3848TIP3    H133103   0.292   6.693   1.181 -2.3740 -1.9312 -0.1637
 3848TIP3    H233104   0.416   6.660   1.261 -1.8199  1.2547  0.3624
 3849TIP3   OH233105   7.230   1.158   2.160  0.2406 -0.5362  0.1489
 3849TIP3    H133106   7.306   1.174   2.103 -0.2292 -0.5224 -0.4733
 3849TIP3    H233107   7.265   1.104   2.231  0.7881 -0.7059 -0.2471
 3850TIP3   OH233108   1.144   7.280   1.093  0.6668  0.0092 -0.4425
 3850TIP3    H133109   1.093   7.200   1.078  0.2930 -0.3212  2.2640
 3850TIP3    H233110   1.206   7.283   1.021 -0.5883 -1.7018 -1.6423
 3851TIP3   OH233111   3.845   0.394   1.039  0.3561  0.1257  0.0208
 3851TIP3    H133112   3.750   0.387   1.034  0.4244  0.1011 -1.5245
 3851TIP3    H233113   3.867   0.464   0.977  1.3271  0.2676  0.5193
 3852TIP3   OH233114   0.979   0.074   7.913  0.7955  0.1970 -0.4597
 3852TIP3    H133115   0.992   0.118   7.997  0.3337 -0.7129  0.0974
 3852TIP3    H233116   1.045   0.113   7.855  0.1161  1.9402 -0.1193
 3853TIP3   OH233117   2.114   2.973   0.929 -0.3024  0.0298 -0.0668
 3853TIP3    H133118   2.078   2.938   0.848  1.7626 -0.5190 -0.7930
 3853TIP3    H233119   2.160   2.899   0.969  0.7016  0.8785  0.3971
 3854TIP3   OH233120   5.922   0.282   1.354  0.1639 -0.1028  0.0046
 3854TIP3    H133121   5.841   0.334   1.353  0.0694 -0.2675 -0.7591
 3854TIP3    H233122   5.906   0.215   1.421 -0.2015  0.0721  0.0989
 3855TIP3   OH233123   1.645   0.262   1.966 -0.1156  0.1707  0.0129
 3855TIP3    H133124   1.555   0.268   1.998 -0.5492 -1.6388 -0.8228
 3855TIP3    H233125   1.687   0.200   2.025  0.8436  1.6033  0.8901
 3856TIP3   OH233126   0.167   0.995   1.795  0.3538 -0.0363 -0.3328
 3856TIP3    H133127   0.188   0.913   1.749 -0.7914 -0.2196 -0.5472
 3856TIP3    H233128   0.246   1.049   1.784  0.6505 -0.6347 -1.2586
 3857TIP3   OH233129   4.631   6.334   2.122 -0.4025 -0.2999 -0.3490
 3857TIP3    H133130   4.662   6.254   2.080 -1.0324  0.1692 -1.7231
 3857TIP3    H233131   4.537   6.318   2.138 -0.2831 -0.2717  0.4294
 3858TIP3   OH233132   1.179   1.941   0.650  0.4516  0.2148 -0.8359
 3858TIP3    H133133   1.250   1.997   0.620  0.0401  0.5422 -1.2011
 3858TIP3    H233134   1.174   1.957   0.745 -1.8186  3.3134 -1.3799
 3859TIP3   OH233135   2.063   1.315   2.258  0.0577  0.5586  0.0938
 3859TIP3    H133136   2.010   1.394   2.270 -0.4148  0.5236 -1.5931
 3859TIP3    H233137   2.136   1.343   2.202 -0.1161 -0.1932 -0.5175
 3860TIP3   OH233138   3.310   2.173   1.463  0.1563  0.4375  0.3717
 3860TIP3    H133139   3.394   2.212   1.485 -0.0707  1.0699  0.1303
 3860TIP3    H233140   3.330   2.081   1.442  0.9036  0.7888 -0.4894
 3861TIP3   OH233141   1.203   0.281   1.185 -0.3790 -0.2917 -0.1525
 3861TIP3    H133142   1.256   0.260   1.261  0.5926  2.2233 -0.0843
 3861TIP3    H233143   1.127   0.327   1.221 -0.4068  0.0284 -0.6198
 3862TIP3   OH233144   0.859   2.890   1.226  0.3004  0.2950  0.5443
 3862TIP3    H133145   0.917   2.893   1.150  0.8665  0.9049  0.9924
 3862TIP3    H233146   0.804   2.969   1.218  0.7799  0.6888  1.0903
 3863TIP3   OH233147   1.354   1.646   2.357 -0.5142  0.1145  0.6399
 3863TIP3    H133148   1.400   1.670   2.437 -0.8264 -0.7867  1.0962
 3863TIP3    H233149   1.292   1.578   2.384  0.4513 -1.3204 -0.6362
 3864TIP3   OH233150   2.198   5.595   0.630  0.1240  0.4931  0.1405
 3864TIP3    H133151   2.259   5.655   0.673  0.6927  1.0933 -1.4537
 3864TIP3    H233152   2.199   5.622   0.538 -1.4879 -0.3937 -0.1565
 3865TIP3   OH233153   0.038   6.684   6.976 -1.0648  0.1053 -0.1501
 3865TIP3    H133154   0.022   6.590   6.976 -1.2833  0.1303 -1.2818
 3865TIP3    H233155   0.028   6.711   7.067  1.3627 -1.3519  0.5911
 3866TIP3   OH233156   0.037   1.498   1.579 -0.1276 -0.1619  0.7401
 3866TIP3    H133157   0.132   1.499   1.589 -0.0055 -0.6023 -0.2379
 3866TIP3    H233158   0.007   1.432   1.641  0.4423 -1.7374 -0.6180
 3867TIP3   OH233159   6.751   1.312   7.824  0.2528 -0.1006 -0.3046
 3867TIP3    H133160   6.691   1.311   7.898 -1.3397 -1.5512 -1.5810
 3867TIP3    H233161   6.820   1.250   7.848  1.2259  1.4836  1.1092
 3868TIP3   OH233162   2.298   1.787   1.977  0.2117  0.4177  0.2904
 3868TIP3    H133163   2.324   1.732   2.051  1.4582  1.0063  0.3093
 3868TIP3    H233164   2.204   1.771   1.966  0.6101 -1.9642  0.0848
 3869TIP3   OH233165   1.985   0.847   2.367  1.0739  0.2640  0.2625
 3869TIP3    H133166   2.004   0.777   2.431  0.8083 -0.1706 -0.1289
 3869TIP3    H233167   2.029   0.924   2.402 -2.2206  1.0436  3.0244
 3870TIP3   OH233168   1.428   1.101   6.551 -0.1164 -0.6569  0.5704
 3870TIP3    H133169   1.421   1.063   6.464 -0.5471 -0.4903  0.5322
 3870TIP3    H233170   1.338   1.108   6.582 -0.1908  2.0062 -0.1439
 3871TIP3   OH233171   2.077   1.298   0.406 -0.6441  0.4788  0.3998
 3871TIP3    H133172   2.006   1.304   0.342 -0.9220  1.0983  0.7670
 3871TIP3    H233173   2.086   1.387   0.440 -0.4255  0.1649  1.1575
 3872TIP3   OH233174   4.728   5.092   0.582  0.5239 -0.0832 -0.0570
 3872TIP3    H133175   4.808   5.053   0.547  1.6350 -0.2302  2.5515
 3872TIP3    H233176   4.725   5.062   0.673 -1.2143  1.9226  0.5718
 3873TIP3   OH233177   1.992   1.778   1.961 -0.5851  0.1020 -0.5449
 3873TIP3    H133178   1.970   1.808   2.049 -2.3416  0.7890 -1.2093
 3873TIP3    H233179   1.914   1.733   1.930  0.8142 -2.1666 -0.9013
 3874TIP3   OH233180   0.208   2.809   1.183 -0.5374 -0.0021 -0.6407
 3874TIP3    H133181   0.153   2.788   1.258 -1.1381  0.7533 -0.8699
 3874TIP3    H233182   0.292   2.835   1.221 -1.2136  1.5433 -0.1722
 3875TIP3   OH233183   1.594   0.458   2.307 -0.4382  0.1973  0.0116
 3875TIP3    H133184   1.528   0.441   2.239 -0.5999  1.1377 -0.0668
 3875TIP3    H233185   1.566   0.540   2.348  0.6796  0.5994 -0.0226
 3876TIP3   OH233186   0.951   1.549   7.897  0.1121  0.0363 -0.2500
 3876TIP3    H133187   0.923   1.458   7.887  1.5074 -0.3866 -0.3183
 3876TIP3    H233188   0.897   1.583   7.969  0.6474 -1.2834  0.7792
 3877TIP3   OH233189   0.678   1.184   6.692 -0.3654 -0.1970 -0.5078
 3877TIP3    H133190   0.685   1.269   6.649 -1.8532 -0.3931 -1.1462
 3877TIP3    H233191   0.708   1.200   6.782 -1.2955  1.1577 -0.4281
 3878TIP3   OH233192   2.248   1.012   1.576  0.2329  0.4334  0.5295
 3878TIP3    H133193   2.204   0.976   1.653  0.1134  0.4397  0.4643
 3878TIP3    H233194   2.333   0.969   1.574 -0.4622 -0.9367 -0.3876
 3879TIP3   OH233195   1.954   7.115   1.154 -0.3157  0.1018  0.0833
 3879TIP3    H133196   1.896   7.057   1.202  1.7555 -2.6214 -0.5428
 3879TIP3    H233197   1.931   7.101   1.062  0.6306 -0.2360 -0.1073
 3880TIP3   OH233198   2.308   2.051   6.628 -0.1499 -0.6709 -0.4917
 3880TIP3    H133199   2.267   2.132   6.598 -1.5872 -0.7005  1.3005
 3880TIP3    H233200   2.346   2.073   6.713  1.8476 -1.1757 -1.2332
 3881TIP3   OH233201   0.163   5.915   8.376 -0.7130 -0.3000  0.7262
 3881TIP3    H133202   0.236   5.918   8.315 -1.7409  0.4798 -0.4930
 3881TIP3    H233203   0.195   5.863   8.450  0.5651 -1.1878 -0.4335
 3882TIP3   OH233204   0.330   2.839   0.942 -0.2583  0.0365 -0.2148
 3882TIP3    H133205   0.259   2.841   1.006 -1.5214  1.2174 -1.6236
 3882TIP3    H233206   0.362   2.748   0.945 -1.5183 -0.3836  0.7576
 3883TIP3   OH233207   7.215   6.367   7.758  0.0189 -0.3235 -0.1276
 3883TIP3    H133208   7.156   6.310   7.708  1.1937 -0.8805 -0.8869
 3883TIP3    H233209   7.180   6.364   7.847 -0.9003 -0.9318 -0.4991
 3884TIP3   OH233210   1.503   0.541   0.832 -0.2924 -0.4393 -0.2697
 3884TIP3    H133211   1.450   0.475   0.877 -0.1373 -0.7925 -0.5953
 3884TIP3    H233212   1.588   0.538   0.877 -0.8776  0.8963  0.9630
 3885TIP3   OH233213   7.255   0.865   0.622 -0.0822  0.4986 -0.9635
 3885TIP3    H133214   7.172   0.854   0.669  1.8342  0.3894  2.6072
 3885TIP3    H233215   7.240   0.940   0.565 -2.5293  0.7287 -0.1038
 3886TIP3   OH233216   1.579   1.641   1.048 -0.0854 -0.1228  0.7560
 3886TIP3    H133217   1.665   1.599   1.048 -0.5564 -1.0971  1.6884
 3886TIP3    H233218   1.562   1.661   1.140 -1.7336 -1.7378  0.8203
 3887TIP3   OH233219   0.892   6.417   1.432  0.3562  0.1787  0.2105
 3887TIP3    H133220   0.814   6.470   1.448  0.4006  0.1796  0.4280
 3887TIP3    H233221   0.908   6.372   1.515 -1.1362 -2.1137 -0.6917
 3888TIP3   OH233222   0.094   3.212   0.307  0.0975  0.1433 -0.1156
 3888TIP3    H133223   0.143   3.161   0.371  1.1790  0.3052 -0.7989
 3888TIP3    H233224   0.046   3.277   0.359  1.6695  0.8500  0.4561
 3889TIP3   OH233225   1.428   0.895   1.160  0.2854  0.1992  0.1130
 3889TIP3    H133226   1.356   0.899   1.097 -0.1039  1.9997  0.6548
 3889TIP3    H233227   1.473   0.813   1.140 -1.3350 -0.4633 -0.8638
 3890TIP3   OH233228   2.832   0.620   8.450 -0.0560 -0.4594 -0.5620
 3890TIP3    H133229   2.768   0.561   8.410 -0.2461  0.6100 -1.8694
 3890TIP3    H233230   2.897   0.562   8.488  0.3055 -1.5244 -2.7180
 3891TIP3   OH233231   1.367   1.444   1.877  0.0136  0.3886  0.3125
 3891TIP3    H133232   1.314   1.522   1.864  0.6073  0.5269 -1.3890
 3891TIP3    H233233   1.408   1.456   1.963 -2.1046  0.6219  1.2998
 3892TIP3   OH233234   1.758   1.242   0.922 -0.1062 -0.0103 -0.4706
 3892TIP3    H133235   1.699   1.209   0.990  1.7720  0.5230  1.4952
 3892TIP3    H233236   1.835   1.186   0.928 -0.1881 -0.4072 -2.6873
 3893TIP3   OH233237   1.664   1.830   2.190  0.0697 -0.4272  0.4425
 3893TIP3    H133238   1.755   1.858   2.181 -0.6841  2.5620  1.4017
 3893TIP3    H233239   1.663   1.776   2.269  0.8591  0.3920  1.0265
 3894TIP3   OH233240   2.238   0.503   7.636  0.1437  0.0711 -0.1109
 3894TIP3    H133241   2.157   0.465   7.670  0.6263  0.8586  1.9859
 3894TIP3    H233242   2.214   0.592   7.612  0.2535  0.1272 -0.0138
 3895TIP3   OH233243   0.401   3.233   1.530  0.2478 -0.2798  0.0021
 3895TIP3    H133244   0.427   3.259   1.618  0.3236 -1.2211  0.2691
 3895TIP3    H233245   0.306   3.219   1.536  0.1723  0.1436 -0.1929
 3896TIP3   OH233246   6.983   1.893   0.525 -0.0356 -0.2332 -0.7272
 3896TIP3    H133247   6.975   1.988   0.530 -0.5171 -0.3012 -0.2554
 3896TIP3    H233248   7.034   1.878   0.445 -0.4317  0.3943 -1.1027
 3897TIP3   OH233249   3.819   6.313   8.238 -0.5576  0.0862  0.1566
 3897TIP3    H133250   3.859   6.372   8.302  1.0589  0.5294 -1.2171
 3897TIP3    H233251   3.831   6.357   8.154 -1.5330 -1.0644 -0.6055
 3898TIP3   OH233252   1.734   0.667   7.958 -0.1356 -0.3907  0.2195
 3898TIP3    H133253   1.642   0.661   7.932 -0.0224 -1.7928  0.1110
 3898TIP3    H233254   1.737   0.622   8.043  0.4911 -0.5752  0.0967
 3899TIP3   OH233255   2.049   0.323   8.230  0.7436  0.3732 -0.0724
 3899TIP3    H133256   2.036   0.407   8.186  1.6553  1.4677  1.6801
 3899TIP3    H233257   1.974   0.270   8.202 -0.2443  1.9981 -0.6326
 3900TIP3   OH233258   0.954   0.848   7.384 -0.4036 -0.3936 -0.1983
 3900TIP3    H133259   0.984   0.884   7.300 -1.6311 -1.0818 -0.9437
 3900TIP3    H233260   1.028   0.861   7.443 -0.1887  1.8284 -0.8837
 3901TIP3   OH233261   1.237   1.686   7.452  0.2420  0.0552  0.4471
 3901TIP3    H133262   1.219   1.776   7.481  2.6734  0.7660 -0.1290
 3901TIP3    H233263   1.235   1.635   7.533  1.6463  1.1287  1.1943
 3902TIP3   OH233264   1.700   4.701   8.009 -0.3284  0.2032  0.0449
 3902TIP3    H133265   1.781   4.654   7.988 -0.2896  1.0170 -1.6845
 3902TIP3    H233266   1.728   4.773   8.066 -0.0875 -0.5359  0.8714
 3903TIP3   OH233267   2.490   0.643   1.141  0.5529 -0.3976  0.4908
 3903TIP3    H133268   2.529   0.636   1.228  1.1914  1.6974  0.4086
 3903TIP3    H233269   2.521   0.565   1.094  3.1636  0.2591  1.0316
 3904TIP3   OH233270   6.569   6.600   1.938 -0.3835  0.5633  0.5554
 3904TIP3    H133271   6.551   6.692   1.959  1.1005  0.6054  1.6557
 3904TIP3    H233272   6.607   6.602   1.850 -0.1584  1.0138  0.6658
 3905TIP3   OH233273   0.162   0.416   7.371 -0.2057  0.0770 -0.7315
 3905TIP3    H133274   0.214   0.496   7.368 -2.1422  1.3580 -1.5583
 3905TIP3    H233275   0.075   0.446   7.397 -0.6417 -1.9471  0.1798
 3906TIP3   OH233276   0.945   2.335   7.973  0.1758  0.4910  0.3789
 3906TIP3    H133277   1.006   2.327   8.047  1.8472  1.1768 -0.8877
 3906TIP3    H233278   0.885   2.405   7.998 -0.1834 -0.2738  1.7014
 3907TIP3   OH233279   1.677   1.378   7.829 -0.2801 -0.0371  0.3998
 3907TIP3    H133280   1.603   1.325   7.858  0.0377 -0.1643  0.9981
 3907TIP3    H233281   1.736   1.316   7.786 -0.9394  0.2210 -0.9026
 3908TIP3   OH233282   2.041   5.709   1.231  0.6420  0.2105 -0.2742
 3908TIP3    H133283   2.097   5.676   1.160  0.5594 -0.1940 -0.1549
 3908TIP3    H233284   1.955   5.719   1.191 -0.2016 -3.0825  0.5271
 3909TIP3   OH233285   1.420   6.959   0.550  0.6052 -0.5479  0.2297
 3909TIP3    H133286   1.508   6.987   0.527 -0.0190  0.8755 -0.4455
 3909TIP3    H233287   1.386   6.919   0.470  0.0888  0.2833  0.0303
 3910TIP3   OH233288   0.897   6.467   2.011  0.0350 -0.2784  0.4046
 3910TIP3    H133289   0.918   6.473   2.104 -0.7372  0.2757  0.5463
 3910TIP3    H233290   0.841   6.390   2.003  1.2520 -1.1535  0.1797
 3911TIP3   OH233291   1.566   7.070   7.235  0.2893 -0.2935  0.1431
 3911TIP3    H133292   1.631   7.121   7.283 -0.3832  0.7431 -0.0328
 3911TIP3    H233293   1.616   7.003   7.189  1.1654  0.1282  0.4816
 3912TIP3   OH233294   1.611   5.128   2.161  0.3704 -0.2515  0.1167
 3912TIP3    H133295   1.584   5.135   2.070  0.7892  1.1336  0.0910
 3912TIP3    H233296   1.707   5.129   2.158  0.4093 -1.4880  0.4861
 3913TIP3   OH233297   1.866   1.804   2.588 -0.0935  0.1049  0.2313
 3913TIP3    H133298   1.858   1.755   2.669  0.7268  0.2628  0.4123
 3913TIP3    H233299   1.914   1.883   2.612  1.4588 -0.5484 -0.6915
 3914TIP3   OH233300   1.309   0.521   1.440  0.7017  0.3393 -0.3252
 3914TIP3    H133301   1.361   0.518   1.519  0.2968  1.9417  0.0135
 3914TIP3    H233302   1.366   0.560   1.374 -0.3702  3.1135  0.3220
 3915TIP3   OH233303   3.905   2.863   0.887  0.5618  0.2117 -0.6897
 3915TIP3    H133304   3.863   2.934   0.936 -1.8607 -1.8093  0.2789
 3915TIP3    H233305   3.905   2.893   0.796 -2.9776  0.3730 -0.7195
 3916TIP3   OH233306   2.829   1.849   2.226 -0.3317  0.0921 -0.4121
 3916TIP3    H133307   2.736   1.872   2.237  0.1638  0.8058  2.9717
 3916TIP3    H233308   2.871   1.932   2.203 -0.1021  0.4633  1.2592
 3917TIP3   OH233309   3.584   7.140   8.276  0.3897  0.2905 -0.6534
 3917TIP3    H133310   3.654   7.128   8.340  1.5000 -0.4425 -1.9629
 3917TIP3    H233311   3.503   7.133   8.326  1.2511  0.3945  0.7684
 3918TIP3   OH233312   1.634   1.718   0.801  0.4779  0.7675 -0.8533
 3918TIP3    H133313   1.640   1.754   0.889  0.2039  0.0778 -0.5452
 3918TIP3    H233314   1.597   1.631   0.814  1.1806  0.3546 -1.5737
 3919TIP3   OH233315   2.235   1.380   7.670  1.0690 -0.5179 -0.2515
 3919TIP3    H133316   2.252   1.397   7.763 -0.0737  0.9735 -0.2931
 3919TIP3    H233317   2.201   1.291   7.668  2.1281 -0.9507  0.6359
 3920TIP3   OH233318   3.083   0.507   0.464  0.2626  0.2022 -0.3864
 3920TIP3    H133319   2.996   0.492   0.427  0.9160  1.7183 -2.6225
 3920TIP3    H233320   3.106   0.423   0.505 -1.9867 -0.3888 -0.2739
 3921TIP3   OH233321   3.743   2.582   1.801 -0.6389  0.0507 -0.1439
 3921TIP3    H133322   3.784   2.666   1.820 -0.8389  0.4790 -1.5463
 3921TIP3    H233323   3.650   2.601   1.796 -0.6214 -0.1221 -1.1496
 3922TIP3   OH233324   2.608   7.023   0.211  0.3376  0.0634 -0.6917
 3922TIP3    H133325   2.552   6.955   0.172 -0.2864  0.3472 -0.2935
 3922TIP3    H233326   2.647   6.981   0.287  0.0571  0.1043 -0.5237
 3923TIP3   OH233327   3.300   2.069   7.684 -0.6541 -0.0156  0.3124
 3923TIP3    H133328   3.281   2.158   7.655 -2.5193  0.6561  3.3323
 3923TIP3    H233329   3.389   2.052   7.654 -0.2629  2.8855 -0.2944
 3924TIP3   OH233330   3.443   1.120   7.918 -0.1499  0.0337 -0.3412
 3924TIP3    H133331   3.448   1.055   7.847 -3.0910  3.1844 -3.6735
 3924TIP3    H233332   3.533   1.133   7.946  0.9037 -2.5748 -2.3375
 3925TIP3   OH233333   2.517   6.641   2.080  0.1054 -0.0736  0.6786
 3925TIP3    H133334   2.589   6.702   2.095 -0.1749  0.3877  0.1507
 3925TIP3    H233335   2.502   6.645   1.986 -1.2318  0.5315  0.9065
 3926TIP3   OH233336   2.187   0.194   1.844  0.0379 -0.0501 -0.5448
 3926TIP3    H133337   2.240   0.180   1.922  0.4716  1.1991 -0.5988
 3926TIP3    H233338   2.097   0.186   1.875  0.2127  0.1975  0.0447
 3927TIP3   OH233339   1.034   7.098   2.105 -0.4158 -0.2794 -0.0619
 3927TIP3    H133340   1.075   7.164   2.049  0.1495 -0.6440 -0.0838
 3927TIP3    H233341   1.091   7.093   2.182  0.0254 -1.3355 -0.4352
 3928TIP3   OH233342   2.468   0.114   1.867  0.0027 -0.1638 -0.2977
 3928TIP3    H133343   2.444   0.101   1.958 -0.7875 -2.8112 -0.8685
 3928TIP3    H233344   2.563   0.130   1.869  0.0665 -0.6905  0.9182
 3929TIP3   OH233345   3.605   6.310   1.378  0.4495 -0.6358 -0.1166
 3929TIP3    H133346   3.574   6.280   1.292  1.8737 -1.6572 -0.3005
 3929TIP3    H233347   3.525   6.319   1.430 -0.2188 -2.7401 -0.7006
 3930TIP3   OH233348   1.524   0.205   0.360  0.5146  0.1728  0.0886
 3930TIP3    H133349   1.599   0.255   0.327  0.2580 -0.3819 -1.3683
 3930TIP3    H233350   1.473   0.269   0.409  0.6507  1.1445 -1.0040
 3931TIP3   OH233351   4.628   0.167   1.337 -0.7033  0.1387  0.0343
 3931TIP3    H133352   4.634   0.072   1.326  1.3273  0.4975 -2.5802
 3931TIP3    H233353   4.569   0.196   1.267 -1.9013  0.7471  1.2784
 3932TIP3   OH233354   2.336   0.783   0.965 -1.2791  0.4779  0.4162
 3932TIP3    H133355   2.400   0.790   0.895 -0.6132 -0.7876  0.8839
 3932TIP3    H233356   2.386   0.754   1.041 -1.8815  2.5138  1.6018
 3933TIP3   OH233357   3.725   1.785   1.061  0.6641 -0.0951 -0.1329
 3933TIP3    H133358   3.636   1.781   1.096  0.3845 -3.2747 -1.1029
 3933TIP3    H233359   3.780   1.791   1.139 -0.3050 -0.0333  0.5634
 3934TIP3   OH233360   3.652   1.961   0.858 -0.1775 -0.1566 -0.3047
 3934TIP3    H133361   3.651   1.890   0.923 -0.2668 -0.4434 -0.6180
 3934TIP3    H233362   3.609   2.034   0.902 -0.0011 -0.2675  0.0543
 3935TIP3   OH233363   1.965   2.451   1.647 -0.0800 -0.1991  0.1575
 3935TIP3    H133364   2.054   2.473   1.675  0.3549 -1.0531 -0.5191
 3935TIP3    H233365   1.966   2.355   1.637 -1.4306 -0.3623  1.3532
 3936TIP3   OH233366   0.899   1.682   0.722 -0.5356 -0.3321  0.1667
 3936TIP3    H133367   0.892   1.592   0.689 -1.1290 -0.9291  1.8405
 3936TIP3    H233368   0.933   1.732   0.648 -2.5409 -1.4449 -1.5617
 3937TIP3   OH233369   4.538   1.341   1.240 -0.0284  0.2817  0.2473
 3937TIP3    H133370   4.592   1.304   1.310  1.2928  2.7710  0.6125
 3937TIP3    H233371   4.542   1.277   1.170  1.2167 -0.8134  1.2925
 3938TIP3   OH233372   4.647   0.267   0.488 -0.1456 -0.0819  0.3361
 3938TIP3    H133373   4.729   0.217   0.489  0.4127  0.7802 -0.5963
 3938TIP3    H233374   4.669   0.349   0.533 -0.1827  0.5968 -0.8518
 3939TIP3   OH233375   3.382   5.775   1.060  0.3466  0.4657  0.3549
 3939TIP3    H133376   3.424   5.696   1.096 -0.3137  0.0998  0.3339
 3939TIP3    H233377   3.454   5.837   1.049  0.9916 -0.3958 -0.3421
 3940TIP3   OH233378   3.521   0.775   1.109  0.1119 -0.1372 -0.0956
 3940TIP3    H133379   3.498   0.863   1.137 -0.8173  0.2622 -2.0356
 3940TIP3    H233380   3.615   0.779   1.092  0.1271  0.4014  0.1099
 3941TIP3   OH233381   3.681   1.147   0.016  0.2605  0.0906 -0.3180
 3941TIP3    H133382   3.634   1.200   0.080 -0.2259  1.7689 -2.0125
 3941TIP3    H233383   3.613   1.118  -0.046  0.8241 -0.9536 -0.4665
 3942TIP3   OH233384   3.307   2.833   1.968 -0.0389 -0.0836  0.6965
 3942TIP3    H133385   3.329   2.767   2.033  0.0090  0.2780  1.0482
 3942TIP3    H233386   3.317   2.916   2.014 -1.3067  0.1206  0.6208
 3943TIP3   OH233387   1.448   0.336   8.003 -0.1728 -0.4740 -0.4707
 3943TIP3    H133388   1.422   0.422   8.036  2.0650  0.1648 -0.3317
 3943TIP3    H233389   1.536   0.322   8.037 -0.0752 -2.3477 -1.4062
 3944TIP3   OH233390   0.250   1.732   0.220 -0.2382  0.0897  0.7557
 3944TIP3    H133391   0.263   1.810   0.274 -1.1292  2.4557 -2.2275
 3944TIP3    H233392   0.323   1.734   0.157 -1.8464  0.2054 -1.1723
 3945TIP3   OH233393   3.486   7.210   1.714  0.2955 -0.0603 -0.3022
 3945TIP3    H133394   3.521   7.297   1.733  2.7464 -0.6584 -1.7483
 3945TIP3    H233395   3.400   7.226   1.675  1.7279  1.9084 -2.8151
 3946TIP3   OH233396   4.192   6.317   8.385  0.0352 -0.0509  0.0949
 3946TIP3    H133397   4.265   6.338   8.328  0.5983  0.4213  0.9684
 3946TIP3    H233398   4.226   6.249   8.444 -0.5223 -0.5069 -0.1097
 3947TIP3   OH233399   0.506   2.316   1.350  0.1810 -0.3939 -0.0240
 3947TIP3    H133400   0.461   2.281   1.426 -2.0863  0.8366 -0.7526
 3947TIP3    H233401   0.461   2.276   1.275 -0.2373  1.4255 -0.7791
 3948TIP3   OH233402   4.090   1.687   1.629 -0.3214  0.3806  0.0042
 3948TIP3    H133403   4.143   1.755   1.671 -0.4484  0.5530 -0.1150
 3948TIP3    H233404   4.123   1.683   1.540 -1.0545  1.0613 -0.3073
 3949TIP3   OH233405   2.917   3.208   0.220  0.1849 -0.1141 -0.4574
 3949TIP3    H133406   3.005   3.208   0.184 -0.3079 -2.4252 -1.7558
 3949TIP3    H233407   2.929   3.192   0.314  1.1422 -0.7837 -0.6826
 3950TIP3   OH233408   1.440   1.036   0.579 -0.4190  0.0503 -0.5622
 3950TIP3    H133409   1.501   1.083   0.636 -1.6992 -0.5712  1.4109
 3950TIP3    H233410   1.390   1.104   0.535  1.1404  0.5524 -1.5972
 3951TIP3   OH233411   0.895   0.191   1.870  0.6710 -0.4135 -0.1091
 3951TIP3    H133412   0.972   0.135   1.883 -0.0242 -1.6168 -1.0022
 3951TIP3    H233413   0.824   0.144   1.915  0.1403 -0.0755 -0.5952
 3952TIP3   OH233414   3.468   2.932   0.381 -0.0348 -0.0412 -0.3274
 3952TIP3    H133415   3.389   2.930   0.434 -0.0308  1.6696 -0.2488
 3952TIP3    H233416   3.516   3.009   0.411  1.1979 -0.5108 -1.0422
 3953TIP3   OH233417   3.634   3.135   0.435 -0.3051 -0.3584  0.2168
 3953TIP3    H133418   3.640   3.195   0.361  1.1748 -0.6447  0.0796
 3953TIP3    H233419   3.722   3.135   0.473 -0.6696 -1.3279  1.0905
 3954TIP3   OH233420   2.057   1.499   1.986 -0.1844  0.5829  0.5352
 3954TIP3    H133421   2.045   1.588   2.021  0.6699  0.7670  0.3677
 3954TIP3    H233422   2.123   1.460   2.042  1.1142  0.8398 -0.7951
 3955TIP3   OH233423   4.040   1.445   8.107  0.4777  0.0497  0.5437
 3955TIP3    H133424   3.951   1.474   8.130  0.4205  0.1467  0.2068
 3955TIP3    H233425   4.088   1.526   8.089  0.7868  0.0286  1.2553
 3956TIP3   OH233426   3.040   2.062   2.202 -0.3835  0.0078 -0.4072
 3956TIP3    H133427   3.134   2.083   2.198  0.0144 -1.9543 -2.1932
 3956TIP3    H233428   3.012   2.059   2.111 -2.1285  0.2287  0.1071
 3957TIP3   OH233429   4.766   6.121   2.032 -0.0133  0.2247 -0.1759
 3957TIP3    H133430   4.743   6.093   1.943 -1.3675 -0.5293  0.3900
 3957TIP3    H233431   4.809   6.045   2.072  2.0765  1.1015 -0.6986
 3958TIP3   OH233432   1.969   1.407   7.556 -0.4968 -0.0838  0.1662
 3958TIP3    H133433   1.959   1.492   7.513  1.0611 -0.2797 -0.6233
 3958TIP3    H233434   2.063   1.401   7.575 -0.7982 -1.0537  1.4398
 3959TIP3   OH233435   2.836   1.810   0.712  0.5719 -0.0704 -0.3073
 3959TIP3    H133436   2.818   1.879   0.775  0.0216 -0.0442 -0.4970
 3959TIP3    H233437   2.921   1.775   0.739  1.1061  1.0386 -0.5360
 3960TIP3   OH233438   2.597   3.157   7.863  0.7013  0.2057 -0.3851
 3960TIP3    H133439   2.511   3.168   7.902  0.5989 -0.5314 -0.3867
 3960TIP3    H233440   2.583   3.095   7.791  1.1236  0.5415 -0.7637
 3961TIP3   OH233441   0.673   1.714   1.762  0.5250  0.1556  0.2775
 3961TIP3    H133442   0.708   1.723   1.674 -0.8240  1.6075 -0.1251
 3961TIP3    H233443   0.592   1.765   1.762  0.9018  0.8403  2.5693
 3962TIP3   OH233444   2.278   1.414   2.101  0.4688  0.0631  0.0505
 3962TIP3    H133445   2.328   1.425   2.020 -3.4269  2.9544 -2.1307
 3962TIP3    H233446   2.312   1.483   2.159 -0.1115  1.2388 -0.9790
 3963TIP3   OH233447   3.289   1.705   7.484 -0.0011  0.0809  0.3930
 3963TIP3    H133448   3.305   1.611   7.476 -1.7680 -0.3100  1.1219
 3963TIP3    H233449   3.267   1.718   7.577  0.7710  1.3002  0.4142
 3964TIP3   OH233450   3.453   3.457   0.983 -0.4489  0.2276  0.3945
 3964TIP3    H133451   3.536   3.479   1.025  0.5265 -0.8328 -0.9253
 3964TIP3    H233452   3.439   3.365   1.003 -1.4923  0.4946  0.9094
 3965TIP3   OH233453   3.916   0.867   1.120  0.0903 -0.0587  0.4133
 3965TIP3    H133454   3.967   0.844   1.042  0.2174  1.1648  0.1275
 3965TIP3    H233455   3.923   0.790   1.176  1.5715 -0.2275  0.0218
 3966TIP3   OH233456   4.332   0.689   8.462  0.2267  0.5669  0.1898
 3966TIP3    H133457   4.243   0.715   8.484  0.2508  0.4742  0.3982
 3966TIP3    H233458   4.388   0.756   8.501  0.2201  0.9502 -0.4518
 3967TIP3   OH233459   3.518   0.958   2.476 -0.0819 -0.0596 -0.6256
 3967TIP3    H133460   3.486   0.868   2.487  0.4469 -0.3004 -1.0284
 3967TIP3    H233461   3.574   0.954   2.399  2.4513 -0.0428  1.1870
 3968TIP3   OH233462   3.165   1.921   1.917  0.1188  0.7888  0.0870
 3968TIP3    H133463   3.246   1.888   1.877 -0.7254 -0.4274 -0.6454
 3968TIP3    H233464   3.178   2.015   1.923  1.5190  0.6314 -0.1957
 3969TIP3   OH233465   2.923   6.961   8.491  0.3658  0.3409 -0.2938
 3969TIP3    H133466   2.967   6.933   8.571 -0.3391 -0.4000 -0.1546
 3969TIP3    H233467   2.854   7.021   8.522  1.0814  1.2732 -0.4845
 3970TIP3   OH233468   3.956   7.169   1.600  0.5597 -0.5544  0.1725
 3970TIP3    H133469   3.996   7.246   1.558  1.4981  0.3118  2.5690
 3970TIP3    H233470   4.025   7.104   1.601  1.2746  0.1900  2.3210
 3971TIP3   OH233471   2.034   1.271   1.564 -0.8974 -0.3758 -0.7921
 3971TIP3    H133472   2.116   1.291   1.521 -1.0244 -0.5691 -1.1232
 3971TIP3    H233473   2.058   1.251   1.655 -0.7187  0.7937 -0.5728
 3972TIP3   OH233474   4.512   0.056   7.101  0.0994  0.4035 -0.3591
 3972TIP3    H133475   4.576   0.120   7.069 -0.6396  2.0541  1.3759
 3972TIP3    H233476   4.564  -0.007   7.151  0.4549  1.3915  0.5278
 3973TIP3   OH233477   3.546   6.001   1.002  0.4199  0.2112  0.0505
 3973TIP3    H133478   3.588   6.055   0.935 -0.5714  0.9519  0.0137
 3973TIP3    H233479   3.610   5.996   1.072  1.0530  0.3002 -0.5115
 3974TIP3   OH233480   1.929   6.037   1.689 -0.0227  0.3504 -0.0716
 3974TIP3    H133481   1.945   5.948   1.657  0.9276  0.6978 -0.6086
 3974TIP3    H233482   2.016   6.069   1.714 -0.5144  0.7251  1.1900
 3975TIP3   OH233483   3.261   0.592   8.211 -0.2585  0.1307  0.7574
 3975TIP3    H133484   3.341   0.540   8.217  1.0192  1.7765 -1.3983
 3975TIP3    H233485   3.256   0.619   8.119 -1.9270  2.1716  1.4046
 3976TIP3   OH233486   3.016   6.392   1.035 -0.2357 -0.2178  0.3409
 3976TIP3    H133487   2.944   6.454   1.021  1.9867  2.3773  0.0858
 3976TIP3    H233488   3.004   6.361   1.125 -2.0342 -0.3578  0.0784
 3977TIP3   OH233489   2.949   6.362   1.303 -0.3976 -0.4029  0.0115
 3977TIP3    H133490   2.867   6.390   1.344  0.5417 -1.4367  2.7516
 3977TIP3    H233491   2.980   6.290   1.358  2.3004 -0.1041 -1.0217
 3978TIP3   OH233492   2.174   1.252   1.830 -0.5353  0.0909  0.5472
 3978TIP3    H133493   2.168   1.181   1.894 -0.7769 -0.5015 -0.1340
 3978TIP3    H233494   2.194   1.330   1.883  1.7896 -0.8373  1.1041
 3979TIP3   OH233495   1.978   0.674   1.397 -0.1731 -0.0356 -0.6008
 3979TIP3    H133496   2.052   0.663   1.337 -0.6537 -0.8500 -1.0473
 3979TIP3    H233497   1.932   0.591   1.394  0.1915 -0.3176  1.4628
 3980TIP3   OH233498   3.764   6.800   7.834 -0.5148 -0.0808 -0.6655
 3980TIP3    H133499   3.678   6.758   7.822 -1.1409  1.2033 -0.8332
 3980TIP3    H233500   3.762   6.875   7.774  1.0874 -0.5503 -1.3323
 3981TIP3   OH233501   2.199   3.281   0.372 -0.6598  0.2358 -0.0652
 3981TIP3    H133502   2.138   3.262   0.300 -1.5554 -2.8055  1.4110
 3981TIP3    H233503   2.257   3.205   0.375  1.8349  2.1028 -0.0111
 3982TIP3   OH233504   2.319   0.292   0.056 -0.2785 -0.3388  0.2654
 3982TIP3    H133505   2.322   0.292  -0.039 -0.5083 -0.8633  0.2585
 3982TIP3    H233506   2.226   0.299   0.078 -0.3025 -1.2085  0.4488
 3983TIP3   OH233507   1.785   6.948   1.305 -0.1061  0.5011  0.3666
 3983TIP3    H133508   1.705   6.957   1.254  0.4790  2.0973 -0.3156
 3983TIP3    H233509   1.758   6.960   1.396 -0.5869  1.4692  0.0995
 3984TIP3   OH233510   1.778   0.824   8.377  0.0919  0.3616 -0.1978
 3984TIP3    H133511   1.765   0.801   8.469 -0.4808  0.2904 -0.2930
 3984TIP3    H233512   1.752   0.746   8.329 -0.2873  0.6389 -0.4477
 3985TIP3   OH233513   2.992   1.056   0.804  0.0090 -0.2468 -0.2967
 3985TIP3    H133514   2.916   1.042   0.861  0.2887  2.4232  0.8244
 3985TIP3    H233515   2.958   1.047   0.715 -1.7094  1.1189  0.1857
 3986TIP3   OH233516   3.400   0.326   1.578 -0.4557  0.1018 -0.2135
 3986TIP3    H133517   3.322   0.336   1.632  0.9763 -0.0679  1.9175
 3986TIP3    H233518   3.464   0.284   1.634  1.0414 -0.2010 -2.0810
 3987TIP3   OH233519   1.745   1.584   0.220 -0.4571 -0.0825  0.3767
 3987TIP3    H133520   1.804   1.523   0.177 -0.8373  0.7412 -1.3701
 3987TIP3    H233521   1.785   1.600   0.306  1.9875  0.6229 -0.8573
 3988TIP3   OH233522   3.731   1.075   7.667 -0.0561 -0.3497 -0.6526
 3988TIP3    H133523   3.712   1.121   7.749  0.1494 -0.1560 -0.7116
 3988TIP3    H233524   3.651   1.027   7.646 -0.4469  0.3867 -0.8585
 3989TIP3   OH233525   4.130   1.368   0.670 -0.1376 -0.2051  0.1377
 3989TIP3    H133526   4.088   1.447   0.707 -2.3052 -0.9957 -0.5218
 3989TIP3    H233527   4.221   1.374   0.698 -0.1383  2.7944 -0.3050
 3990TIP3   OH233528   3.076   1.591   2.603 -0.0746 -0.1137  0.3687
 3990TIP3    H133529   3.143   1.658   2.613 -1.3559  1.0642  1.3095
 3990TIP3    H233530   3.123   1.508   2.617  1.3412  0.6313  0.1106
 3991TIP3   OH233531   2.830   1.357   1.650 -0.2178  0.7253 -0.8301
 3991TIP3    H133532   2.912   1.354   1.601 -0.5871 -0.1713 -1.4050
 3991TIP3    H233533   2.857   1.356   1.742  0.4160  0.6592 -1.0155
 3992TIP3   OH233534   2.410   5.899   1.078 -0.3126  0.7420  0.4140
 3992TIP3    H133535   2.346   5.932   1.141 -0.6355 -2.6306  1.9590
 3992TIP3    H233536   2.380   5.811   1.056  1.9924  0.3364 -1.4151
 3993TIP3   OH233537   1.795   0.992   1.331  0.5632  0.5594  0.1025
 3993TIP3    H133538   1.764   1.045   1.405 -0.2440  2.7865 -1.7583
 3993TIP3    H233539   1.886   0.970   1.353  0.9298  2.7776  0.9263
 3994TIP3   OH233540   3.252   1.147   8.274 -0.0351  0.0219  0.3947
 3994TIP3    H133541   3.261   1.095   8.194  1.4180  0.7127  0.0923
 3994TIP3    H233542   3.301   1.099   8.340  1.3390  1.0108  0.1060
 3995TIP3   OH233543   2.662   2.772   8.276 -0.5109  0.4151  0.0353
 3995TIP3    H133544   2.715   2.692   8.279 -0.0169  0.6294 -2.0433
 3995TIP3    H233545   2.597   2.754   8.208 -0.9919  1.4299  0.2293
 3996TIP3   OH233546   3.975   0.952   0.737 -0.7009  0.5480  0.7368
 3996TIP3    H133547   3.950   1.041   0.713 -0.0590 -0.0824 -2.5581
 3996TIP3    H233548   4.050   0.932   0.680 -1.7125 -2.5619  0.3697
 3997TIP3   OH233549   3.085   1.289   1.549  0.5429  0.3781 -0.0227
 3997TIP3    H133550   3.112   1.256   1.634 -0.4329  0.5060  0.3477
 3997TIP3    H233551   3.159   1.271   1.491  0.8949 -0.4312  0.6725
 3998TIP3   OH233552   3.735   0.464   0.273  0.2978 -0.6255  0.3099
 3998TIP3    H133553   3.671   0.402   0.310 -0.0096  0.0879  0.9947
 3998TIP3    H233554   3.819   0.418   0.280 -0.2187 -1.8723 -1.2877
 3999TIP3   OH233555   3.467   1.456   1.394 -0.7571 -0.2533  0.0640
 3999TIP3    H133556   3.429   1.438   1.480  0.4845  0.3641  0.7521
 3999TIP3    H233557   3.503   1.372   1.366 -1.3513 -0.5054  0.0415
 4000TIP3   OH233558   5.376   2.151   1.534 -0.0628  0.3161 -0.4312
 4000TIP3    H133559   5.387   2.122   1.443 -0.7444  0.7141 -0.6433
 4000TIP3    H233560   5.466   2.164   1.565  0.1942 -0.3164 -0.8815
 4001TIP3   OH233561   0.808   3.502   1.927  0.4312 -0.8274 -0.6566
 4001TIP3    H133562   0.801   3.561   1.852 -0.3856 -0.8846 -0.6397
 4001TIP3    H233563   0.888   3.528   1.972 -0.1683  0.5861 -0.3795
 4002TIP3   OH233564   2.926   0.951   2.197 -0.0332 -0.2203  0.1929
 4002TIP3    H133565   2.901   1.039   2.225  0.7448  0.0113  0.1803
 4002TIP3    H233566   2.849   0.917   2.153  0.0836  0.9445 -0.9356
 4003TIP3   OH233567   3.756   1.244   1.923  0.5936 -0.3613 -0.0174
 4003TIP3    H133568   3.669   1.259   1.961  0.3642  0.3196 -0.7957
 4003TIP3    H233569   3.749   1.280   1.835  2.1714  1.1315  0.4579
 4004TIP3   OH233570   4.619   1.743   0.971  0.3748  0.2297  0.7845
 4004TIP3    H133571   4.545   1.753   0.911  1.9004  0.1454 -1.1638
 4004TIP3    H233572   4.659   1.830   0.973  0.6254  0.1023  1.2673
 4005TIP3   OH233573   3.693   1.384   1.672  0.3169  0.0352 -0.2944
 4005TIP3    H133574   3.599   1.391   1.688  0.7173 -1.9738  3.4150
 4005TIP3    H233575   3.726   1.473   1.685 -0.7635  0.3005  0.7306
 4006TIP3   OH233576   4.780   6.460   0.654  0.1915 -0.4112  0.3191
 4006TIP3    H133577   4.840   6.430   0.723  0.2775  0.3636  0.5924
 4006TIP3    H233578   4.823   6.436   0.573  1.5861  1.3866  0.4749
 4007TIP3   OH233579   3.827   1.688   0.531  0.1060 -0.3911 -0.3699
 4007TIP3    H133580   3.889   1.651   0.468 -0.0795 -0.3015 -0.6056
 4007TIP3    H233581   3.822   1.781   0.507 -0.6397 -0.5338 -0.7807
 4008TIP3   OH233582   1.949   1.860   0.952  0.0514 -0.3656  0.1818
 4008TIP3    H133583   1.906   1.945   0.937 -0.3717 -0.6048  0.0245
 4008TIP3    H233584   1.948   1.817   0.867 -0.9038 -1.0573  0.5229
 4009TIP3   OH233585   3.699   7.113   0.023 -0.3984  0.0454  0.1229
 4009TIP3    H133586   3.638   7.169   0.072 -1.6492 -1.1127 -0.1078
 4009TIP3    H233587   3.757   7.077   0.090 -0.4442  0.5375  0.4323
 4010TIP3   OH233588   4.366   0.145   0.800  0.5518 -0.5638 -0.4604
 4010TIP3    H133589   4.330   0.093   0.872  1.5568 -2.2097 -1.1146
 4010TIP3    H233590   4.289   0.186   0.760  0.0079  0.5453  1.6680
 4011TIP3   OH233591   1.895   1.690   0.413 -0.0860 -0.5398  0.1892
 4011TIP3    H133592   1.912   1.611   0.464  0.0853 -1.2424 -0.9431
 4011TIP3    H233593   1.972   1.699   0.357 -0.3371  0.1476 -0.0482
 4012TIP3   OH233594   3.557   2.193   0.414 -0.5526  0.2827  0.2000
 4012TIP3    H133595   3.476   2.208   0.464 -1.0911  2.0630 -1.1753
 4012TIP3    H233596   3.540   2.232   0.328  1.4268 -0.1782 -0.4243
 4013TIP3   OH233597   1.446   7.224   1.204  0.1921 -0.0442 -0.2091
 4013TIP3    H133598   1.393   7.147   1.225  0.9434 -0.6838 -0.6100
 4013TIP3    H233599   1.394   7.273   1.141 -0.1943 -0.3382 -0.1199
 4014TIP3   OH233600   3.277   6.402   1.324 -0.0382 -0.1765 -0.1686
 4014TIP3    H133601   3.294   6.332   1.261 -0.4577 -0.6860  0.2759
 4014TIP3    H233602   3.181   6.409   1.326  0.0043  0.4364 -0.2352
 4015TIP3   OH233603   3.542   5.131   8.183  0.5252 -0.1981 -0.0749
 4015TIP3    H133604   3.513   5.041   8.197  0.3466 -0.4638 -2.0502
 4015TIP3    H233605   3.462   5.179   8.160  1.0395 -0.1306 -1.7867
 4016TIP3   OH233606   4.181   0.444   1.382 -0.1577 -0.5002 -0.6233
 4016TIP3    H133607   4.120   0.370   1.389  0.4010 -1.0740 -1.6536
 4016TIP3    H233608   4.126   0.522   1.390 -1.0798 -1.0056 -1.9190
 4017TIP3   OH233609   3.188   0.003   0.764  0.3260  0.4255  0.2167
 4017TIP3    H133610   3.172  -0.049   0.843  0.2327 -0.7986 -0.5898
 4017TIP3    H233611   3.134  -0.039   0.696  0.8341  1.1187 -0.6329
 4018TIP3   OH233612   4.634   0.602   8.145  0.1787  0.3171  0.4297
 4018TIP3    H133613   4.550   0.648   8.142  1.3409  2.4669  0.3240
 4018TIP3    H233614   4.638   0.553   8.063 -0.7025  0.6615  0.1763
 4019TIP3   OH233615   4.123   1.987   1.259  0.5041  0.1918  0.1795
 4019TIP3    H133616   4.098   2.074   1.292  1.4948  0.7051 -0.4029
 4019TIP3    H233617   4.049   1.931   1.283  0.2902  0.9848  1.4336
 4020TIP3   OH233618   2.599   1.324   7.688 -0.2834  0.1538  0.1821
 4020TIP3    H133619   2.683   1.351   7.726 -0.7066 -1.0095  1.9831
 4020TIP3    H233620   2.544   1.304   7.764 -0.9027 -2.9507 -1.0335
 4021TIP3   OH233621   2.558   1.867   7.783 -0.2933  0.7466 -0.3848
 4021TIP3    H133622   2.509   1.808   7.725 -0.8577  0.9241 -0.0962
 4021TIP3    H233623   2.612   1.809   7.836 -1.2835  0.4468  0.3055
 4022TIP3   OH233624   2.879   7.204   2.329  0.1847 -0.2448 -0.1190
 4022TIP3    H133625   2.812   7.271   2.315  0.2279  0.3171  2.1348
 4022TIP3    H233626   2.843   7.126   2.287 -1.3592  0.3620  0.0322
 4023TIP3   OH233627   3.647   0.951   2.196 -0.4166  0.4248 -0.0050
 4023TIP3    H133628   3.733   0.959   2.236 -0.5901 -0.0854  0.4726
 4023TIP3    H233629   3.665   0.918   2.108 -0.1049  0.6343 -0.0215
 4024TIP3   OH233630   0.117   6.891   1.878 -0.3069  0.0031  0.1791
 4024TIP3    H133631   0.190   6.897   1.940 -0.0988 -1.5480  0.0982
 4024TIP3    H233632   0.083   6.803   1.889 -0.4684 -0.1909 -1.6953
 4025TIP3   OH233633   2.973   1.579   0.917  0.6416 -0.0935 -0.0366
 4025TIP3    H133634   2.941   1.573   1.007 -1.2322 -0.4123 -0.7094
 4025TIP3    H233635   3.024   1.660   0.916 -2.8561  2.2115  0.2525
 4026TIP3   OH233636   2.686   0.911   2.109 -0.0951  0.3750  0.0624
 4026TIP3    H133637   2.693   1.006   2.122 -1.5994  0.3742  1.0447
 4026TIP3    H233638   2.648   0.902   2.022 -0.6796  0.7063  0.2768
 4027TIP3   OH233639   0.903   5.594   0.444  0.1061 -0.7412 -0.4989
 4027TIP3    H133640   0.998   5.584   0.453  0.2547 -0.8723 -2.1304
 4027TIP3    H233641   0.867   5.520   0.493  0.9057 -1.7808 -1.4428
 4028TIP3   OH233642   3.419   0.834   1.592 -0.1830 -0.6992 -0.2593
 4028TIP3    H133643   3.513   0.843   1.574  0.1874 -3.0881  0.3016
 4028TIP3    H233644   3.385   0.790   1.514 -0.5621 -1.1956  0.1880
 4029TIP3   OH233645   2.392   1.095   7.387  1.1655 -0.0644 -0.2097
 4029TIP3    H133646   2.380   1.010   7.344 -3.2938  0.8891 -1.0607
 4029TIP3    H233647   2.468   1.133   7.342  0.8915 -2.0120 -2.4196
 4030TIP3   OH233648   3.063   7.158   0.537 -0.2088  0.6183 -0.3890
 4030TIP3    H133649   3.070   7.089   0.603 -0.0872  0.1145 -0.9241
 4030TIP3    H233650   3.147   7.157   0.492 -0.9590 -0.3199 -1.8005
 4031TIP3   OH233651   3.824   0.033   1.796  0.0126  0.0331 -0.4711
 4031TIP3    H133652   3.800  -0.024   1.869 -1.3053 -0.1454 -1.0293
 4031TIP3    H233653   3.898  -0.011   1.754  2.0223  1.0647  1.8387
 4032TIP3   OH233654   3.173   0.627   1.934 -0.1600 -0.0174 -0.5696
 4032TIP3    H133655   3.090   0.663   1.902 -0.4385  0.1190  0.2950
 4032TIP3    H233656   3.191   0.553   1.875  0.0984  1.1310 -1.9637
 4033TIP3   OH233657   2.194   2.347   7.120  0.2809 -0.0124  0.1129
 4033TIP3    H133658   2.169   2.388   7.037  1.5748 -0.7560 -0.6605
 4033TIP3    H233659   2.197   2.419   7.183  2.3341  1.0801 -1.1776
 4034TIP3   OH233660   3.856   1.833   7.853  0.1749  0.6207  0.3778
 4034TIP3    H133661   3.880   1.744   7.881  2.0505  1.1587  0.5814
 4034TIP3    H233662   3.763   1.828   7.833  0.0693 -1.1792  1.2434
 4035TIP3   OH233663   2.139   6.517   1.514  0.3056  0.3243 -0.4703
 4035TIP3    H133664   2.114   6.439   1.563  1.8848  0.4319  0.5214
 4035TIP3    H233665   2.116   6.496   1.423 -0.6031 -0.7253 -0.0077
 4036TIP3   OH233666   2.764   0.872   8.144  0.1087 -0.0981  0.7219
 4036TIP3    H133667   2.837   0.837   8.195 -0.2644 -0.6808  0.8669
 4036TIP3    H233668   2.686   0.851   8.197 -0.1334  0.8419  0.7487
 4037TIP3   OH233669   1.156   2.136   2.681  0.2855  0.0404  0.1716
 4037TIP3    H133670   1.219   2.085   2.731  1.4970  1.5920  0.2437
 4037TIP3    H233671   1.136   2.211   2.737 -1.1168 -0.0944 -0.1358
 4038TIP3   OH233672   4.196   3.233   0.733  0.0847  0.1644  0.2904
 4038TIP3    H133673   4.209   3.327   0.716  2.5480 -0.3287 -0.6495
 4038TIP3    H233674   4.173   3.229   0.826 -0.7739  1.7612  0.1671
 4039TIP3   OH233675   3.992   2.559   0.449  0.2835 -0.0628  0.4063
 4039TIP3    H133676   4.045   2.516   0.382  0.2160 -1.0061  0.9420
 4039TIP3    H233677   3.935   2.489   0.482 -0.0110  0.5061  1.1040
 4040TIP3   OH233678   2.156   2.588   1.308  0.6304  0.2192  0.0244
 4040TIP3    H133679   2.197   2.660   1.357 -0.0888  0.8151 -0.2309
 4040TIP3    H233680   2.202   2.509   1.338 -0.9138  0.3583  2.9512
 4041TIP3   OH233681   2.820   1.582   7.783  0.2269  0.2070  0.1043
 4041TIP3    H133682   2.848   1.577   7.691 -0.2661  0.8013 -0.0853
 4041TIP3    H233683   2.901   1.588   7.833  0.4494  1.5350 -0.4098
 4042TIP3   OH233684   2.435   1.424   1.838  0.0056 -0.6622  0.0894
 4042TIP3    H133685   2.497   1.409   1.910 -0.0882 -1.1729  0.0662
 4042TIP3    H233686   2.488   1.461   1.768 -0.1591  1.1742  0.9146
 4043TIP3   OH233687   3.036   2.099   8.409  0.4132  0.5198  0.7484
 4043TIP3    H133688   3.072   2.094   8.321  1.0017  2.5938  0.8450
 4043TIP3    H233689   2.956   2.046   8.405  1.0636 -0.3700 -0.6989
 4044TIP3   OH233690   3.748   2.686   1.252 -0.1974  0.1427  0.3576
 4044TIP3    H133691   3.736   2.638   1.171 -0.2672  2.9895 -1.3861
 4044TIP3    H233692   3.837   2.666   1.280 -0.6074 -1.8605  0.2925
 4045TIP3   OH233693   4.434   1.288   0.508 -0.2368 -0.0812  0.3768
 4045TIP3    H133694   4.373   1.348   0.465  1.9065  2.2294  0.5122
 4045TIP3    H233695   4.424   1.305   0.601  0.5503  0.2458  0.4057
 4046TIP3   OH233696   2.809   7.171   0.649 -0.3323  0.7183  0.9314
 4046TIP3    H133697   2.745   7.104   0.676 -0.8762  1.0780  0.5303
 4046TIP3    H233698   2.892   7.123   0.643 -0.9464 -0.1816 -0.5352
 4047TIP3   OH233699   2.351   0.810   1.317  0.7732 -0.0024 -0.3185
 4047TIP3    H133700   2.338   0.782   1.408  0.3579 -0.9539 -0.6600
 4047TIP3    H233701   2.309   0.741   1.265 -1.7725  2.0872 -1.1486
 4048TIP3   OH233702   3.867   1.252   0.959 -0.5189 -0.0227 -0.6064
 4048TIP3    H133703   3.857   1.190   1.031 -0.6105 -0.3463 -0.8960
 4048TIP3    H233704   3.892   1.198   0.884 -1.8371  0.1369 -1.1625
 4049TIP3   OH233705   1.870   6.358   0.788  0.5333 -0.1352  0.2572
 4049TIP3    H133706   1.919   6.426   0.835  4.2800 -0.7560 -2.4904
 4049TIP3    H233707   1.806   6.406   0.736  0.3678  0.9559  1.4192
 4050TIP3   OH233708   2.697   1.729   1.915  0.5872 -0.0665 -0.3773
 4050TIP3    H133709   2.611   1.769   1.898  1.0215  0.6210 -0.9917
 4050TIP3    H233710   2.696   1.648   1.864  0.6084  0.3405 -1.0283
 4051TIP3   OH233711   5.720   0.376   0.099 -0.0648 -0.1875  0.3540
 4051TIP3    H133712   5.662   0.343   0.030  0.6070  1.0235 -0.8121
 4051TIP3    H233713   5.683   0.340   0.180 -1.9181 -0.1558 -0.4480
 4052TIP3   OH233714   3.116   0.264   1.981  0.1340 -0.1393 -0.1164
 4052TIP3    H133715   3.084   0.179   2.012 -0.5302 -0.3631 -1.4025
 4052TIP3    H233716   3.038   0.319   1.979  0.5338  0.4533  0.5231
 4053TIP3   OH233717   3.454   6.932   1.332 -0.1640 -0.3496  0.2494
 4053TIP3    H133718   3.449   6.943   1.427  2.4277 -1.8781  0.6068
 4053TIP3    H233719   3.464   6.838   1.318 -1.9130 -0.2987 -1.6400
 4054TIP3   OH233720   1.325   0.703   1.757 -0.1676  0.3150  0.0448
 4054TIP3    H133721   1.391   0.731   1.821  0.5294 -2.9387  0.8127
 4054TIP3    H233722   1.246   0.687   1.808 -0.3387  0.1186 -0.2783
 4055TIP3   OH233723   2.025   0.819   0.736 -0.0022  0.3393  0.2907
 4055TIP3    H133724   2.108   0.785   0.701 -0.4655 -0.9262  0.3982
 4055TIP3    H233725   2.047   0.855   0.822  0.4728  0.2143  0.2194
 4056TIP3   OH233726   4.106   2.384   1.812  0.3370 -0.2929  0.2403
 4056TIP3    H133727   4.064   2.299   1.828  1.8663 -1.2411 -0.6372
 4056TIP3    H233728   4.180   2.385   1.873 -0.0740  0.7239  0.7334
 4057TIP3   OH233729   3.629   1.019   0.963 -0.1103  0.4139 -0.0177
 4057TIP3    H133730   3.554   1.075   0.942  0.3396  0.9815 -0.1236
 4057TIP3    H233731   3.685   1.075   1.017  0.9096  0.4536 -1.1101
 4058TIP3   OH233732   1.731   6.216   1.753  0.4974  0.1097  0.3064
 4058TIP3    H133733   1.795   6.145   1.761  0.9611  0.3921 -0.8834
 4058TIP3    H233734   1.648   6.176   1.779  0.8334 -0.7438  0.0798
 4059TIP3   OH233735   2.520   0.936   1.648  0.0646  0.1818 -0.2219
 4059TIP3    H133736   2.540   1.007   1.708  0.5219  0.6638 -0.9474
 4059TIP3    H233737   2.516   0.858   1.704  1.5354  0.4531  0.2774
 4060TIP3   OH233738   1.499   0.552   1.262 -0.0900  0.6224 -0.8501
 4060TIP3    H133739   1.541   0.633   1.236  1.8101  0.4191  1.4151
 4060TIP3    H233740   1.569   0.486   1.257 -1.6962 -1.0214 -3.0831
 4061TIP3   OH233741   1.328   1.208   2.357  0.0864 -0.1282  0.5917
 4061TIP3    H133742   1.397   1.142   2.361  0.7763  0.5467 -0.0231
 4061TIP3    H233743   1.254   1.162   2.317  0.8877 -0.2713 -0.7661
 4062TIP3   OH233744   2.441   7.039   2.357 -0.0659 -0.0753  0.0783
 4062TIP3    H133745   2.450   7.046   2.452  1.1968  0.9045 -0.1045
 4062TIP3    H233746   2.385   7.113   2.333 -0.4283 -0.3534  0.0653
 4063TIP3   OH233747   3.727   2.487   7.986  0.1319 -0.3649 -0.5115
 4063TIP3    H133748   3.703   2.396   7.973 -2.9540  0.5156 -1.5789
 4063TIP3    H233749   3.698   2.507   8.075 -1.2638  0.1422 -1.0646
 4064TIP3   OH233750   3.066   1.476   7.962 -0.3154 -0.4395  0.2244
 4064TIP3    H133751   3.084   1.396   8.011  0.6473  0.7417  1.8471
 4064TIP3    H233752   3.032   1.537   8.027  0.5520  1.0188 -0.6572
 4065TIP3   OH233753   2.656   0.930   0.953 -0.8796  0.0297  0.0833
 4065TIP3    H133754   2.690   0.861   1.010 -0.8168  0.4487  0.5558
 4065TIP3    H233755   2.621   0.996   1.013 -1.3902  0.1785 -0.3757
 4066TIP3   OH233756   3.311   6.849   1.756 -0.1410 -0.7476 -1.4643
 4066TIP3    H133757   3.377   6.893   1.702  1.6164 -1.1062  0.3157
 4066TIP3    H233758   3.357   6.773   1.793 -1.1550 -0.3032  0.8178
 4067TIP3   OH233759   4.278   0.835   1.229  0.2513 -0.5759 -0.2204
 4067TIP3    H133760   4.274   0.773   1.157  0.7152 -2.5245  1.4003
 4067TIP3    H233761   4.368   0.870   1.225  0.6305 -1.5073  0.0977
 4068TIP3   OH233762   4.769   2.238   1.254 -0.2125  0.0909 -0.2926
 4068TIP3    H133763   4.835   2.245   1.186 -0.3055 -0.4708 -0.4459
 4068TIP3    H233764   4.790   2.308   1.316  1.1171 -0.7041  0.1709
 4069TIP3   OH233765   4.676   4.014   7.194 -1.1177 -0.2922  0.3737
 4069TIP3    H133766   4.633   3.949   7.249 -0.1575 -0.9372  0.3736
 4069TIP3    H233767   4.761   3.975   7.173  0.3488  1.8848  2.1603
 4070TIP3   OH233768   3.257   1.964   1.222  0.1819  0.2342  0.5314
 4070TIP3    H133769   3.326   1.898   1.220 -1.0224 -1.0113 -1.4764
 4070TIP3    H233770   3.285   2.029   1.158 -0.9680 -0.7910 -1.0497
 4071TIP3   OH233771   4.368   1.357   2.085  0.3808 -0.2423  0.3360
 4071TIP3    H133772   4.287   1.405   2.067  1.3485  0.6432 -1.7792
 4071TIP3    H233773   4.374   1.292   2.015 -0.4966 -3.0129  2.7087
 4072TIP3   OH233774   4.814   2.281   6.651  0.5755 -0.5646  0.1397
 4072TIP3    H133775   4.819   2.193   6.689  1.8269 -1.4032 -1.8908
 4072TIP3    H233776   4.860   2.337   6.714  0.3092 -1.4657  1.1420
 4073TIP3   OH233777   2.677   0.509   8.039  0.1432 -0.2065 -0.1787
 4073TIP3    H133778   2.736   0.499   8.113  0.2209 -0.3645 -0.2609
 4073TIP3    H233779   2.731   0.547   7.970  0.4979 -1.6315 -0.6937
 4074TIP3   OH233780   3.627   0.041   0.924 -0.6574  0.4811  0.1393
 4074TIP3    H133781   3.717   0.008   0.918 -0.5507  0.4352  1.7459
 4074TIP3    H233782   3.599   0.050   0.833  0.6524 -0.3863 -0.3729
 4075TIP3   OH233783   3.573   1.152   1.566 -0.7352 -0.1533 -0.0954
 4075TIP3    H133784   3.615   1.071   1.538 -0.0494  0.5621 -1.1632
 4075TIP3    H233785   3.643   1.201   1.610 -1.5763 -0.8773  2.1236
 4076TIP3   OH233786   0.284   1.678   1.922 -0.1121 -0.2292 -0.1037
 4076TIP3    H133787   0.306   1.587   1.900  1.7880  0.6782 -2.1552
 4076TIP3    H233788   0.190   1.685   1.906 -0.2535 -1.8239  0.0002
 4077TIP3   OH233789   3.912   1.774   1.271  0.0084 -0.5624 -0.1972
 4077TIP3    H133790   3.838   1.744   1.324 -0.2715 -0.6251 -0.6163
 4077TIP3    H233791   3.980   1.708   1.283 -0.0794 -0.6092  0.0333
 4078TIP3   OH233792   2.873   1.484   1.175  0.2753  0.2694  0.5647
 4078TIP3    H133793   2.907   1.395   1.168 -1.2573 -0.2608 -0.3202
 4078TIP3    H233794   2.883   1.507   1.267  0.3614 -0.9422  0.8570
 4079TIP3   OH233795   5.421   0.057   6.852  0.2171 -0.5830 -0.9361
 4079TIP3    H133796   5.431   0.070   6.758 -0.1856 -0.1160 -0.9213
 4079TIP3    H233797   5.326   0.057   6.866  0.2342 -2.1646 -0.7236
 4080TIP3   OH233798   3.803   1.088   1.194 -0.3699 -0.4922 -0.4126
 4080TIP3    H133799   3.831   1.000   1.172 -2.1164 -1.2862  0.4174
 4080TIP3    H233800   3.864   1.116   1.263 -2.4162 -2.7737  2.4656
 4081TIP3   OH233801   4.535   6.560   8.311 -0.0785  0.2674 -0.0230
 4081TIP3    H133802   4.538   6.519   8.397  1.8418 -0.3614 -0.3670
 4081TIP3    H233803   4.488   6.498   8.256  0.9863 -0.5447 -0.0393
 4082TIP3   OH233804   2.411   6.125   1.676  0.1040 -0.3176 -0.0851
 4082TIP3    H133805   2.490   6.152   1.629  2.7226 -2.5237  2.8776
 4082TIP3    H233806   2.398   6.193   1.741 -0.6713  0.2195 -0.7922
 4083TIP3   OH233807   1.018   5.573   1.995  0.1591 -0.3248  0.8386
 4083TIP3    H133808   1.074   5.559   2.072  0.8135 -0.3064  0.3726
 4083TIP3    H233809   1.054   5.514   1.929  0.5078  0.7293  0.0894
 4084TIP3   OH233810   4.634   0.055   8.446  0.1722  0.0642 -0.2108
 4084TIP3    H133811   4.637   0.078   8.539  2.0982  0.4117 -0.3476
 4084TIP3    H233812   4.573   0.118   8.408 -1.1662 -0.5145  0.9174
 4085TIP3   OH233813   4.172   0.644   1.670  0.1428 -0.0320 -0.2906
 4085TIP3    H133814   4.111   0.674   1.603  0.4446  0.4175 -0.3646
 4085TIP3    H233815   4.131   0.670   1.753 -0.5492 -1.1688 -0.2595
 4086TIP3   OH233816   1.512   1.188   1.877 -0.3127  0.2153  0.1241
 4086TIP3    H133817   1.544   1.272   1.844 -1.2013  0.9694  1.1567
 4086TIP3    H233818   1.422   1.183   1.847  0.0370 -0.8441 -0.7911
 4087TIP3   OH233819   2.407   0.218   0.330  0.8364  0.2051 -0.2800
 4087TIP3    H133820   2.362   0.236   0.248  1.4099 -0.3177 -0.7115
 4087TIP3    H233821   2.425   0.124   0.329 -1.0476 -0.2190  1.4193
 4088TIP3   OH233822   3.626   2.560   0.551 -0.4169 -0.4787 -0.0388
 4088TIP3    H133823   3.617   2.613   0.630 -1.1351  0.8217 -0.9802
 4088TIP3    H233824   3.541   2.519   0.539 -0.0936 -1.2501  0.2527
 4089TIP3   OH233825   2.067   6.122   6.716  0.0790  0.2131 -0.6975
 4089TIP3    H133826   2.115   6.043   6.691  1.7681  0.9159  0.2901
 4089TIP3    H233827   2.061   6.173   6.635  1.7358  0.4916 -0.6644
 4090TIP3   OH233828   1.651   6.462   0.089 -0.3816  0.0241  0.5640
 4090TIP3    H133829   1.703   6.510   0.154  2.1321 -1.2310 -0.4392
 4090TIP3    H233830   1.581   6.522   0.065  1.2906  2.2545  1.1091
 4091TIP3   OH233831   4.080   3.069   8.426  0.3588 -0.3614  0.0613
 4091TIP3    H133832   4.146   3.120   8.473 -0.4249 -0.4776  1.2965
 4091TIP3    H233833   4.110   3.070   8.335  0.9545  1.3475  0.2641
 4092TIP3   OH233834   2.886   6.865   0.486 -0.3118 -0.3412 -0.1075
 4092TIP3    H133835   2.950   6.806   0.446  1.6661  1.1622  0.7703
 4092TIP3    H233836   2.881   6.837   0.577  2.7707  2.5128  1.0482
 4093TIP3   OH233837   2.421   1.588   2.782  0.0090  0.1367  0.2701
 4093TIP3    H133838   2.343   1.617   2.735  0.5169  0.1391 -0.5864
 4093TIP3    H233839   2.442   1.503   2.742 -1.7359 -1.7001  3.0532
 4094TIP3   OH233840   1.914   1.538   2.288  0.2399  0.1973 -0.1663
 4094TIP3    H133841   1.982   1.602   2.309 -0.3689  0.2557  1.7217
 4094TIP3    H233842   1.835   1.573   2.328 -0.1251 -1.6735  0.8294
 4095TIP3   OH233843   4.587   3.614   1.730 -0.0533 -0.0683 -0.1303
 4095TIP3    H133844   4.542   3.574   1.804  1.4928 -1.2659  0.1947
 4095TIP3    H233845   4.533   3.592   1.654 -1.6620  1.1940  0.6149
 4096TIP3   OH233846   2.661   1.186   7.318 -0.1605 -0.0444 -0.1092
 4096TIP3    H133847   2.704   1.252   7.372  0.7473 -1.1917  0.5808
 4096TIP3    H233848   2.671   1.218   7.228 -1.5281  1.7830  0.3418
 4097TIP3   OH233849   4.406   0.276   8.439  0.2597 -0.1057  0.0534
 4097TIP3    H133850   4.442   0.327   8.512 -1.1703 -0.2981  0.8951
 4097TIP3    H233851   4.476   0.277   8.373  0.9576  1.3975  0.7881
 4098TIP3   OH233852   3.097   1.116   1.135  0.1163  0.1011  0.1609
 4098TIP3    H133853   3.071   1.047   1.073 -1.3091  0.4163  0.3874
 4098TIP3    H233854   3.015   1.145   1.174  0.7581  1.6259  0.4003
 4099TIP3   OH233855   3.292   2.943   0.824  0.1801 -0.5037  0.2920
 4099TIP3    H133856   3.262   2.917   0.911  1.4284  0.4475  1.0106
 4099TIP3    H233857   3.387   2.930   0.826  0.3669  0.6980 -0.5182
 4100TIP3   OH233858   2.417   5.237   8.177  0.3913 -0.0342 -0.3201
 4100TIP3    H133859   2.427   5.272   8.265  0.1018  1.3711 -0.8458
 4100TIP3    H233860   2.419   5.142   8.190 -0.1086  0.1438  1.2560
 4101TIP3   OH233861   4.318   1.381   1.042 -0.2241  0.2646  0.1589
 4101TIP3    H133862   4.392   1.417   1.092  0.2475 -0.9031  0.3240
 4101TIP3    H233863   4.266   1.333   1.106  1.4406 -2.9194 -0.7334
 4102TIP3   OH233864   5.339   6.262   1.926  0.2659  0.1440  0.0167
 4102TIP3    H133865   5.307   6.187   1.977  1.3933  0.0680  0.6324
 4102TIP3    H233866   5.273   6.274   1.858 -0.2918 -0.9646  0.3401
 4103TIP3   OH233867   3.843   2.050   0.671  0.2708  0.0912 -0.2498
 4103TIP3    H133868   3.809   2.029   0.583 -0.1641  1.7721 -0.4908
 4103TIP3    H233869   3.771   2.029   0.730  0.2934 -0.3246 -0.3695
 4104TIP3   OH233870   2.990   2.055   1.205  0.6762  0.0936 -0.3215
 4104TIP3    H133871   2.980   1.997   1.280  1.9468 -0.0765 -0.2576
 4104TIP3    H233872   3.084   2.050   1.184  0.2847 -0.1534 -2.1377
 4105TIP3   OH233873   3.810   1.660   1.662  0.4651  0.4316 -0.1257
 4105TIP3    H133874   3.903   1.680   1.658  0.3672  0.7431 -0.8001
 4105TIP3    H233875   3.775   1.721   1.727  0.3917  1.6022 -1.2475
 4106TIP3   OH233876   3.661   1.687   1.409  0.3014 -0.1269  0.0231
 4106TIP3    H133877   3.626   1.598   1.400  2.3287 -0.8088 -1.6136
 4106TIP3    H233878   3.667   1.700   1.504 -1.5899 -1.0660  0.3127
 4107TIP3   OH233879   5.151   0.118   6.906  0.2574 -0.4354  0.4533
 4107TIP3    H133880   5.101   0.063   6.845 -0.1344 -2.3145  2.4257
 4107TIP3    H233881   5.098   0.121   6.985  0.4268  2.5739  0.5144
 4108TIP3   OH233882   4.154   6.199   1.343 -0.3370 -0.0646 -0.4376
 4108TIP3    H133883   4.208   6.277   1.356  0.2715 -0.5838  0.1905
 4108TIP3    H233884   4.209   6.126   1.372 -0.7976 -0.7602 -1.2708
 4109TIP3   OH233885   4.220   7.077   0.448 -0.2157 -0.1676 -0.6018
 4109TIP3    H133886   4.246   7.056   0.538 -1.2539 -0.1662 -0.2911
 4109TIP3    H233887   4.265   7.159   0.429 -0.6545  0.2693  0.2208
 4110TIP3   OH233888   7.126   1.396   0.147 -0.2507  0.2481 -0.1815
 4110TIP3    H133889   7.175   1.475   0.125  0.7855 -0.4711 -0.4852
 4110TIP3    H233890   7.103   1.358   0.063  0.6014 -0.5934 -0.0420
 4111TIP3   OH233891   2.735   7.210   7.587 -0.5911 -0.1044  0.0253
 4111TIP3    H133892   2.720   7.122   7.622 -1.8749  0.0474 -0.1175
 4111TIP3    H233893   2.809   7.244   7.638 -0.2319 -1.1832  0.2284
 4112TIP3   OH233894   3.926   0.662   0.247  0.4217 -0.3534 -0.3579
 4112TIP3    H133895   3.850   0.608   0.227 -0.8080  1.7129 -1.4163
 4112TIP3    H233896   3.904   0.704   0.330  0.0427  0.8172 -1.0292
 4113TIP3   OH233897   0.793   5.694   1.876  0.1459  0.3036  0.0709
 4113TIP3    H133898   0.856   5.664   1.941  0.8497 -0.9343 -1.1517
 4113TIP3    H233899   0.846   5.722   1.802 -0.7151 -0.6913 -0.9469
 4114TIP3   OH233900   2.423   1.525   0.288 -0.5129  0.5432  0.1809
 4114TIP3    H133901   2.501   1.573   0.314 -0.9377  2.5425 -2.1163
 4114TIP3    H233902   2.382   1.499   0.371  0.7684  2.4302  1.4359
 4115TIP3   OH233903   2.309   6.978   1.700 -0.2473  0.0033 -0.2861
 4115TIP3    H133904   2.398   6.962   1.733 -0.9077  0.0530  1.5881
 4115TIP3    H233905   2.266   6.893   1.705 -0.5974  0.1829 -0.2539
 4116TIP3   OH233906   2.961   1.707   7.565 -0.2910 -0.2470  0.2101
 4116TIP3    H133907   3.006   1.624   7.549 -1.4208 -0.9824  0.7739
 4116TIP3    H233908   3.019   1.754   7.625  2.2449  1.0453 -3.0745
 4117TIP3   OH233909   3.129   2.902   6.226 -0.2642  0.0345 -0.3335
 4117TIP3    H133910   3.101   2.914   6.317 -0.5993  0.8651 -0.5384
 4117TIP3    H233911   3.101   2.813   6.204 -2.6617  0.7781 -0.4701
 4118TIP3   OH233912   2.712   0.169   1.678  0.5024 -0.0180  0.1727
 4118TIP3    H133913   2.653   0.104   1.641 -0.9692  0.2946  1.8897
 4118TIP3    H233914   2.715   0.148   1.772 -0.1150  2.4532  0.7839
 4119TIP3   OH233915   4.388   6.826   7.923 -0.1811  0.0421  0.4962
 4119TIP3    H133916   4.320   6.890   7.904  0.5350  0.9337  0.9203
 4119TIP3    H233917   4.445   6.868   7.987  0.4776 -0.8906  0.5504
 4120TIP3   OH233918   1.266   1.211   0.948 -0.0244  0.1450  0.2775
 4120TIP3    H133919   1.199   1.143   0.957 -0.9114  0.7737 -1.2851
 4120TIP3    H233920   1.345   1.172   0.985 -1.3439 -0.4467  2.5517
 4121TIP3   OH233921   0.980   2.940   0.293 -0.4312 -0.2974 -0.1620
 4121TIP3    H133922   0.944   2.915   0.378  1.1619 -3.4277 -0.3481
 4121TIP3    H233923   1.074   2.946   0.308 -0.3578  1.3776 -1.1994
 4122TIP3   OH233924   3.646   0.019   1.470 -0.3183 -0.2365  0.0529
 4122TIP3    H133925   3.699  -0.045   1.518  0.2038  1.2325  1.4861
 4122TIP3    H233926   3.709   0.073   1.424 -0.5646  1.3205  1.5059
 4123TIP3   OH233927   3.946   3.331   0.074  0.1535  0.2882  0.1990
 4123TIP3    H133928   4.006   3.291   0.136  1.7524  2.2224 -0.0384
 4123TIP3    H233929   3.992   3.325  -0.010 -0.6293  0.4831 -0.2470
 4124TIP3   OH233930   3.752   6.707   0.348  0.1231 -0.2941  0.1735
 4124TIP3    H133931   3.765   6.652   0.271 -0.6443  1.0343 -0.9236
 4124TIP3    H233932   3.657   6.709   0.360  0.1791  0.3626  0.5334
 4125TIP3   OH233933   1.240   0.993   7.475  0.4470 -0.1116  0.1370
 4125TIP3    H133934   1.328   1.017   7.505  0.6164  1.2267 -1.3977
 4125TIP3    H233935   1.184   1.066   7.503 -0.2027 -0.9596  1.1147
 4126TIP3   OH233936   4.923   0.051   0.715 -0.1755  0.0344 -0.0204
 4126TIP3    H133937   4.986   0.103   0.766 -0.1957 -0.9109  0.9942
 4126TIP3    H233938   4.841   0.057   0.765 -0.0249 -1.4423  0.4263
 4127TIP3   OH233939   0.020   7.036   1.672 -0.3025  0.1026  0.1379
 4127TIP3    H133940   0.078   7.111   1.674  0.3366 -0.3938  0.3889
 4127TIP3    H233941   0.060   6.973   1.732  0.9694 -1.7281 -2.5323
 4128TIP3   OH233942   4.027   1.219   1.831  0.8521  0.1223 -0.6774
 4128TIP3    H133943   3.957   1.237   1.894  0.7073 -2.0492 -0.1821
 4128TIP3    H233944   4.091   1.168   1.881 -0.5228 -4.0058 -2.9691
 4129TIP3   OH233945   4.025   5.988   7.906  0.2943 -0.4907 -0.3574
 4129TIP3    H133946   4.011   6.073   7.949 -1.6476  0.2851 -2.4337
 4129TIP3    H233947   3.966   5.928   7.951 -0.0148 -0.2193 -0.4028
 4130TIP3   OH233948   2.155   0.943   0.447 -0.2781 -0.3245  0.5463
 4130TIP3    H133949   2.101   0.883   0.396 -2.7622  0.1343  2.5664
 4130TIP3    H233950   2.180   0.894   0.525  0.4399  0.1803  0.6393
 4131TIP3   OH233951   4.774   4.066   1.407 -0.4036 -0.0992 -0.3080
 4131TIP3    H133952   4.798   4.030   1.493  0.2680 -0.8388 -0.7964
 4131TIP3    H233953   4.839   4.134   1.390  0.0555 -0.6117 -0.6504
 4132TIP3   OH233954   5.252   1.161   1.989  0.0185  0.1081  0.3339
 4132TIP3    H133955   5.267   1.158   2.083 -0.1360 -0.7891  0.3369
 4132TIP3    H233956   5.205   1.243   1.974  0.6569  0.5851  0.9465
 4133TIP3   OH233957   5.443   0.363   1.987  0.4091  0.2319 -0.1234
 4133TIP3    H133958   5.350   0.383   1.979  0.5529  0.4266 -1.2732
 4133TIP3    H233959   5.484   0.445   2.014 -0.0292 -0.3615  2.5226
 4134TIP3   OH233960   5.664   5.962   1.883  0.6006  0.4114 -0.2763
 4134TIP3    H133961   5.633   5.910   1.809 -0.2205  0.9321 -0.3058
 4134TIP3    H233962   5.590   5.963   1.944  0.8939  0.8915  0.0751
 4135TIP3   OH233963   4.152   7.082   0.003 -0.1392  0.4895  0.0494
 4135TIP3    H133964   4.152   6.999  -0.046 -0.5951  0.8571 -0.5790
 4135TIP3    H233965   4.185   7.147  -0.059  2.5901  0.3600  1.2925
 4136TIP3   OH233966   3.675   6.059   8.168 -0.0611 -0.6876 -0.0993
 4136TIP3    H133967   3.629   6.063   8.084 -1.0729  0.0508  0.4688
 4136TIP3    H233968   3.675   6.150   8.199 -0.3851 -1.0760  1.0592
 4137TIP3   OH233969   3.803   6.792   8.295 -0.3424  0.1972 -0.1141
 4137TIP3    H133970   3.755   6.742   8.230 -2.4968  1.6119  0.3284
 4137TIP3    H233971   3.736   6.819   8.359  1.0699  1.9854  0.6684
 4138TIP3   OH233972   3.899   1.210   0.659 -0.3440  0.0977 -0.2219
 4138TIP3    H133973   3.840   1.283   0.639  0.3922  0.6958 -0.2310
 4138TIP3    H233974   3.986   1.246   0.649  0.0332 -0.9177 -0.6841
 4139TIP3   OH233975   4.191   6.765   1.740 -0.0885 -0.6156  0.8659
 4139TIP3    H133976   4.137   6.719   1.676 -1.6721 -1.2149  2.5988
 4139TIP3    H233977   4.200   6.704   1.813  2.0680 -0.1198  1.0581
 4140TIP3   OH233978   3.875   0.308   1.829  0.0025  0.2725  0.2020
 4140TIP3    H133979   3.907   0.316   1.740  1.6999  0.9599  0.8606
 4140TIP3    H233980   3.879   0.214   1.848  1.7549  0.3609  0.3095
 4141TIP3   OH233981   5.536   1.706   2.157  0.3301 -0.7504 -0.6979
 4141TIP3    H133982   5.481   1.750   2.092  0.1273 -0.2147 -0.1698
 4141TIP3    H233983   5.581   1.638   2.108  0.8413  0.2018 -1.5841
 4142TIP3   OH233984   2.822   0.232   7.480  0.1371 -0.2613  0.1108
 4142TIP3    H133985   2.909   0.261   7.508  0.1614  1.0490 -1.2785
 4142TIP3    H233986   2.768   0.240   7.559  0.8564  0.6385  0.5215
 4143TIP3   OH233987   4.163   1.150   7.427 -0.7069  0.1169 -0.7686
 4143TIP3    H133988   4.176   1.152   7.332  1.1752 -1.6570 -0.5843
 4143TIP3    H233989   4.080   1.104   7.438 -1.3253  1.0163 -1.5715
 4144TIP3   OH233990   4.493   1.174   1.650  0.0480  0.3677  0.5128
 4144TIP3    H133991   4.425   1.146   1.711 -0.0379 -0.0992  0.2066
 4144TIP3    H233992   4.471   1.264   1.629 -0.6518  0.1248  0.1766
 4145TIP3   OH233993   6.295   0.762   0.868 -0.4797  0.1068 -0.1609
 4145TIP3    H133994   6.334   0.830   0.813  0.3820 -1.7276 -1.8679
 4145TIP3    H233995   6.202   0.785   0.872 -0.4388  0.6383 -1.8444
 4146TIP3   OH233996   3.633   0.348   6.690  0.1811  0.9019 -0.4666
 4146TIP3    H133997   3.621   0.388   6.603 -3.2400 -2.7473 -1.8131
 4146TIP3    H233998   3.553   0.371   6.738  0.3636 -0.2785  0.4134
 4147TIP3   OH233999   5.018   0.945   2.153 -0.3690 -0.1431  0.1972
 4147TIP3    H134000   4.938   0.892   2.149 -0.8062  0.2748  2.3004
 4147TIP3    H234001   4.986   1.035   2.162  0.3686  0.4129 -2.5593
 4148TIP3   OH234002   5.951   6.866   1.612 -0.1299  0.6095  0.1156
 4148TIP3    H134003   6.003   6.789   1.637  0.5088  1.2396  0.7317
 4148TIP3    H234004   5.862   6.844   1.640  0.1446  0.3115  0.7796
 4149TIP3   OH234005   5.744   5.594   0.044 -0.6990 -0.1467 -0.0915
 4149TIP3    H134006   5.813   5.658   0.062 -0.7550 -0.0673 -0.1608
 4149TIP3    H234007   5.705   5.623  -0.038 -1.4874  0.3955  0.4520
 4150TIP3   OH234008   3.431   2.637   1.236 -0.3741 -0.0496 -0.2976
 4150TIP3    H134009   3.519   2.675   1.244 -0.6187  0.2526  1.0594
 4150TIP3    H234010   3.410   2.608   1.325 -0.8820 -1.8414 -0.9795
 4151TIP3   OH234011   4.890   0.908   1.618  0.2668  0.1376 -0.1019
 4151TIP3    H134012   4.967   0.853   1.633  0.1723  0.0190 -0.0534
 4151TIP3    H234013   4.883   0.962   1.697  0.5179  0.4120 -0.2654
 4152TIP3   OH234014   6.213   1.716   1.482 -0.3717 -0.1984 -0.4089
 4152TIP3    H134015   6.164   1.678   1.410 -1.8681  0.5970  0.1762
 4152TIP3    H234016   6.295   1.746   1.442 -0.7905 -0.6089 -1.5890
 4153TIP3   OH234017   4.847   1.583   1.028 -0.4455  0.4040  0.1294
 4153TIP3    H134018   4.875   1.646   1.094  0.8437  0.4814 -0.4748
 4153TIP3    H234019   4.760   1.612   1.002  1.2814  3.6528 -2.2627
 4154TIP3   OH234020   4.478   0.956   8.475  0.0112  0.0162 -0.3935
 4154TIP3    H134021   4.389   0.991   8.479  0.6387  1.4749  2.6834
 4154TIP3    H234022   4.523   1.014   8.413 -0.7341  0.3259 -0.6558
 4155TIP3   OH234023   5.872   1.028   1.687 -0.5397  0.2981 -0.5200
 4155TIP3    H134024   5.822   0.947   1.679  1.3088 -0.7239 -2.3125
 4155TIP3    H234025   5.856   1.074   1.604  2.5037 -0.6779 -1.6992
 4156TIP3   OH234026   5.130   1.409   1.764  0.5903 -0.8471  0.1566
 4156TIP3    H134027   5.042   1.395   1.801  0.2526 -1.1728 -0.7515
 4156TIP3    H234028   5.124   1.494   1.721  1.0035 -0.4371  0.9037
 4157TIP3   OH234029   4.455   0.140   2.001  0.2132 -0.1495  0.1153
 4157TIP3    H134030   4.383   0.184   2.046 -0.0487  0.6615 -1.0713
 4157TIP3    H234031   4.531   0.155   2.057 -0.4081 -0.4671  1.0541
 4158TIP3   OH234032   7.029   0.751   1.945 -0.2758 -0.9124  0.3077
 4158TIP3    H134033   7.002   0.719   1.859 -2.8838  0.6235  0.4866
 4158TIP3    H234034   7.079   0.831   1.927 -0.4236 -0.8452  0.2018
 4159TIP3   OH234035   3.392   6.678   0.941  0.2286 -0.6240 -0.3701
 4159TIP3    H134036   3.460   6.741   0.917  0.1599 -0.8548 -1.1725
 4159TIP3    H234037   3.315   6.732   0.960  0.6852 -0.3493  0.7175
 4160TIP3   OH234038   6.120   0.398   1.982  0.2538  0.5181 -0.8654
 4160TIP3    H134039   6.184   0.385   2.053  3.4299  2.0218 -3.2969
 4160TIP3    H234040   6.076   0.314   1.973  1.3611 -0.3526  1.4198
 4161TIP3   OH234041   5.180   1.861   2.291  0.0777  0.0839 -0.1782
 4161TIP3    H134042   5.256   1.843   2.348  0.3454  0.1391 -0.5144
 4161TIP3    H234043   5.200   1.815   2.210 -1.2046 -1.6027  0.4437
 4162TIP3   OH234044   3.782   1.552   8.217 -0.6483 -0.1894 -0.3151
 4162TIP3    H134045   3.734   1.633   8.232 -0.1825  0.0918 -0.3294
 4162TIP3    H234046   3.808   1.522   8.304 -1.7430 -0.8962 -0.2246
 4163TIP3   OH234047   4.888   1.186   2.102  0.0140  0.6120 -0.2284
 4163TIP3    H134048   4.897   1.263   2.046  0.5172  1.2412  0.6935
 4163TIP3    H234049   4.832   1.216   2.174 -0.8844 -0.2735 -0.5538
 4164TIP3   OH234050   4.960   1.926   2.029  0.0165  0.9879  0.2351
 4164TIP3    H134051   4.897   1.956   1.964 -0.3140 -0.5369 -0.1643
 4164TIP3    H234052   4.993   1.843   1.995  0.0312  0.2939  1.8728
 4165TIP3   OH234053   4.650   0.382   1.502  0.4204  0.2263 -0.1571
 4165TIP3    H134054   4.645   0.303   1.448 -2.0324 -1.5932  2.5679
 4165TIP3    H234055   4.559   0.398   1.530  1.2666  2.4881  1.4805
 4166TIP3   OH234056   3.578   0.391   1.113  0.1445  1.1611 -0.1128
 4166TIP3    H134057   3.604   0.372   1.203  1.9186  0.3956 -0.7653
 4166TIP3    H234058   3.542   0.480   1.117 -1.5323  0.4389  1.6695
 4167TIP3   OH234059   4.264   0.659   1.022  0.1225  0.4503 -0.0726
 4167TIP3    H134060   4.326   0.716   0.976 -0.5633 -0.0763 -1.6966
 4167TIP3    H234061   4.317   0.611   1.085  0.9410  1.8361  0.3041
 4168TIP3   OH234062   4.626   0.303   8.281  0.3810  0.0070  0.2934
 4168TIP3    H134063   4.721   0.287   8.277  0.2164 -0.6967 -1.0314
 4168TIP3    H234064   4.606   0.343   8.197 -0.6015 -0.3469  0.3618
 4169TIP3   OH234065   0.235   2.855   8.033 -0.1501  0.3505  0.3740
 4169TIP3    H134066   0.258   2.765   8.011  0.6339  1.1279 -2.1957
 4169TIP3    H234067   0.141   2.861   8.013 -0.6354 -0.4091  2.3910
 4170TIP3   OH234068   4.701   2.522   1.669  0.5002  0.7459  0.0542
 4170TIP3    H134069   4.749   2.548   1.748  0.0297  1.8662 -0.0251
 4170TIP3    H234070   4.628   2.468   1.702  2.7234 -2.4220  0.0610
 4171TIP3   OH234071   3.995   2.240   1.326  0.0637 -0.0595  0.2215
 4171TIP3    H134072   4.084   2.276   1.334  0.8209 -1.7965 -0.2755
 4171TIP3    H234073   3.955   2.256   1.412 -0.1593  3.3055 -0.4094
 4172TIP3   OH234074   4.465   1.165   2.305  0.3226  0.2425 -0.2495
 4172TIP3    H134075   4.462   1.079   2.348  2.4132 -0.4295 -1.3721
 4172TIP3    H234076   4.378   1.174   2.265  0.0205 -1.2873 -0.0050
 4173TIP3   OH234077   5.987   2.024   2.254  0.6978 -0.0372  0.2114
 4173TIP3    H134078   5.949   2.109   2.275 -0.8884 -0.5281 -0.6398
 4173TIP3    H234079   6.060   2.015   2.316 -0.1480  1.1962  1.4290
 4174TIP3   OH234080   5.072   0.754   1.741 -1.0105  0.2267  0.4962
 4174TIP3    H134081   5.163   0.778   1.759 -1.0149  0.6787 -0.1144
 4174TIP3    H234082   5.050   0.694   1.813 -0.6573  1.1580  1.3937
 4175TIP3   OH234083   4.765   6.947   1.448  0.2701  0.2794  0.3695
 4175TIP3    H134084   4.725   7.013   1.390 -0.9810 -1.0802 -0.3649
 4175TIP3    H234085   4.739   6.974   1.536 -1.1620  0.1837 -0.0039
 4176TIP3   OH234086   4.585   7.139   7.956 -0.1507  0.1666 -0.3198
 4176TIP3    H134087   4.551   7.227   7.973  0.0431  0.2993 -0.6176
 4176TIP3    H234088   4.674   7.140   7.990  0.1517  0.3552 -1.1066
 4177TIP3   OH234089   5.631   0.075   0.723 -0.5498  0.3922  0.5578
 4177TIP3    H134090   5.703   0.116   0.771 -0.5968 -1.0785  1.9536
 4177TIP3    H234091   5.562   0.141   0.721 -0.2685  0.7348  1.8961
 4178TIP3   OH234092   0.119   3.197   1.258  0.2538  0.1561  0.1927
 4178TIP3    H134093   0.039   3.179   1.209  0.6014  0.2674 -0.4366
 4178TIP3    H234094   0.093   3.200   1.349 -0.4402  0.0894 -0.0058
 4179TIP3   OH234095   3.393   0.755   6.970  0.1180  0.5513  0.1541
 4179TIP3    H134096   3.315   0.792   7.011 -0.9170 -0.2743 -1.0463
 4179TIP3    H234097   3.423   0.823   6.909  0.2578  0.8070  0.5054
 4180TIP3   OH234098   3.718   0.907   1.558 -0.2203 -0.5134 -0.4803
 4180TIP3    H134099   3.752   0.826   1.518  0.6285 -0.2721 -0.2642
 4180TIP3    H234100   3.782   0.929   1.626 -0.4713  0.3216 -0.5083
 4181TIP3   OH234101   5.500   7.178   1.337  0.9631 -0.2178 -0.9914
 4181TIP3    H134102   5.532   7.267   1.347 -0.5905  0.3964 -1.3215
 4181TIP3    H234103   5.540   7.129   1.408  2.3403  0.5952 -1.1951
 4182TIP3   OH234104   3.844   0.576   1.804 -0.0846  0.0313  0.2618
 4182TIP3    H134105   3.938   0.559   1.806 -0.3645 -1.6171  0.0431
 4182TIP3    H234106   3.804   0.492   1.825 -1.4972  0.9406  1.2949
 4183TIP3   OH234107   5.126   6.731   8.234 -0.1698  0.2265  0.4803
 4183TIP3    H134108   5.108   6.649   8.280 -0.2524  0.0648  0.1627
 4183TIP3    H234109   5.071   6.727   8.156  1.1094 -0.1959 -0.4079
 4184TIP3   OH234110   3.318   6.604   6.894 -0.5345 -0.0897 -0.7684
 4184TIP3    H134111   3.348   6.678   6.947 -0.6399 -0.2193 -0.5232
 4184TIP3    H234112   3.275   6.546   6.957 -1.1422  0.0094 -1.0889
 4185TIP3   OH234113   3.321   6.153   1.583  0.1876  0.4926  0.6624
 4185TIP3    H134114   3.380   6.225   1.605  1.5426 -0.4249  0.0600
 4185TIP3    H234115   3.377   6.086   1.546 -1.3311 -0.1324 -0.5631
 4186TIP3   OH234116   4.855   0.039   7.476 -0.4731 -0.0456  0.3430
 4186TIP3    H134117   4.792   0.100   7.436  1.0523  0.3237 -1.5326
 4186TIP3    H234118   4.810   0.007   7.555 -1.7336  2.6768  0.7807
 4187TIP3   OH234119   4.453   6.751   0.476 -0.2715 -0.1091 -0.0395
 4187TIP3    H134120   4.361   6.733   0.461  0.1616 -1.6075 -0.9898
 4187TIP3    H234121   4.493   6.665   0.488  0.8728  0.5690  1.1494
 4188TIP3   OH234122   3.940   6.470   2.207 -0.1240 -0.2062  0.3618
 4188TIP3    H134123   4.013   6.415   2.176  0.6394  0.7955  0.3763
 4188TIP3    H234124   3.926   6.441   2.297 -0.8541 -1.5540 -0.1642
 4189TIP3   OH234125   4.284   0.420   0.596 -0.1333 -0.2652  0.1035
 4189TIP3    H134126   4.334   0.436   0.676 -0.3920 -1.2551  0.4753
 4189TIP3    H234127   4.328   0.472   0.529 -0.5121  1.3908  1.0940
 4190TIP3   OH234128   3.191   6.446   1.679  0.0835 -0.0680 -0.0251
 4190TIP3    H134129   3.131   6.477   1.747 -0.2601  1.5784 -1.0570
 4190TIP3    H234130   3.154   6.481   1.597  0.0212 -2.6922 -1.1714
 4191TIP3   OH234131   6.955   5.341   0.363  0.0672 -0.1891 -0.4067
 4191TIP3    H134132   6.960   5.326   0.268 -0.5908 -1.4879 -0.2482
 4191TIP3    H234133   6.908   5.424   0.371  0.1190 -0.0707 -1.2093
 4192TIP3   OH234134   5.427   0.437   0.810  0.5662 -0.4889  0.0872
 4192TIP3    H134135   5.415   0.349   0.773  3.1449 -0.3788 -1.1189
 4192TIP3    H234136   5.497   0.426   0.875 -0.3065  0.3355  1.1655
 4193TIP3   OH234137   4.780   6.112   7.591  0.1359  0.1549  0.3583
 4193TIP3    H134138   4.770   6.018   7.576 -0.4330  0.4174 -0.9917
 4193TIP3    H234139   4.849   6.138   7.530 -3.3980  1.5676 -3.2670
 4194TIP3   OH234140   4.542   5.495   0.862  0.4656 -0.2948  0.1740
 4194TIP3    H134141   4.505   5.584   0.862 -0.3743 -0.6301  1.1664
 4194TIP3    H234142   4.552   5.473   0.770  1.2412  1.0616 -0.0760
 4195TIP3   OH234143   4.599   6.379   7.983  0.1592 -0.0620 -0.4034
 4195TIP3    H134144   4.530   6.420   7.931 -0.6598 -0.8596  0.0284
 4195TIP3    H234145   4.551   6.331   8.051  1.1851  0.4139  0.6650
 4196TIP3   OH234146   4.799   6.615   7.382 -0.3211 -0.3585  0.3122
 4196TIP3    H134147   4.797   6.541   7.321  1.8811 -0.5898  0.4839
 4196TIP3    H234148   4.818   6.575   7.467  0.1092  0.3148  0.5333
 4197TIP3   OH234149   5.237   5.999   8.209 -0.0162 -0.0458 -0.0401
 4197TIP3    H134150   5.271   5.941   8.277 -1.8571  0.9436  1.8060
 4197TIP3    H234151   5.217   5.942   8.136  0.5271 -1.3687  0.8213
 4198TIP3   OH234152   5.784   6.374   1.866  0.0518  0.6703  0.3778
 4198TIP3    H134153   5.819   6.293   1.903  2.3706  0.1304 -2.8116
 4198TIP3    H234154   5.707   6.347   1.817  0.3739  0.5199 -0.0437
 4199TIP3   OH234155   4.994   2.958   6.961  0.3705 -0.8069  0.1615
 4199TIP3    H134156   4.899   2.943   6.951  0.2419  0.4488 -0.4932
 4199TIP3    H234157   5.001   3.009   7.041  0.5636 -1.5370  0.6170
 4200TIP3   OH234158   5.038   0.472   1.572 -0.1797  0.4789 -0.2094
 4200TIP3    H134159   5.037   0.446   1.665  1.7734 -1.1900 -0.6112
 4200TIP3    H234160   5.115   0.527   1.564 -0.3720  0.6578 -0.8373
 4201TIP3   OH234161   4.088   3.158   1.042  0.0733  0.0092 -0.0650
 4201TIP3    H134162   4.120   3.080   0.996  1.8260 -0.5242  1.9403
 4201TIP3    H234163   4.000   3.134   1.071 -0.0782 -0.5711 -0.9840
 4202TIP3   OH234164   3.777   0.608   1.514  0.0182  0.2481  0.2985
 4202TIP3    H134165   3.808   0.541   1.574  0.5368 -0.1871 -0.4465
 4202TIP3    H234166   3.685   0.586   1.498  0.2529 -0.4412 -0.1417
 4203TIP3   OH234167   6.226   6.977   0.227 -0.2513 -0.3139  0.0010
 4203TIP3    H134168   6.312   6.953   0.261 -0.9169 -1.2628  1.0650
 4203TIP3    H234169   6.164   6.926   0.280 -1.6425  2.5859  1.2764
 4204TIP3   OH234170   5.621   6.991   1.494  0.1243  0.2319  0.7004
 4204TIP3    H134171   5.639   7.015   1.585 -0.6568 -0.7824  1.1387
 4204TIP3    H234172   5.573   6.909   1.500 -2.2894  1.5008 -0.5264
 4205TIP3   OH234173   5.024   6.464   7.385  0.0942 -0.3266  0.8500
 4205TIP3    H134174   5.082   6.539   7.377  1.5649 -1.3821  1.5615
 4205TIP3    H234175   5.002   6.441   7.294 -0.9512  1.3768  0.6461
 4206TIP3   OH234176   5.614   0.416   1.018 -0.5283 -0.0162  0.0939
 4206TIP3    H134177   5.621   0.509   1.036 -3.9196  0.7523 -2.1227
 4206TIP3    H234178   5.536   0.388   1.066  0.2511 -1.6427  0.4500
 4207TIP3   OH234179   2.596   6.570   7.767 -0.2350  0.2262  0.0342
 4207TIP3    H134180   2.629   6.504   7.829 -1.6331 -0.7295 -0.2091
 4207TIP3    H234181   2.504   6.580   7.791 -1.1929 -1.2404 -2.8201
 4208TIP3   OH234182   5.519   0.096   1.883 -0.6444 -0.2227 -0.8281
 4208TIP3    H134183   5.516   0.174   1.938  2.3714  0.7082 -1.9100
 4208TIP3    H234184   5.560   0.029   1.938 -1.7454 -0.6008 -0.4529
 4209TIP3   OH234185   5.248   6.798   0.925  0.4002 -0.0222  0.4680
 4209TIP3    H134186   5.303   6.871   0.953 -0.0650  1.2161 -1.6793
 4209TIP3    H234187   5.167   6.808   0.976  0.9238  0.0714  1.2861
 4210TIP3   OH234188   4.803   0.483   0.584  0.0073 -0.1510 -0.0061
 4210TIP3    H134189   4.866   0.544   0.623 -0.9653  0.4134  0.6941
 4210TIP3    H234190   4.769   0.531   0.508 -1.0173  0.3333  0.7469
 4211TIP3   OH234191   0.125   0.753   1.372 -0.4462  0.1160  0.1065
 4211TIP3    H134192   0.164   0.776   1.288 -1.4189  0.7499 -0.1763
 4211TIP3    H234193   0.063   0.683   1.351 -0.0987 -0.2832  0.4165
 4212TIP3   OH234194   3.243   0.071   1.399 -0.2404  0.2253  0.2509
 4212TIP3    H134195   3.168   0.128   1.380  0.2066  0.2724 -1.5269
 4212TIP3    H234196   3.209   0.005   1.459 -1.4273  0.8969  0.3317
 4213TIP3   OH234197   6.322   0.143   1.663 -0.1447 -0.0213 -0.6738
 4213TIP3    H134198   6.361   0.134   1.576  1.8464  0.3204  0.1514
 4213TIP3    H234199   6.274   0.062   1.677 -0.5018 -0.0735 -2.0849
 4214TIP3   OH234200   4.195   1.293   1.284  0.5169  0.3276 -0.7840
 4214TIP3    H134201   4.109   1.287   1.324  1.4084  0.8983  1.2687
 4214TIP3    H234202   4.244   1.218   1.320  0.9403  0.1019 -1.8013
 4215TIP3   OH234203   3.109   6.150   0.136  0.1482 -0.2216  0.0872
 4215TIP3    H134204   3.202   6.172   0.138 -0.2596  1.8894 -1.7143
 4215TIP3    H234205   3.077   6.177   0.222  1.1003 -0.4789  0.5338
 4216TIP3   OH234206   6.340   0.989   8.496  0.3827 -0.1856 -0.7621
 4216TIP3    H134207   6.348   0.896   8.473 -0.0726 -0.1028 -1.2676
 4216TIP3    H234208   6.324   0.989   8.591  2.1088 -0.5405 -0.4605
 4217TIP3   OH234209   5.632   0.731   0.695 -0.4149  0.0943  0.9338
 4217TIP3    H134210   5.666   0.760   0.611 -0.1438  0.3228  1.1219
 4217TIP3    H234211   5.538   0.722   0.681 -0.5008  1.0496  0.8668
 4218TIP3   OH234212   5.064   5.364   1.451 -0.6365 -0.0714 -0.0162
 4218TIP3    H134213   4.997   5.433   1.456 -1.5372 -0.9967  0.7813
 4218TIP3    H234214   5.039   5.313   1.374 -1.4044 -0.9927  0.8435
 4219TIP3   OH234215   4.539   6.478   0.525  0.1659  0.5535  0.4254
 4219TIP3    H134216   4.614   6.472   0.585  0.1140 -1.5607  0.3277
 4219TIP3    H234217   4.577   6.466   0.438 -0.4065 -1.7020  0.4634
 4220TIP3   OH234218   4.121   7.134   1.348 -0.6013  0.2657  0.0600
 4220TIP3    H134219   4.134   7.065   1.413  0.4826  0.0899 -0.3449
 4220TIP3    H234220   4.209   7.161   1.323 -1.0182  1.6144  0.0168
 4221TIP3   OH234221   3.747   2.022   1.657  0.7032 -0.0550 -0.5501
 4221TIP3    H134222   3.735   2.090   1.723 -2.2676 -0.2477 -0.8206
 4221TIP3    H234223   3.742   1.940   1.705  0.8888 -0.1608 -0.7073
 4222TIP3   OH234224   4.054   3.936   1.473  0.0307 -0.2545 -0.7602
 4222TIP3    H134225   4.142   3.899   1.474 -0.1949 -0.7843 -0.5458
 4222TIP3    H234226   4.061   4.016   1.525  0.2854 -0.5300 -0.3679
 4223TIP3   OH234227   4.530   0.955   1.221  0.2667  0.1772  0.2295
 4223TIP3    H134228   4.597   0.903   1.265  0.1327  0.0546  0.2869
 4223TIP3    H234229   4.580   1.015   1.165  0.3705 -1.1912 -1.1742
 4224TIP3   OH234230   4.811   7.129   0.954 -0.0129  0.1243 -0.3688
 4224TIP3    H134231   4.766   7.059   1.001 -0.6505  1.3992  0.9415
 4224TIP3    H234232   4.903   7.108   0.962 -0.1838 -0.3618  0.3481
 4225TIP3   OH234233   4.795   5.554   0.237  0.3361  0.1372  0.0432
 4225TIP3    H134234   4.818   5.530   0.327  2.2626  0.4298 -0.3476
 4225TIP3    H234235   4.842   5.637   0.222 -2.5087  1.7750 -0.1638
 4226TIP3   OH234236   5.819   1.861   2.082 -0.5930  0.3322 -0.5168
 4226TIP3    H134237   5.868   1.931   2.125 -0.4210 -0.1932  0.1623
 4226TIP3    H234238   5.819   1.790   2.146 -1.8343  0.1581 -0.7027
 4227TIP3   OH234239   3.763   0.342   7.950 -0.3866  0.0330 -0.5043
 4227TIP3    H134240   3.713   0.290   7.886 -1.0317 -1.4503  1.1382
 4227TIP3    H234241   3.700   0.408   7.981  0.1848  1.2983 -1.9977
 4228TIP3   OH234242   2.776   0.092   1.946  0.4377 -0.0414 -0.4496
 4228TIP3    H134243   2.789   0.168   2.001  1.7642  0.9512 -2.0883
 4228TIP3    H234244   2.845   0.031   1.972  0.6739  0.1701 -0.5788
 4229TIP3   OH234245   3.767   2.907   0.631 -0.1426  0.4075 -0.4487
 4229TIP3    H134246   3.734   2.919   0.543 -2.1984  0.1850  0.2669
 4229TIP3    H234247   3.699   2.858   0.676  1.6040 -0.9364  0.8086
 4230TIP3   OH234248   4.562   2.949   2.066 -0.4069 -0.0958  0.1115
 4230TIP3    H134249   4.650   2.971   2.036 -0.3982 -1.1498 -0.6500
 4230TIP3    H234250   4.511   2.937   1.985 -1.3748  0.9818  0.5397
 4231TIP3   OH234251   3.933   6.931   0.619 -0.3406 -0.2584  0.2471
 4231TIP3    H134252   4.019   6.974   0.617 -0.2962 -0.3733 -0.6427
 4231TIP3    H234253   3.940   6.862   0.554 -1.4310  0.3388 -0.5109
 4232TIP3   OH234254   3.153   0.732   7.958  0.3863  0.1838  0.2835
 4232TIP3    H134255   3.176   0.708   7.868  0.1446 -1.7206  0.7244
 4232TIP3    H234256   3.079   0.792   7.948  1.2872  1.1376 -0.8381
 4233TIP3   OH234257   4.329   5.416   1.983 -0.6213 -0.0548 -0.0688
 4233TIP3    H134258   4.396   5.401   2.050 -0.6671  1.0202  0.2287
 4233TIP3    H234259   4.350   5.353   1.915  1.8649  1.4817 -0.8183
 4234TIP3   OH234260   4.480   6.862   8.475  0.1614 -0.0862 -0.3735
 4234TIP3    H134261   4.552   6.844   8.535  0.5071 -0.8609 -0.9970
 4234TIP3    H234262   4.485   6.791   8.411 -1.9540 -0.8840  0.3063
 4235TIP3   OH234263   5.900   7.164   0.512  0.4937  0.1074  0.0508
 4235TIP3    H134264   5.805   7.169   0.517  0.5075  0.2092  0.2117
 4235TIP3    H234265   5.926   7.245   0.468  0.6105  0.8090  1.3600
 4236TIP3   OH234266   0.743   7.219   1.959 -0.2305  0.4690 -0.1328
 4236TIP3    H134267   0.692   7.159   1.905  2.2363 -2.0672  0.2084
 4236TIP3    H234268   0.734   7.185   2.048 -1.8042  2.8399  0.6514
 4237TIP3   OH234269   5.718   6.230   1.516 -0.0332 -0.5736  0.0434
 4237TIP3    H134270   5.651   6.176   1.475  1.1616 -1.1727 -1.1395
 4237TIP3    H234271   5.672   6.311   1.539 -1.1026 -0.8755 -0.9833
 4238TIP3   OH234272   2.595   0.929   1.285 -0.2846  0.0025  0.1123
 4238TIP3    H134273   2.624   0.898   1.371  1.0994  0.2652 -0.2504
 4238TIP3    H234274   2.506   0.895   1.277 -1.3556  2.0536  2.6836
 4239TIP3   OH234275   5.245   6.886   1.950 -0.3095  0.4199 -0.1378
 4239TIP3    H134276   5.180   6.858   2.015  1.2569 -3.1168  0.0113
 4239TIP3    H234277   5.301   6.948   1.996 -0.1218 -0.9151  1.4482
 4240TIP3   OH234278   4.278   7.008   0.738  0.2066  0.2536 -0.1836
 4240TIP3    H134279   4.362   6.963   0.727  0.1880  0.1054  0.2853
 4240TIP3    H234280   4.296   7.076   0.803 -0.2621 -0.3628  0.5954
 4241TIP3   OH234281   4.690   6.580   1.963  1.0562  0.1714  0.3102
 4241TIP3    H134282   4.722   6.511   2.021 -4.8967 -0.1309  3.6110
 4241TIP3    H234283   4.700   6.660   2.015  2.0450  0.9333 -1.0318
 4242TIP3   OH234284   3.513   1.939   1.509  0.7914 -0.0870 -0.0670
 4242TIP3    H134285   3.602   1.955   1.541  1.5204 -0.1172 -2.0403
 4242TIP3    H234286   3.524   1.879   1.436 -0.9384 -0.7118  0.1633
 4243TIP3   OH234287   2.162   1.991   1.089 -0.1482 -0.0421 -0.2670
 4243TIP3    H134288   2.084   1.945   1.057  0.7536 -0.4285 -1.9622
 4243TIP3    H234289   2.220   1.996   1.013  1.0488  1.1859  0.7005
 4244TIP3   OH234290   2.499   5.933   7.849  0.4390  0.3732  0.0591
 4244TIP3    H134291   2.583   5.904   7.883  1.5574  1.3724 -1.7839
 4244TIP3    H234292   2.450   5.960   7.927  1.9807  0.1759  1.1150
 4245TIP3   OH234293   7.219   0.950   1.907 -0.0660  0.8483  0.2605
 4245TIP3    H134294   7.304   0.986   1.881  0.0351  1.0294  0.8569
 4245TIP3    H234295   7.240   0.886   1.975 -0.2271 -0.4188 -0.8420
 4246TIP3   OH234296   4.471   4.816   7.551  0.0840  0.3245 -0.1557
 4246TIP3    H134297   4.494   4.889   7.608  0.8992 -0.5913  0.7095
 4246TIP3    H234298   4.378   4.802   7.566  0.4041 -0.2474  1.3626
 4247TIP3   OH234299   3.542   1.734   7.387  0.6309  0.5214 -0.2286
 4247TIP3    H134300   3.507   1.711   7.301  0.8830 -1.1285  0.0932
 4247TIP3    H234301   3.486   1.687   7.449  1.0376  0.9493  0.4626
 4248TIP3   OH234302   4.266   1.710   0.594  0.5777 -0.2347 -0.2959
 4248TIP3    H134303   4.310   1.699   0.679  1.0791 -1.0523 -0.6533
 4248TIP3    H234304   4.194   1.769   0.612  2.7504  2.4213 -0.0073
 4249TIP3   OH234305   2.698   2.120   1.044 -0.6573 -0.2295  0.5603
 4249TIP3    H134306   2.755   2.181   1.090 -0.8817 -0.2082  0.8089
 4249TIP3    H234307   2.638   2.176   0.995 -0.1390 -0.2498 -0.1115
 4250TIP3   OH234308   0.018   0.272   1.601 -0.2763 -0.3654  0.5746
 4250TIP3    H134309  -0.041   0.246   1.530 -0.4261 -2.7750  1.5109
 4250TIP3    H234310   0.106   0.256   1.566 -0.3221 -0.5821  0.5538
 4251TIP3   OH234311   4.594   1.142   1.031  0.8438  0.9542 -0.4735
 4251TIP3    H134312   4.522   1.110   0.976 -0.0299  1.5527  0.2930
 4251TIP3    H234313   4.661   1.171   0.970  0.8859 -0.6038 -1.2001
 4252TIP3   OH234314   4.111   0.445   1.894 -0.1231 -0.2289 -0.2316
 4252TIP3    H134315   4.035   0.433   1.950 -0.9562 -0.6299 -1.4368
 4252TIP3    H234316   4.125   0.360   1.853 -0.1769  0.3394 -1.4568
 4253TIP3   OH234317   5.955   0.052   7.481 -0.0619 -0.0740 -0.2042
 4253TIP3    H134318   6.009   0.019   7.410 -1.6573 -2.0565 -0.5342
 4253TIP3    H234319   5.922   0.136   7.450  0.9277  0.0500 -0.9347
 4254TIP3   OH234320   4.638   7.113   1.285  0.1041 -0.0734 -0.3477
 4254TIP3    H134321   4.547   7.105   1.311  0.1602 -0.3770 -0.2439
 4254TIP3    H234322   4.640   7.082   1.194  0.2400 -0.8263 -0.0943
 4255TIP3   OH234323   5.017   6.171   8.332 -0.1600 -0.1459  0.0127
 4255TIP3    H134324   4.931   6.132   8.317  0.7412 -1.6955 -1.2857
 4255TIP3    H234325   5.079   6.106   8.299  1.5891  0.1218  2.6199
 4256TIP3   OH234326   5.146   6.481   7.660  0.2045  0.0524  0.3614
 4256TIP3    H134327   5.113   6.469   7.571 -0.1281  0.2899  0.4532
 4256TIP3    H234328   5.136   6.395   7.701  2.3497 -0.6297 -0.4868
 4257TIP3   OH234329   4.458   1.122   7.691 -0.4098  0.0653  0.0872
 4257TIP3    H134330   4.552   1.139   7.678 -0.3311 -1.4645 -1.6351
 4257TIP3    H234331   4.415   1.188   7.637 -0.2865 -0.1330 -0.2571
 4258TIP3   OH234332   3.485   0.925   7.710 -0.6445  0.4394  0.1405
 4258TIP3    H134333   3.408   0.936   7.654  0.1170 -0.5882 -1.1467
 4258TIP3    H234334   3.521   0.839   7.685  0.2471  0.3806  1.5547
 4259TIP3   OH234335   4.396   0.568   0.403 -0.3271  0.4580 -0.0191
 4259TIP3    H134336   4.406   0.663   0.403 -0.9946  0.5300 -0.6577
 4259TIP3    H234337   4.345   0.549   0.325 -1.5899 -0.2766  0.9775
 4260TIP3   OH234338   5.798   1.432   2.208  0.0559 -0.2708  0.0308
 4260TIP3    H134339   5.803   1.516   2.254 -0.9495  0.1628 -0.6339
 4260TIP3    H234340   5.751   1.452   2.127 -0.6563 -1.5776  0.1095
 4261TIP3   OH234341   4.833   0.223   6.797  0.5229  1.1310 -0.1429
 4261TIP3    H134342   4.892   0.149   6.788 -1.4729 -0.4893 -0.1774
 4261TIP3    H234343   4.852   0.278   6.720  1.7468  0.4868 -0.3132
 4262TIP3   OH234344   5.336   6.525   8.486  0.6749 -0.2436 -0.8496
 4262TIP3    H134345   5.357   6.462   8.417 -1.1957  0.7950 -2.4193
 4262TIP3    H234346   5.399   6.596   8.473  1.3021 -0.7365 -0.5278
 4263TIP3   OH234347   4.847   6.188   0.641 -0.1806 -0.0699 -0.0718
 4263TIP3    H134348   4.848   6.138   0.722 -1.2439  0.5862  0.3536
 4263TIP3    H234349   4.900   6.137   0.580 -2.1484 -2.2491  0.0059
 4264TIP3   OH234350   5.393   0.196   0.702 -0.1119 -0.7336  0.2396
 4264TIP3    H134351   5.348   0.129   0.754 -3.0127  0.3834 -0.7136
 4264TIP3    H234352   5.368   0.176   0.611  0.1525  0.7749 -0.1777
 4265TIP3   OH234353   5.053   2.120   2.201  0.2187  0.4694 -0.2989
 4265TIP3    H134354   5.110   2.061   2.251  2.3275  1.7398 -1.1135
 4265TIP3    H234355   5.017   2.065   2.132 -0.3588 -0.5940  0.8286
 4266TIP3   OH234356   4.985   1.021   1.875 -0.2044 -0.2036  0.2739
 4266TIP3    H134357   4.993   0.928   1.898 -1.4247 -0.8392 -1.8020
 4266TIP3    H234358   5.014   1.067   1.954  0.0055 -2.3343  1.4853
 4267TIP3   OH234359   4.211   1.878   1.822 -0.3109 -0.1281 -0.4655
 4267TIP3    H134360   4.254   1.963   1.816 -0.5678  0.0333 -0.0412
 4267TIP3    H234361   4.127   1.897   1.865  0.1207 -0.7714  0.6647
 4268TIP3   OH234362   3.030   6.701   1.716  0.5462  0.6246 -0.2507
 4268TIP3    H134363   3.032   6.647   1.637  2.2980 -0.6326  0.6304
 4268TIP3    H234364   3.115   6.744   1.719  1.2498 -0.8523  1.9724
 4269TIP3   OH234365   6.555   2.266   0.915 -0.1774 -0.0517  0.2327
 4269TIP3    H134366   6.636   2.318   0.912 -0.4294  0.4372  1.3847
 4269TIP3    H234367   6.553   2.219   0.832  0.7681  0.7287 -0.2398
 4270TIP3   OH234368   3.605   6.132   1.592 -0.1130  0.2803 -0.2241
 4270TIP3    H134369   3.628   6.206   1.536 -2.6744  1.3043  0.0246
 4270TIP3    H234370   3.646   6.056   1.551  0.0365  1.3855 -2.1327
 4271TIP3   OH234371   5.130   0.349   1.855  0.5454  0.2924  0.6012
 4271TIP3    H134372   5.075   0.271   1.866  0.4085  0.5162  1.6278
 4271TIP3    H234373   5.133   0.388   1.943 -0.2982  2.0452 -0.1056
 4272TIP3   OH234374   4.384   5.091   0.895  0.3763  0.1630 -0.0170
 4272TIP3    H134375   4.471   5.111   0.928 -0.4446  1.1822  1.5223
 4272TIP3    H234376   4.396   5.084   0.800  1.9408  1.2889  0.0807
 4273TIP3   OH234377   3.170   0.347   1.735 -0.0045  0.2111  1.0818
 4273TIP3    H134378   3.156   0.292   1.812  0.2375 -0.7270  0.4707
 4273TIP3    H234379   3.088   0.342   1.687  0.8751 -1.7581 -0.2937
 4274TIP3   OH234380   4.998   1.658   2.016 -0.3578  0.4773  0.7653
 4274TIP3    H134381   5.044   1.601   2.078  0.8991 -0.7911 -1.2527
 4274TIP3    H234382   4.908   1.661   2.048 -0.6082 -3.1704  0.6055
 4275TIP3   OH234383   6.249   0.462   0.866 -0.0837  1.0150 -0.2403
 4275TIP3    H134384   6.276   0.550   0.838 -1.3724  0.8998 -1.9022
 4275TIP3    H234385   6.257   0.409   0.787 -0.3951 -0.1282  0.4929
 4276TIP3   OH234386   0.043   0.391   0.753 -0.4646 -0.1950 -0.2946
 4276TIP3    H134387  -0.011   0.352   0.684 -1.7794 -0.2106  0.7355
 4276TIP3    H234388   0.099   0.319   0.783  0.0819 -0.2017 -1.2929
 4277TIP3   OH234389   2.806   1.880   8.188 -0.2494  0.0106 -0.1693
 4277TIP3    H134390   2.752   1.957   8.207 -1.5936 -0.9419 -0.0157
 4277TIP3    H234391   2.829   1.845   8.273 -1.0387 -0.6921 -0.2340
 4278TIP3   OH234392   4.477   2.239   1.290  0.9696 -0.1652  0.0483
 4278TIP3    H134393   4.457   2.147   1.271  0.3196 -0.1841  0.7763
 4278TIP3    H234394   4.568   2.238   1.321  1.2856 -0.4265 -0.8694
 4279TIP3   OH234395   6.131   2.190   1.750 -0.5564  0.0348  0.3351
 4279TIP3    H134396   6.148   2.197   1.656 -1.0378  0.2570  0.2630
 4279TIP3    H234397   6.092   2.274   1.774 -1.7676 -0.5473  0.4458
 4280TIP3   OH234398   5.648   1.776   1.457 -0.1956  0.1860  0.4184
 4280TIP3    H134399   5.707   1.705   1.481 -0.2939 -0.6449 -1.7045
 4280TIP3    H234400   5.602   1.798   1.538  0.1624 -1.8556  1.1955
 4281TIP3   OH234401   6.345   1.240   7.711  0.0179 -0.0502  0.1953
 4281TIP3    H134402   6.292   1.274   7.639 -0.1612  0.8956  0.7688
 4281TIP3    H234403   6.382   1.158   7.677  0.2990  0.6099 -1.1261
 4282TIP3   OH234404   2.732   1.367   6.571 -0.0864 -0.3412  0.3791
 4282TIP3    H134405   2.679   1.360   6.491 -2.0056  0.8753  1.5055
 4282TIP3    H234406   2.671   1.399   6.637  1.4147 -1.6065  2.4212
 4283TIP3   OH234407   6.360   1.611   7.555 -0.7572  0.6389  0.1921
 4283TIP3    H134408   6.316   1.537   7.515 -1.9876  0.4346  1.8686
 4283TIP3    H234409   6.388   1.580   7.641  0.0115  1.6724  0.3365
 4284TIP3   OH234410   7.061   7.119   1.702  0.7425 -0.2556  0.4123
 4284TIP3    H134411   7.144   7.074   1.684  1.0372 -0.0218  1.1312
 4284TIP3    H234412   7.081   7.177   1.776 -0.0285 -0.0933  0.5024
 4285TIP3   OH234413   3.945   6.306   0.270 -0.1880  0.2534 -0.0537
 4285TIP3    H134414   3.967   6.226   0.223 -0.1034  1.2153 -1.6752
 4285TIP3    H234415   4.029   6.349   0.286 -0.1389 -0.4550  1.7181
 4286TIP3   OH234416   2.341   6.325   0.056 -0.1478 -0.0735  0.2450
 4286TIP3    H134417   2.416   6.350   0.002 -3.1727  2.1406 -3.1322
 4286TIP3    H234418   2.326   6.233   0.036  0.7767 -0.1290 -0.2020
 4287TIP3   OH234419   4.876   7.172   0.338 -0.7749  0.3921  0.1027
 4287TIP3    H134420   4.925   7.091   0.331  0.7685  1.3973 -1.0510
 4287TIP3    H234421   4.786   7.148   0.313 -0.4753 -1.0722  0.4129
 4288TIP3   OH234422   4.052   1.147   8.131 -0.5816 -0.1938  0.4151
 4288TIP3    H134423   4.054   1.241   8.148  2.1927 -0.1240 -0.0329
 4288TIP3    H234424   3.978   1.134   8.072 -0.5578  1.8124 -0.0607
 4289TIP3   OH234425   6.891   1.354   1.224  0.7819 -0.0371 -0.0653
 4289TIP3    H134426   6.913   1.288   1.290  1.1391  0.3765  0.2379
 4289TIP3    H234427   6.803   1.331   1.196  0.9289 -0.6786 -0.0090
 4290TIP3   OH234428   5.975   0.954   0.086 -0.7207  0.7280 -0.1740
 4290TIP3    H134429   6.039   1.023   0.063 -0.6934  0.6508 -0.3314
 4290TIP3    H234430   5.959   0.908   0.003  0.2556 -0.2922  0.1942
 4291TIP3   OH234431   6.864   5.639   8.233 -1.1018 -0.0683  0.2419
 4291TIP3    H134432   6.783   5.663   8.279 -2.0126 -1.4891 -0.6011
 4291TIP3    H234433   6.872   5.705   8.163 -1.9951 -0.4434 -0.2131
 4292TIP3   OH234434   6.106   1.080   1.431  0.3038  0.8081  0.0570
 4292TIP3    H134435   6.016   1.109   1.447  0.4193  0.6380  1.0893
 4292TIP3    H234436   6.141   1.144   1.369 -0.6349  0.6762 -0.6189
 4293TIP3   OH234437   0.821   0.232   7.626  0.0079 -0.0704  0.1130
 4293TIP3    H134438   0.897   0.175   7.642 -0.4585 -0.5677  0.5646
 4293TIP3    H234439   0.797   0.264   7.713 -0.1238  0.3213 -0.0667
 4294TIP3   OH234440   5.543   7.122   0.207  0.0531 -0.3383  0.2772
 4294TIP3    H134441   5.620   7.065   0.206  0.4992  0.2693 -0.2109
 4294TIP3    H234442   5.556   7.179   0.283  1.4121  1.5477 -1.3152
 4295TIP3   OH234443   5.763   1.578   1.609  0.0077  0.3830  0.1942
 4295TIP3    H134444   5.686   1.528   1.636  0.9646 -1.5836 -0.5964
 4295TIP3    H234445   5.792   1.622   1.689 -0.8434 -0.3568  0.9298
 4296TIP3   OH234446   4.997   6.517   0.860 -0.5494  0.1415  0.2348
 4296TIP3    H134447   4.978   6.447   0.922  1.7191 -0.6186  0.0959
 4296TIP3    H234448   5.021   6.592   0.915 -0.8016  0.1561  0.3256
 4297TIP3   OH234449   6.514   5.623   8.043 -0.2976 -0.5021 -0.3554
 4297TIP3    H134450   6.552   5.544   8.004 -0.6452 -1.4768  1.2491
 4297TIP3    H234451   6.488   5.676   7.968  0.3001 -1.7365 -1.4586
 4298TIP3   OH234452   4.438   5.582   0.299  0.1503 -0.1772  0.2348
 4298TIP3    H134453   4.389   5.645   0.246  0.2395 -0.9054 -0.7151
 4298TIP3    H234454   4.472   5.519   0.236  2.9823  0.7561  0.7931
 4299TIP3   OH234455   3.519   6.340   0.578 -0.1988 -0.4832 -0.1159
 4299TIP3    H134456   3.586   6.291   0.530 -0.1794 -0.8136  0.2431
 4299TIP3    H234457   3.495   6.412   0.520 -0.8952 -1.4409 -1.0249
 4300TIP3   OH234458   7.247   6.444   1.804  0.3521 -0.2957 -0.6242
 4300TIP3    H134459   7.281   6.485   1.724  0.1384  0.0043 -0.5583
 4300TIP3    H234460   7.153   6.438   1.790  0.3900 -0.8307 -0.6640
 4301TIP3   OH234461   7.133   6.394   1.406 -0.1594 -0.2648 -0.4483
 4301TIP3    H134462   7.198   6.339   1.450 -0.4052  0.4553  0.8622
 4301TIP3    H234463   7.060   6.335   1.388  0.3427 -0.7904 -0.7720
 4302TIP3   OH234464   4.656   6.919   1.063 -0.2641 -0.3797  0.4249
 4302TIP3    H134465   4.628   6.860   0.993 -0.8144 -0.6627  0.8810
 4302TIP3    H234466   4.608   6.889   1.140  1.4925 -1.0221  1.2818
 4303TIP3   OH234467   5.319   6.779   1.200  0.0506 -0.5593 -0.5800
 4303TIP3    H134468   5.238   6.731   1.213  0.2887 -0.3273  1.8437
 4303TIP3    H234469   5.309   6.859   1.252  0.8178  0.6733 -2.2763
 4304TIP3   OH234470   3.767   0.124   1.216  0.6698  0.8771 -0.0483
 4304TIP3    H134471   3.844   0.179   1.229  0.5525  1.1215 -0.4058
 4304TIP3    H234472   3.802   0.035   1.210  0.8936  0.9547  0.0976
 4305TIP3   OH234473   2.638   0.750   1.493 -0.1796  0.5484  0.6550
 4305TIP3    H134474   2.559   0.795   1.524  0.0677  1.4858 -0.0649
 4305TIP3    H234475   2.686   0.728   1.573 -1.0542  0.1772  1.0861
 4306TIP3   OH234476   4.328   2.685   1.124 -0.5986  1.0992 -0.4474
 4306TIP3    H134477   4.342   2.675   1.218  0.2612  1.7578 -0.4985
 4306TIP3    H234478   4.360   2.604   1.085  0.3724  1.4092 -0.2970
 4307TIP3   OH234479   3.889   3.212   0.552 -0.2745 -0.2972  0.0795
 4307TIP3    H134480   3.843   3.216   0.635 -1.2334  2.2276 -0.5180
 4307TIP3    H234481   3.956   3.280   0.558 -0.5311  0.1013 -1.2876
 4308TIP3   OH234482   5.415   6.787   2.237 -0.1347 -0.6114 -0.2171
 4308TIP3    H134483   5.325   6.754   2.246  0.0195 -0.6052  1.7192
 4308TIP3    H234484   5.405   6.881   2.224 -0.4332 -0.7113 -0.6981
 4309TIP3   OH234485   4.732   1.269   2.308 -0.4285 -0.0989 -0.4102
 4309TIP3    H134486   4.707   1.358   2.285 -2.6417 -0.0651  1.8958
 4309TIP3    H234487   4.649   1.222   2.319  0.6197 -1.6803  1.2231
 4310TIP3   OH234488   5.156   2.571   1.705 -0.2358 -0.3717  0.4677
 4310TIP3    H134489   5.204   2.529   1.634 -0.6767 -1.5658  0.8451
 4310TIP3    H234490   5.118   2.650   1.666 -0.4568 -1.0016 -0.6247
 4311TIP3   OH234491   4.115   0.661   0.612  0.7839 -0.6142  0.2690
 4311TIP3    H134492   4.179   0.590   0.611  0.6450 -0.7560  1.0066
 4311TIP3    H234493   4.161   0.735   0.652  0.0298 -1.1782  2.2521
 4312TIP3   OH234494   5.072   7.210   1.273  0.6109  0.1047  0.4860
 4312TIP3    H134495   5.143   7.255   1.227  2.0052  0.2122  2.6604
 4312TIP3    H234496   5.006   7.278   1.287 -0.2085 -0.1187 -2.0151
 4313TIP3   OH234497   5.356   1.375   1.473  0.1036 -0.2669  0.7219
 4313TIP3    H134498   5.278   1.322   1.457  0.3055  0.1331 -1.9038
 4313TIP3    H234499   5.322   1.464   1.482  0.1403 -0.2824  1.0273
 4314TIP3   OH234500   4.952   6.950   1.274  0.8228  0.3971 -0.3432
 4314TIP3    H134501   4.884   6.944   1.341  0.9585 -0.3804 -0.2679
 4314TIP3    H234502   4.961   7.043   1.257  0.1997  0.5442  0.1225
 4315TIP3   OH234503   5.410   1.078   1.298  0.0590 -0.0559 -0.6053
 4315TIP3    H134504   5.451   1.159   1.269  0.5303  0.7586  2.1461
 4315TIP3    H234505   5.323   1.105   1.330 -1.5733 -1.3405 -3.7507
 4316TIP3   OH234506   3.400   6.511   0.398 -0.3707  0.0127 -0.0559
 4316TIP3    H134507   3.329   6.484   0.339 -2.2136  0.6055  1.8265
 4316TIP3    H234508   3.404   6.607   0.388 -0.7395  0.1238  0.8141
 4317TIP3   OH234509   4.454   1.066   1.996  0.1591 -0.1237 -0.2749
 4317TIP3    H134510   4.462   1.016   2.077  0.0914 -2.0748 -1.4523
 4317TIP3    H234511   4.544   1.079   1.967  0.1210 -0.7003 -0.6524
 4318TIP3   OH234512   5.360   5.803   0.515 -0.3387 -0.3680 -0.6064
 4318TIP3    H134513   5.370   5.788   0.421  0.6973 -0.7796 -0.4290
 4318TIP3    H234514   5.266   5.788   0.531 -0.1782 -2.2725 -1.2346
 4319TIP3   OH234515   4.990   1.026   0.936  0.1857  0.0403 -0.6456
 4319TIP3    H134516   4.989   1.115   0.901  0.1937  0.2513 -0.1040
 4319TIP3    H234517   5.030   0.973   0.866 -1.1830  0.2062 -1.5690
 4320TIP3   OH234518   2.921   5.485   1.670  0.7185 -0.0233  0.0812
 4320TIP3    H134519   2.843   5.481   1.726 -0.6683 -0.1967 -1.8408
 4320TIP3    H234520   2.915   5.570   1.627  0.8180 -0.6316 -1.1591
 4321TIP3   OH234521   4.714   0.134   1.770 -0.0065  0.4637 -0.6570
 4321TIP3    H134522   4.641   0.122   1.710  2.0835  1.2962 -3.4321
 4321TIP3    H234523   4.762   0.051   1.767  0.0077  0.4396  0.0219
 4322TIP3   OH234524   3.129   1.205   0.491 -0.2971 -0.2086 -0.0567
 4322TIP3    H134525   3.036   1.209   0.471 -0.2994 -0.8893 -0.1862
 4322TIP3    H234526   3.146   1.112   0.507  0.3861 -0.1064 -0.1840
 4323TIP3   OH234527   4.709   5.386   0.636 -0.2921  0.0210  0.0965
 4323TIP3    H134528   4.729   5.294   0.620  1.4062  0.1202  1.4555
 4323TIP3    H234529   4.764   5.434   0.574  0.2773  0.1559  0.6933
 4324TIP3   OH234530   7.090   3.445   1.274  0.1546  0.1084 -0.2707
 4324TIP3    H134531   7.025   3.497   1.322  0.2099  1.6225 -1.8199
 4324TIP3    H234532   7.173   3.488   1.291  0.2415  0.3674 -1.3056
 4325TIP3   OH234533   4.944   0.943   7.807 -0.7565 -0.1087 -0.1273
 4325TIP3    H134534   4.932   0.850   7.827  0.6193 -0.7630 -2.1736
 4325TIP3    H234535   5.003   0.975   7.875  0.2610 -1.2031 -0.4719
 4326TIP3   OH234536   4.225   6.174   8.079  0.3444 -0.3868 -0.5726
 4326TIP3    H134537   4.177   6.224   8.013  0.4626 -0.6466 -0.8593
 4326TIP3    H234538   4.158   6.146   8.141  0.0438 -1.1530 -1.2266
 4327TIP3   OH234539   4.512   0.416   7.292  0.5471 -0.0634 -0.8904
 4327TIP3    H134540   4.444   0.484   7.290  1.2429  0.6852  0.2279
 4327TIP3    H234541   4.489   0.357   7.220 -2.3270 -0.8578  0.6276
 4328TIP3   OH234542   6.450   6.240   0.274  0.0424 -0.2574 -0.5956
 4328TIP3    H134543   6.391   6.219   0.346  0.9888  1.2618  0.6493
 4328TIP3    H234544   6.409   6.313   0.229  1.1479  1.0900  0.5365
 4329TIP3   OH234545   3.330   1.210   1.421 -0.1231 -0.8590  0.2369
 4329TIP3    H134546   3.385   1.172   1.489  0.4844  2.1540  1.5056
 4329TIP3    H234547   3.369   1.180   1.339  2.2813 -0.3029  1.1560
 4330TIP3   OH234548   5.547   0.634   2.021  0.2140  0.4148  0.0351
 4330TIP3    H134549   5.612   0.703   2.040  0.7160 -0.3921  1.3436
 4330TIP3    H234550   5.520   0.651   1.931 -0.5605  3.0678  0.7182
 4331TIP3   OH234551   4.209   0.488   0.130  0.1705  0.0571 -0.2720
 4331TIP3    H134552   4.148   0.559   0.152 -1.7617 -0.6222 -3.1660
 4331TIP3    H234553   4.272   0.528   0.069 -0.2390 -0.4147 -1.0124
 4332TIP3   OH234554   4.382   0.720   8.204 -0.8106  0.4471 -0.1392
 4332TIP3    H134555   4.367   0.807   8.167 -0.0966  0.0336 -1.4104
 4332TIP3    H234556   4.375   0.733   8.299  0.1849  2.0581 -0.2741
 4333TIP3   OH234557   6.527   6.244   1.324  0.2211 -0.2663 -0.1958
 4333TIP3    H134558   6.443   6.204   1.345 -0.0390  0.7860  0.8232
 4333TIP3    H234559   6.588   6.170   1.319 -0.0306 -0.7383  2.7546
 4334TIP3   OH234560   4.670   0.189   2.153 -0.3944 -0.0156 -0.8499
 4334TIP3    H134561   4.613   0.197   2.229 -2.4246 -2.2019 -2.0716
 4334TIP3    H234562   4.666   0.275   2.111  0.8308  1.2528  1.4941
 4335TIP3   OH234563   1.901   4.975   7.537 -0.1372  0.0353 -0.4619
 4335TIP3    H134564   1.937   4.999   7.452 -1.0368  1.2634 -0.5003
 4335TIP3    H234565   1.816   4.935   7.517 -0.7432  1.1297 -0.0903
 4336TIP3   OH234566   6.745   1.183   8.193 -0.7467  0.0760  0.3142
 4336TIP3    H134567   6.687   1.173   8.268 -0.1689 -0.9165  0.6394
 4336TIP3    H234568   6.688   1.206   8.120 -1.3703  0.5349  0.9448
 4337TIP3   OH234569   0.243   1.309   8.240  0.4462 -0.2308  0.2354
 4337TIP3    H134570   0.222   1.226   8.283 -0.0264  0.0330  0.5203
 4337TIP3    H234571   0.337   1.318   8.250  0.5087 -0.7718  0.1365
 4338TIP3   OH234572   6.662   1.856   1.993 -0.2065  0.3615 -0.1717
 4338TIP3    H134573   6.731   1.919   2.016 -0.2161 -0.1053  1.1521
 4338TIP3    H234574   6.689   1.775   2.035 -1.5963  0.1927  0.3949
 4339TIP3   OH234575   0.067   1.970   7.974  0.1834  0.0847  0.3607
 4339TIP3    H134576   0.083   2.021   7.894 -2.2990  0.6009  0.1508
 4339TIP3    H234577   0.054   1.881   7.943 -0.6425  0.2603  0.1944
 4340TIP3   OH234578   5.504   6.983   0.775  0.3665  0.0354 -0.6725
 4340TIP3    H134579   5.500   6.900   0.727  2.8324  0.3131 -1.4564
 4340TIP3    H234580   5.507   6.958   0.867 -0.6437 -0.6768 -0.8361
 4341TIP3   OH234581   4.518   6.921   8.144  0.2813  0.3349  0.8854
 4341TIP3    H134582   4.440   6.940   8.197 -1.3130 -0.3535 -1.1904
 4341TIP3    H234583   4.569   7.003   8.148 -0.6205  0.8597  2.0855
 4342TIP3   OH234584   0.446   3.149   2.096  0.4091  0.2383 -0.1669
 4342TIP3    H134585   0.479   3.226   2.142  0.3312 -0.2791  0.7752
 4342TIP3    H234586   0.495   3.075   2.133 -0.3933 -0.3078 -0.1660
 4343TIP3   OH234587   5.875   0.610   0.388 -0.5167  0.2478  0.5045
 4343TIP3    H134588   5.789   0.625   0.427 -0.8649  0.2923 -0.2720
 4343TIP3    H234589   5.859   0.607   0.294  0.3689  0.4980  0.3362
 4344TIP3   OH234590   0.582   6.792   1.697  0.7337  0.5947 -0.6286
 4344TIP3    H134591   0.637   6.715   1.709 -1.3210 -0.7426  0.4013
 4344TIP3    H234592   0.548   6.784   1.608 -0.4510 -0.3439 -0.0984
 4345TIP3   OH234593   1.613   3.115   7.627 -0.1990  0.4322  1.0412
 4345TIP3    H134594   1.660   3.190   7.590 -3.1379  0.8455 -2.0038
 4345TIP3    H234595   1.658   3.038   7.591  0.3588  0.7532  1.0439
 4346TIP3   OH234596   1.906   1.741   1.191  0.3649 -0.1268  0.2499
 4346TIP3    H134597   1.921   1.791   1.111  1.0853  0.0691  0.5042
 4346TIP3    H234598   1.832   1.785   1.233  0.5104  0.2686  0.0942
 4347TIP3   OH234599   3.216   0.012   7.907 -0.5081 -0.0644  0.6834
 4347TIP3    H134600   3.159  -0.037   7.967  0.2077 -0.3199  1.1522
 4347TIP3    H234601   3.298  -0.036   7.907 -0.1340  0.5685  0.3557
 4348TIP3   OH234602   6.943   0.263   8.198  0.5853 -0.2896 -0.1637
 4348TIP3    H134603   7.020   0.314   8.170  1.0684 -1.6516 -1.3654
 4348TIP3    H234604   6.919   0.211   8.121 -0.1422 -1.5863  0.9161
 4349TIP3   OH234605   7.160   0.782   1.508 -0.0613 -0.2713  0.3562
 4349TIP3    H134606   7.153   0.813   1.417 -0.5124  0.3852  0.6107
 4349TIP3    H234607   7.240   0.729   1.509 -0.3989 -0.8069 -0.5735
 4350TIP3   OH234608   5.051   0.581   0.653 -0.1978 -0.2439  0.4366
 4350TIP3    H134609   5.080   0.526   0.580 -1.5877  0.9158 -1.0417
 4350TIP3    H234610   5.051   0.522   0.729 -1.9933 -2.4242 -1.1567
 4351TIP3   OH234611   7.073   6.779   1.128 -0.4347  0.0647 -0.0504
 4351TIP3    H134612   7.138   6.841   1.159  0.1060 -0.6436  0.2551
 4351TIP3    H234613   7.009   6.832   1.080 -0.6265  1.0173  1.2315
 4352TIP3   OH234614   5.368   0.677   0.691 -0.1284 -0.0871  0.0399
 4352TIP3    H134615   5.384   0.591   0.732 -0.7867  0.5646  1.7072
 4352TIP3    H234616   5.283   0.668   0.649  0.3214 -0.6030 -0.7789
 4353TIP3   OH234617   0.746   5.724   0.710 -0.3677  0.0888 -0.0652
 4353TIP3    H134618   0.795   5.797   0.747 -1.1675  0.8478 -0.4793
 4353TIP3    H234619   0.810   5.654   0.700  0.8839  1.4330 -1.6454
 4354TIP3   OH234620   2.223   7.217   0.400 -0.4147 -0.1015 -1.0633
 4354TIP3    H134621   2.209   7.311   0.388 -1.1286 -0.0828 -0.1544
 4354TIP3    H234622   2.160   7.175   0.342  2.1114 -0.0694 -4.0017
 4355TIP3   OH234623   7.296   0.502   1.303  0.0149 -0.7253  0.3704
 4355TIP3    H134624   7.245   0.534   1.229 -1.2085  1.9603  2.2528
 4355TIP3    H234625   7.359   0.441   1.266  0.4187  1.6588 -3.0615
 4356TIP3   OH234626   5.382   1.417   2.272  0.2196  0.0460  0.3194
 4356TIP3    H134627   5.433   1.478   2.325  0.8031 -0.3506  0.2264
 4356TIP3    H234628   5.376   1.459   2.186  1.8066 -0.6374 -0.1468
 4357TIP3   OH234629   7.202   1.936   1.015  0.3702 -0.0393  0.0833
 4357TIP3    H134630   7.179   1.899   1.100 -0.7844 -0.5518 -0.4394
 4357TIP3    H234631   7.154   1.882   0.952 -0.1327  1.3828 -0.7861
 4358TIP3   OH234632   5.261   5.710   2.093  0.0456 -0.6034 -0.0999
 4358TIP3    H134633   5.247   5.680   2.182  1.0109 -1.0703 -0.1004
 4358TIP3    H234634   5.209   5.651   2.038 -0.3352 -0.4802  0.1274
 4359TIP3   OH234635   0.381   3.474   2.089 -0.2109 -0.3118  0.2261
 4359TIP3    H134636   0.468   3.437   2.075 -0.0157  0.0146  0.5844
 4359TIP3    H234637   0.372   3.480   2.184 -0.1716  0.7196  0.1702
 4360TIP3   OH234638   6.787   0.145   0.997 -0.2461  0.0232  0.5817
 4360TIP3    H134639   6.694   0.129   1.010 -0.8826  1.3850 -1.8904
 4360TIP3    H234640   6.822   0.060   0.970 -1.0536 -0.1928  0.1959
 4361TIP3   OH234641   7.155   0.370   2.550  0.2673 -0.0776 -0.0042
 4361TIP3    H134642   7.164   0.384   2.645  0.6931 -1.9186  0.2562
 4361TIP3    H234643   7.159   0.457   2.512  1.5231  0.5726  1.5663
 4362TIP3   OH234644   6.262   7.266   8.042  0.4772 -0.5597  0.4826
 4362TIP3    H134645   6.303   7.182   8.022 -1.9554 -1.3208 -1.6596
 4362TIP3    H234646   6.226   7.254   8.130 -0.5142 -2.0796 -0.1018
 4363TIP3   OH234647   6.136   6.249   7.354  0.6057  0.1238 -0.1509
 4363TIP3    H134648   6.227   6.239   7.326  0.3925 -1.2714 -0.3610
 4363TIP3    H234649   6.126   6.190   7.428 -0.2683 -0.1199 -0.4538
 4364TIP3   OH234650   3.552   0.445   8.120 -0.3476  0.3357 -0.2110
 4364TIP3    H134651   3.525   0.505   8.049 -1.4922 -1.3175 -1.2102
 4364TIP3    H234652   3.610   0.498   8.174  0.3298  1.7461 -2.2198
 4365TIP3   OH234653   5.840   7.263   0.223  0.4517 -0.3905 -0.5067
 4365TIP3    H134654   5.832   7.296   0.134 -1.2096  1.4346  0.2870
 4365TIP3    H234655   5.893   7.330   0.268 -1.5708  0.4485  0.7042
 4366TIP3   OH234656   4.522   6.048   7.748 -0.2951  1.2459 -0.6261
 4366TIP3    H134657   4.486   6.091   7.826 -1.9323  0.7751 -1.1114
 4366TIP3    H234658   4.605   6.094   7.732  1.3118 -0.2819  2.8549
 4367TIP3   OH234659   0.431   1.645   1.224  0.2017 -0.2108  0.0353
 4367TIP3    H134660   0.525   1.654   1.241  0.5112 -1.8450 -0.6852
 4367TIP3    H234661   0.389   1.685   1.300  1.4869  0.7008  0.2758
 4368TIP3   OH234662   5.657   0.685   1.086  0.2677  0.8039 -0.1438
 4368TIP3    H134663   5.591   0.728   1.139  0.6320 -0.2606  1.2027
 4368TIP3    H234664   5.739   0.726   1.111  0.5176 -0.1235  0.5822
 4369TIP3   OH234665   7.092   6.774   7.456 -0.1976  0.3572  0.6487
 4369TIP3    H134666   7.182   6.755   7.481  0.2084  0.5807 -0.5944
 4369TIP3    H234667   7.052   6.811   7.535  0.9112  0.6227  1.0911
 4370TIP3   OH234668   0.535   0.269   1.491  0.1450 -0.5744  0.2163
 4370TIP3    H134669   0.622   0.256   1.529  0.5622 -0.5310 -0.7129
 4370TIP3    H234670   0.491   0.185   1.504 -0.0700 -0.2497  1.6755
 4371TIP3   OH234671   2.374   0.575   0.112  0.4936 -0.4236 -0.4430
 4371TIP3    H134672   2.328   0.509   0.061  0.1307 -0.8772  0.4615
 4371TIP3    H234673   2.383   0.650   0.053 -2.1650  0.0031 -0.3451
 4372TIP3   OH234674   5.687   0.857   0.193  0.5977  0.1240  0.2060
 4372TIP3    H134675   5.720   0.946   0.202 -1.3215  0.9648 -0.6689
 4372TIP3    H234676   5.693   0.838   0.100  1.3625 -0.8269  0.4390
 4373TIP3   OH234677   6.368   0.677   0.145 -0.1590 -0.3072 -0.4338
 4373TIP3    H134678   6.411   0.654   0.227 -1.6410 -3.9308 -0.5804
 4373TIP3    H234679   6.285   0.715   0.171 -0.1356 -0.3963 -0.2293
 4374TIP3   OH234680   7.267   1.598   0.029 -0.6572  0.0789 -0.0244
 4374TIP3    H134681   7.201   1.667   0.035  0.0065  0.6948  0.1037
 4374TIP3    H234682   7.342   1.639  -0.014 -0.3039 -0.5897 -0.0537
 4375TIP3   OH234683   6.104   1.321   8.156 -0.2344  0.3023 -0.0706
 4375TIP3    H134684   6.111   1.253   8.223  0.3530 -0.9848 -1.3934
 4375TIP3    H234685   6.192   1.327   8.120 -0.2316  1.9588  0.1989
 4376TIP3   OH234686   5.354   1.528   1.969  0.0155 -0.4851 -0.7921
 4376TIP3    H134687   5.360   1.618   1.935 -1.3231  0.9944  2.6379
 4376TIP3    H234688   5.260   1.513   1.978  0.2924 -1.4585  0.5585
 4377TIP3   OH234689   6.850   1.137   2.325 -0.0944  0.2081  0.3160
 4377TIP3    H134690   6.846   1.144   2.230  0.3464  0.8667  0.3375
 4377TIP3    H234691   6.940   1.111   2.344 -0.0065  0.6863  0.5788
 4378TIP3   OH234692   4.760   1.643   2.124 -0.2241 -0.0744 -0.0267
 4378TIP3    H134693   4.721   1.594   2.196  0.5238  0.8354  1.0093
 4378TIP3    H234694   4.686   1.676   2.074 -0.7791  0.8242  1.3634
 4379TIP3   OH234695   4.936   1.063   1.241 -0.6482 -0.3463 -0.1983
 4379TIP3    H134696   4.968   1.018   1.163 -1.9614 -0.2670 -0.7949
 4379TIP3    H234697   4.877   1.000   1.282  0.6631 -0.6945  1.1876
 4380TIP3   OH234698   6.137   1.819   1.720  0.1953 -0.4351  0.1256
 4380TIP3    H134699   6.109   1.759   1.789 -0.1095 -1.8016 -1.1642
 4380TIP3    H234700   6.155   1.762   1.645  1.4381  0.9335 -0.6365
 4381TIP3   OH234701   0.337   1.544   0.540 -0.2605 -0.5962 -0.7271
 4381TIP3    H134702   0.264   1.504   0.492 -0.1902 -2.2946  0.5506
 4381TIP3    H234703   0.294   1.599   0.605 -0.4792 -3.1743  1.3701
 4382TIP3   OH234704   1.123   3.307   7.776 -0.8643  0.6506  0.1689
 4382TIP3    H134705   1.130   3.390   7.729 -1.8700  0.1451 -0.9064
 4382TIP3    H234706   1.214   3.281   7.793 -0.4586  0.5669 -2.0106
 4383TIP3   OH234707   7.189   0.911   1.246  0.3956 -0.2274 -0.4281
 4383TIP3    H134708   7.228   0.984   1.294  0.6760 -0.4710 -0.2816
 4383TIP3    H234709   7.263   0.869   1.202  0.3424 -0.8526  0.0629
 4384TIP3   OH234710   0.894   0.752   1.818 -0.1743  0.7267  0.1197
 4384TIP3    H134711   0.899   0.779   1.726 -2.4835  1.5361  0.1958
 4384TIP3    H234712   0.876   0.658   1.815 -0.7308  0.8453 -0.2617
 4385TIP3   OH234713   6.200   2.537   1.429  0.1616 -0.0167  0.1328
 4385TIP3    H134714   6.171   2.620   1.467 -3.1487 -1.0421  0.0268
 4385TIP3    H234715   6.119   2.496   1.396  1.9391 -2.5195 -1.3207
 4386TIP3   OH234716   1.648   0.052   0.532 -0.1392 -0.4691 -0.8415
 4386TIP3    H134717   1.589   0.081   0.462  1.4258  0.0574 -1.9733
 4386TIP3    H234718   1.616   0.097   0.611 -1.7537 -0.8623 -1.2662
 4387TIP3   OH234719   2.692   0.644   1.743  0.0439  0.8475  0.6505
 4387TIP3    H134720   2.735   0.559   1.738 -0.2739  0.7247 -0.0135
 4387TIP3    H234721   2.619   0.631   1.803  0.1512  0.7247  0.7556
 4388TIP3   OH234722   1.115   7.129   7.091 -0.3709 -0.1600 -0.9830
 4388TIP3    H134723   1.047   7.070   7.123 -0.1367  0.4229  0.6584
 4388TIP3    H234724   1.165   7.152   7.169  2.5986 -1.6727 -2.3693
 4389TIP3   OH234725   6.620   7.135   7.528  0.3346  0.5100 -0.2251
 4389TIP3    H134726   6.540   7.123   7.477  1.1275  0.1472 -1.3934
 4389TIP3    H234727   6.603   7.213   7.581 -1.1420 -0.0985  0.2259
 4390TIP3   OH234728   7.160   1.441   0.864  0.0580  0.3099 -0.3495
 4390TIP3    H134729   7.165   1.444   0.960  1.6286  0.8809 -0.4294
 4390TIP3    H234730   7.068   1.454   0.845 -0.2099  0.6572  1.0851
 4391TIP3   OH234731   5.531   6.879   1.035 -0.1094 -0.2458 -0.1096
 4391TIP3    H134732   5.465   6.829   1.084  0.3097 -0.9195 -0.2217
 4391TIP3    H234733   5.573   6.935   1.100 -0.1097 -0.5482  0.1542
 4392TIP3   OH234734   2.091   0.766   0.112  0.8595 -0.4129 -0.0099
 4392TIP3    H134735   2.126   0.701   0.051  1.8233 -0.5360  0.6585
 4392TIP3    H234736   2.085   0.719   0.196 -2.3682 -0.8499 -0.4286
 4393TIP3   OH234737   0.448   7.011   0.535 -0.2273 -0.4179 -0.1034
 4393TIP3    H134738   0.502   6.940   0.502  0.8269  0.0238  0.6399
 4393TIP3    H234739   0.400   6.972   0.608  0.2014 -0.4278  0.1769
 4394TIP3   OH234740   6.352   2.487   1.698  0.3924 -0.3306  0.6074
 4394TIP3    H134741   6.271   2.535   1.709 -0.2420 -1.2229 -0.0731
 4394TIP3    H234742   6.341   2.439   1.616  0.2548 -3.0438  2.1436
 4395TIP3   OH234743   6.134   6.328   0.869 -0.0246 -0.2575 -0.3091
 4395TIP3    H134744   6.082   6.350   0.792 -1.2601 -0.8202  0.3409
 4395TIP3    H234745   6.160   6.412   0.905 -0.6768  0.0412 -0.5249
 4396TIP3   OH234746   7.255   1.164   0.091 -0.0317  0.4206 -0.5900
 4396TIP3    H134747   7.222   1.118   0.168 -0.5950  0.7040 -0.6565
 4396TIP3    H234748   7.298   1.242   0.126 -1.3611  1.1767 -0.6356
 4397TIP3   OH234749   6.805   6.256   8.372  0.0033 -0.6587  0.1536
 4397TIP3    H134750   6.734   6.209   8.415  0.8282 -0.6763  1.5321
 4397TIP3    H234751   6.860   6.187   8.335 -0.9362 -0.6281 -1.2994
 4398TIP3   OH234752   5.280   4.928   1.752 -0.9071  0.2538  0.5622
 4398TIP3    H134753   5.288   5.002   1.691  0.5615 -0.5568 -0.2576
 4398TIP3    H234754   5.301   4.965   1.837  2.2257  0.2924 -0.1874
 4399TIP3   OH234755   6.814   0.464   7.201 -0.0219 -0.2901  0.1341
 4399TIP3    H134756   6.821   0.556   7.177  1.0844 -0.8124 -1.6426
 4399TIP3    H234757   6.728   0.438   7.168  0.1314 -0.1610 -0.3870
 4400TIP3   OH234758   6.826   1.469   7.358 -0.0634  0.2154  0.5527
 4400TIP3    H134759   6.794   1.533   7.294 -1.2941 -1.0603 -0.1241
 4400TIP3    H234760   6.769   1.479   7.434 -1.2971 -1.1792 -0.1707
 4401TIP3   OH234761   7.093   0.015   8.261  0.2733  0.1461 -0.1118
 4401TIP3    H134762   7.154   0.070   8.311  2.0167  0.0665 -2.0664
 4401TIP3    H234763   7.045   0.076   8.205 -0.0727 -0.0001  0.0219
 4402TIP3   OH234764   1.394   0.435   2.103  0.4880  0.0638  0.6631
 4402TIP3    H134765   1.323   0.473   2.156  1.3366  0.1620  1.7608
 4402TIP3    H234766   1.357   0.425   2.016  0.1559  3.1778  0.4083
 4403TIP3   OH234767   7.186   1.083   0.473 -0.3761  0.6206 -0.1479
 4403TIP3    H134768   7.211   1.146   0.540  0.7911  0.9048 -0.8259
 4403TIP3    H234769   7.126   1.131   0.416  0.4654  1.1179 -0.6304
 4404TIP3   OH234770   5.878   1.345   1.165 -0.1213 -0.4229  1.2142
 4404TIP3    H134771   5.786   1.354   1.188  0.1269  0.2394  1.9851
 4404TIP3    H234772   5.884   1.259   1.123 -1.7623  1.1536 -2.4283
 4405TIP3   OH234773   6.889   1.543   0.814 -0.5865  0.6498 -0.3251
 4405TIP3    H134774   6.822   1.592   0.765 -1.0959 -2.7820 -3.2451
 4405TIP3    H234775   6.841   1.470   0.853  0.9157 -0.0816  0.1742
 4406TIP3   OH234776   6.576   1.327   1.108 -0.1447 -0.0737 -0.0422
 4406TIP3    H134777   6.548   1.261   1.172  0.7742 -0.2530  0.1814
 4406TIP3    H234778   6.568   1.410   1.154 -2.5890  0.1204 -0.7554
 4407TIP3   OH234779   6.426   1.806   1.303 -0.0566 -0.2230  0.4066
 4407TIP3    H134780   6.428   1.827   1.209 -1.8533 -2.7690 -0.2619
 4407TIP3    H234781   6.509   1.761   1.319  0.5063  0.7255  0.1694
 4408TIP3   OH234782   7.277   0.029   7.600  0.3092  0.3540 -0.0734
 4408TIP3    H134783   7.340   0.028   7.672 -2.3458  0.6495  2.3453
 4408TIP3    H234784   7.304   0.103   7.545  1.5027  1.0929  1.4735
 4409TIP3   OH234785   1.048   6.464   0.138 -0.2683 -0.6559  0.3617
 4409TIP3    H134786   1.079   6.374   0.123 -0.6309 -0.7726  0.2844
 4409TIP3    H234787   0.970   6.471   0.083  0.1249 -0.0784 -0.1308
 4410TIP3   OH234788   6.855   7.287   1.607  0.0006 -0.1085  0.0281
 4410TIP3    H134789   6.892   7.302   1.520  0.4772  1.7476  0.5197
 4410TIP3    H234790   6.921   7.235   1.653 -0.0330 -0.6651 -0.5456
 4411TIP3   OH234791   0.691   1.647   1.282  0.2527  0.2303  0.0575
 4411TIP3    H134792   0.754   1.578   1.260  0.4425  0.3320  0.2792
 4411TIP3    H234793   0.716   1.676   1.370  1.3867  1.9153 -0.7916
 4412TIP3   OH234794   1.249   0.554   0.583  0.1337  0.0212  0.1299
 4412TIP3    H134795   1.290   0.478   0.626  0.0711 -0.2996 -0.3754
 4412TIP3    H234796   1.273   0.544   0.491  1.4162  1.4395  0.2894
 4413TIP3   OH234797   1.067   0.996   1.738 -0.2738 -0.4893  0.4596
 4413TIP3    H134798   0.996   0.960   1.791  0.6138 -2.3076  0.4281
 4413TIP3    H234799   1.080   0.933   1.668 -0.1362  0.9563 -0.8447
 4414TIP3   OH234800   4.615   2.575   1.213 -0.4428 -0.3587 -0.0389
 4414TIP3    H134801   4.647   2.663   1.189 -2.4469  0.4097  0.0258
 4414TIP3    H234802   4.657   2.517   1.149  1.7152  0.4905  0.5545
 4415TIP3   OH234803   6.250   6.238   1.524  0.2570 -0.4476  0.1537
 4415TIP3    H134804   6.172   6.189   1.548  0.8762 -1.4061  0.2553
 4415TIP3    H234805   6.272   6.290   1.601 -0.3841 -0.0368  0.0589
 4416TIP3   OH234806   0.372   1.941   8.139  0.1368  0.7816 -0.0907
 4416TIP3    H134807   0.297   1.939   8.198  1.4810  1.3949  1.6921
 4416TIP3    H234808   0.447   1.921   8.195  1.3811  0.7502 -1.7224
 4417TIP3   OH234809   4.998   2.394   2.103  0.1734 -0.5782 -0.0889
 4417TIP3    H134810   5.090   2.416   2.092  0.4372 -1.7088 -0.2842
 4417TIP3    H234811   4.999   2.307   2.144 -0.7780 -1.7034 -2.3587
 4418TIP3   OH234812   0.222   2.277   1.001 -0.5462 -0.0563  0.2548
 4418TIP3    H134813   0.217   2.207   1.066  0.1685 -0.1660  0.2017
 4418TIP3    H234814   0.153   2.257   0.938 -2.7054  1.2616  2.1463
 4419TIP3   OH234815   0.036   0.587   1.597  0.6026  0.3207 -0.0327
 4419TIP3    H134816   0.100   0.535   1.645 -0.3287  0.1013  1.0215
 4419TIP3    H234817   0.014   0.534   1.520 -0.2686 -0.8290  0.9805
 4420TIP3   OH234818   5.996   6.577   1.620 -0.3414 -0.1148  0.5743
 4420TIP3    H134819   6.063   6.587   1.552 -0.8494  3.0375  0.4778
 4420TIP3    H234820   6.038   6.522   1.686  1.1796 -0.8665 -0.9732
 4421TIP3   OH234821   4.765   0.845   0.659 -0.3490 -0.0317 -0.3922
 4421TIP3    H134822   4.789   0.838   0.567 -0.0307 -0.0893 -0.3048
 4421TIP3    H234823   4.675   0.813   0.663 -1.0997  1.8884 -1.0250
 4422TIP3   OH234824   7.081   6.702   1.804  0.3349 -0.3317 -0.0954
 4422TIP3    H134825   7.028   6.625   1.824  0.9715 -0.5012  0.9425
 4422TIP3    H234826   7.136   6.715   1.881  0.2965  1.1112 -0.2911
 4423TIP3   OH234827   6.744   7.247   8.158  0.6521 -0.1546  0.2294
 4423TIP3    H134828   6.822   7.191   8.154 -0.6063 -2.0720  1.4926
 4423TIP3    H234829   6.734   7.281   8.070  2.7626 -0.1110 -0.0127
 4424TIP3   OH234830   6.779   6.877   0.823  0.1626  0.0729 -0.0931
 4424TIP3    H134831   6.748   6.805   0.767 -0.0363  0.8317 -0.9724
 4424TIP3    H234832   6.874   6.867   0.824  0.0342 -1.2594  1.2486
 4425TIP3   OH234833   1.989   0.638   7.882  0.2757  0.3664 -0.4153
 4425TIP3    H134834   2.001   0.723   7.925 -0.2490  2.0362 -3.4523
 4425TIP3    H234835   1.896   0.617   7.894  0.2297  0.6070 -0.3601
 4426TIP3   OH234836   6.910   0.867   1.300 -0.2801 -0.6931 -0.0371
 4426TIP3    H134837   6.853   0.916   1.241 -0.0817  1.2357  1.3026
 4426TIP3    H234838   6.999   0.882   1.266 -0.2355 -0.2809  0.2596
 4427TIP3   OH234839   5.850   7.059   7.564  0.1064  0.0510 -0.1018
 4427TIP3    H134840   5.891   7.041   7.479  2.2485 -0.4804  1.0296
 4427TIP3    H234841   5.757   7.069   7.543  0.7373  1.0129 -2.6707
 4428TIP3   OH234842   7.155   1.659   2.329  0.3546 -0.3045 -0.6547
 4428TIP3    H134843   7.085   1.673   2.393 -0.4829 -1.9949 -1.1887
 4428TIP3    H234844   7.206   1.587   2.365  3.1901  2.3321  0.8475
 4429TIP3   OH234845   6.089   0.532   1.359 -0.0082 -0.1105 -0.2541
 4429TIP3    H134846   6.078   0.537   1.264 -2.2517 -1.0243 -0.0799
 4429TIP3    H234847   6.146   0.457   1.373  2.7540  1.7819 -0.9918
 4430TIP3   OH234848   0.849   0.793   6.729  0.2361  0.3225  0.4327
 4430TIP3    H134849   0.800   0.810   6.649  1.2349  0.1535 -0.2162
 4430TIP3    H234850   0.808   0.714   6.765 -0.6982  0.8250  0.4906
 4431TIP3   OH234851   1.747   0.503   0.983  0.3268  0.1438  0.4624
 4431TIP3    H134852   1.779   0.589   1.012 -0.0611  0.5848 -0.4154
 4431TIP3    H234853   1.809   0.477   0.915 -0.9732  0.8590 -1.0297
 4432TIP3   OH234854   5.934   6.740   0.292  0.4551 -0.2026 -0.4677
 4432TIP3    H134855   5.908   6.824   0.252  0.6979  0.6198  1.0681
 4432TIP3    H234856   5.872   6.728   0.364 -0.2130 -1.8603 -1.2803
 4433TIP3   OH234857   6.640   6.078   1.951 -0.0384  0.0411 -0.4224
 4433TIP3    H134858   6.673   5.989   1.949  0.9240  0.3983 -0.7305
 4433TIP3    H234859   6.690   6.121   2.021 -0.9133  0.1817  0.1280
 4434TIP3   OH234860   5.830   5.882   1.525 -0.0801 -0.2514  0.1518
 4434TIP3    H134861   5.923   5.860   1.538 -0.1059 -0.3240  0.2106
 4434TIP3    H234862   5.807   5.841   1.442  0.2436  0.7132 -0.4269
 4435TIP3   OH234863   6.629   0.314   8.395  0.0752 -0.0386  0.5396
 4435TIP3    H134864   6.712   0.275   8.421 -0.5329 -2.0058 -0.3947
 4435TIP3    H234865   6.563   0.266   8.446 -0.7102 -0.4679 -0.8627
 4436TIP3   OH234866   7.247   2.602   7.245 -0.1481  0.3008  0.1778
 4436TIP3    H134867   7.206   2.684   7.218 -2.0484 -0.8428 -0.5237
 4436TIP3    H234868   7.306   2.581   7.173  1.3682  1.7157  0.9731
 4437TIP3   OH234869   2.892   0.398   1.680 -0.1625  0.1667  0.2095
 4437TIP3    H134870   2.832   0.323   1.678  0.0307 -0.0125  0.8953
 4437TIP3    H234871   2.904   0.416   1.773  2.6398 -1.2373  0.1497
 4438TIP3   OH234872   1.253   0.416   1.868 -0.4221 -0.2566 -0.7149
 4438TIP3    H134873   1.287   0.386   1.783 -1.4305 -2.3381 -0.4265
 4438TIP3    H234874   1.164   0.447   1.848 -0.6965 -0.8402 -0.4064
 4439TIP3   OH234875   5.124   0.422   0.936 -0.1830  0.7886  0.6911
 4439TIP3    H134876   5.084   0.341   0.967 -0.9291  0.6103 -0.6917
 4439TIP3    H234877   5.216   0.416   0.963 -0.1396 -0.7040  0.2435
 4440TIP3   OH234878   6.977   3.131   6.126  0.0579 -0.3182 -0.2151
 4440TIP3    H134879   6.944   3.153   6.039 -0.8005  1.4694  0.5320
 4440TIP3    H234880   7.072   3.127   6.116 -0.1008 -1.2344 -1.4631
 4441TIP3   OH234881   6.018   0.189   0.706 -0.1836 -0.4186  0.0846
 4441TIP3    H134882   5.949   0.250   0.731 -0.3798 -1.3747  1.9764
 4441TIP3    H234883   6.050   0.153   0.789  2.1172 -0.5124 -0.7864
 4442TIP3   OH234884   6.859   0.644   1.441  0.1142  0.8197 -0.4336
 4442TIP3    H134885   6.910   0.720   1.412  1.5524 -0.2077 -0.6669
 4442TIP3    H234886   6.888   0.629   1.530 -1.3149  1.4737  0.1558
 4443TIP3   OH234887   5.888   0.561   7.450 -0.0377 -0.0805  0.6421
 4443TIP3    H134888   5.858   0.650   7.470 -0.9389 -0.3712  0.6341
 4443TIP3    H234889   5.882   0.556   7.354 -1.3525 -0.6120  0.7465
 4444TIP3   OH234890   5.727   0.378   7.769 -0.0618  0.0519  0.2073
 4444TIP3    H134891   5.645   0.401   7.726 -0.1766  2.3089  1.5264
 4444TIP3    H234892   5.704   0.368   7.861  0.9086 -0.6832  0.3882
 4445TIP3   OH234893   3.307   6.193   7.182 -0.3160  0.0790  0.1324
 4445TIP3    H134894   3.241   6.125   7.194 -0.2926 -0.7466 -3.7364
 4445TIP3    H234895   3.335   6.184   7.091  2.4757  2.8115  0.6164
 4446TIP3   OH234896   6.497   0.455   7.805 -0.4153 -0.4243 -0.4710
 4446TIP3    H134897   6.417   0.482   7.850  0.0563 -1.8505  1.2548
 4446TIP3    H234898   6.467   0.419   7.721 -1.4502  0.4388 -0.4751
 4447TIP3   OH234899   5.520   6.063   1.377 -0.3740  0.5798 -0.1678
 4447TIP3    H134900   5.545   5.971   1.380 -0.9774  0.3976 -0.6017
 4447TIP3    H234901   5.454   6.072   1.446  0.5740  0.9726  0.7084
 4448TIP3   OH234902   4.592   6.200   0.686  0.4318 -0.3343  0.0374
 4448TIP3    H134903   4.560   6.289   0.672  0.3329 -0.4565 -0.5471
 4448TIP3    H234904   4.674   6.196   0.638  1.0812 -0.1755  1.1225
 4449TIP3   OH234905   5.376   2.082   2.229  0.4714  0.3116  0.2652
 4449TIP3    H134906   5.440   2.041   2.171  0.0912  2.0237 -1.4218
 4449TIP3    H234907   5.337   2.009   2.277  0.2001 -1.2645 -2.2501
 4450TIP3   OH234908   6.027   0.485   0.647 -0.0540 -0.0935  0.4441
 4450TIP3    H134909   5.940   0.504   0.611  0.3711  0.0679 -0.5191
 4450TIP3    H234910   6.018   0.499   0.741 -0.3407  2.7513  0.0369
 4451TIP3   OH234911   7.168   1.584   2.073  0.0767  0.0204  0.1530
 4451TIP3    H134912   7.166   1.624   2.160 -2.2545 -2.3669  1.2757
 4451TIP3    H234913   7.209   1.499   2.087 -0.0879 -0.2750 -1.1513
 4452TIP3   OH234914   0.466   1.650   8.003  0.1273 -0.5294 -0.1188
 4452TIP3    H134915   0.461   1.727   8.060  0.8592 -0.1771 -0.5293
 4452TIP3    H234916   0.374   1.628   7.984 -0.1376 -0.8953  1.5264
 4453TIP3   OH234917   6.935   0.360   1.120  0.2880  0.3237  0.2750
 4453TIP3    H134918   6.913   0.308   1.043 -1.2597  1.1182  0.1547
 4453TIP3    H234919   6.990   0.430   1.087 -0.7099  0.8977 -0.1931
 4454TIP3   OH234920   0.086   6.818   7.521 -0.2352  0.4813 -0.3707
 4454TIP3    H134921   0.066   6.770   7.602 -1.3035  3.2733  1.0889
 4454TIP3    H234922   0.075   6.753   7.452  0.6115 -1.9598  1.7128
 4455TIP3   OH234923   0.599   0.912   1.625 -0.6644  0.2939 -0.4309
 4455TIP3    H134924   0.694   0.903   1.634 -0.4187  3.0952  0.1349
 4455TIP3    H234925   0.586   0.938   1.534 -0.7744  1.3181 -0.1232
 4456TIP3   OH234926   0.915   6.285   8.464 -0.1739 -0.2424 -0.6061
 4456TIP3    H134927   0.833   6.294   8.512 -0.1931  1.1652 -0.8832
 4456TIP3    H234928   0.928   6.190   8.456 -0.9930 -0.4783  0.7462
 4457TIP3   OH234929   5.775   0.923   0.898 -0.0748 -0.0231  0.4895
 4457TIP3    H134930   5.744   0.883   0.816 -1.3032  0.2452  0.8143
 4457TIP3    H234931   5.736   0.869   0.967  0.6383 -0.0062  0.9157
 4458TIP3   OH234932   0.235   1.598   7.872 -0.7317  0.1773 -0.4027
 4458TIP3    H134933   0.240   1.507   7.901 -1.9085  0.1966 -0.0974
 4458TIP3    H234934   0.181   1.595   7.793 -0.3458  0.5488 -0.6838
 4459TIP3   OH234935   6.333   6.398   0.076 -0.8243  0.1770  0.2296
 4459TIP3    H134936   6.252   6.364   0.037 -1.0384  0.2398  0.6208
 4459TIP3    H234937   6.314   6.490   0.092 -0.6317  0.2202  0.2087
 4460TIP3   OH234938   6.910   1.965   7.064 -0.2711  0.2644  0.4464
 4460TIP3    H134939   6.840   2.021   7.099 -0.1958 -0.7306  2.2733
 4460TIP3    H234940   6.941   2.011   6.986 -1.2614  1.9792  1.0379
 4461TIP3   OH234941   5.679   6.782   1.710 -0.6188 -0.0326 -0.4241
 4461TIP3    H134942   5.607   6.718   1.706 -1.6880  1.0968  0.1520
 4461TIP3    H234943   5.642   6.855   1.761  0.9832  0.5225 -0.0461
 4462TIP3   OH234944   6.865   1.616   1.199  0.5538  0.8082 -0.7221
 4462TIP3    H134945   6.865   1.520   1.202  1.7247  0.7873 -1.0683
 4462TIP3    H234946   6.933   1.638   1.135  1.9499  1.9157  1.1206
 4463TIP3   OH234947   5.744   6.500   7.987 -0.7276 -0.2409  0.0169
 4463TIP3    H134948   5.649   6.509   7.974 -0.7537 -0.0620  0.3327
 4463TIP3    H234949   5.782   6.565   7.927 -0.8131 -0.1672  0.0415
 4464TIP3   OH234950   0.715   0.762   1.303 -1.2650  0.0245  0.2839
 4464TIP3    H134951   0.781   0.692   1.305  0.4465  1.6402  1.2747
 4464TIP3    H234952   0.641   0.723   1.257  0.6525 -1.5785 -1.5217
 4465TIP3   OH234953   6.775   0.836   1.987 -0.7126  0.5763 -0.2686
 4465TIP3    H134954   6.856   0.786   1.989 -1.1072 -0.0432  0.4532
 4465TIP3    H234955   6.712   0.777   1.945 -1.2021  0.4225  0.6674
 4466TIP3   OH234956   7.138   1.363   1.112  0.3140 -0.1271 -0.1129
 4466TIP3    H134957   7.051   1.351   1.148  0.4690  0.4988  0.4849
 4466TIP3    H234958   7.194   1.381   1.188  0.7848  0.4178 -0.5757
 4467TIP3   OH234959   6.349   6.785   1.130  0.7047 -0.2978 -0.2475
 4467TIP3    H134960   6.338   6.826   1.215  0.9941  0.8407 -0.7491
 4467TIP3    H234961   6.442   6.796   1.110  0.5369 -0.1160 -0.9341
 4468TIP3   OH234962   6.404   0.915   1.764 -0.0212 -0.1186 -0.6513
 4468TIP3    H134963   6.312   0.927   1.740 -0.3010 -0.7529  0.0657
 4468TIP3    H234964   6.415   0.968   1.843 -0.1877 -1.2480  0.1543
 4469TIP3   OH234965   6.058   5.528   1.274  0.2545 -0.4464 -0.3834
 4469TIP3    H134966   6.136   5.493   1.230  1.7715 -0.4949  2.2275
 4469TIP3    H234967   6.051   5.618   1.242  1.0561 -0.6197 -1.0792
 4470TIP3   OH234968   3.776   6.757   1.520 -0.4974  0.1060 -0.2048
 4470TIP3    H134969   3.796   6.798   1.604  1.2154 -1.0995 -0.0107
 4470TIP3    H234970   3.770   6.664   1.540 -1.1117 -0.0876 -1.2528
 4471TIP3   OH234971   0.575   0.564   2.280 -0.3117 -0.0857 -0.4123
 4471TIP3    H134972   0.608   0.577   2.191 -3.5294 -0.1637 -1.7019
 4471TIP3    H234973   0.548   0.472   2.282 -0.1503 -0.1102  0.6937
 4472TIP3   OH234974   0.121   0.143   0.848  0.2981  0.5144 -0.6533
 4472TIP3    H134975   0.093   0.053   0.830  0.8768  0.9819 -4.2110
 4472TIP3    H234976   0.180   0.136   0.922 -1.8121 -1.6759  0.8793
 4473TIP3   OH234977   6.887   0.746   8.220  0.2683 -0.4805 -0.3219
 4473TIP3    H134978   6.801   0.740   8.261  0.3480 -0.6571 -0.1788
 4473TIP3    H234979   6.895   0.837   8.193 -0.2303 -0.6086 -0.9132
 4474TIP3   OH234980   5.829   0.149   8.147  0.1351 -0.2059 -0.0878
 4474TIP3    H134981   5.811   0.150   8.241  1.6701 -1.8409  0.2407
 4474TIP3    H234982   5.826   0.057   8.123  1.3516  0.0655 -1.3213
 4475TIP3   OH234983   5.494   0.044   0.432 -0.0969 -0.2540  0.2358
 4475TIP3    H134984   5.542   0.121   0.401  0.4164 -1.0620 -1.0069
 4475TIP3    H234985   5.556  -0.002   0.488  0.0963 -0.5648 -0.2395
 4476TIP3   OH234986   7.142   0.261   1.401 -0.2522 -0.5160  0.0491
 4476TIP3    H134987   7.182   0.346   1.418  1.1377 -1.4954  1.8144
 4476TIP3    H234988   7.084   0.277   1.326  1.3518  1.5610 -0.8112
 4477TIP3   OH234989   6.756   1.341   1.980  0.2975  0.3186 -0.1241
 4477TIP3    H134990   6.726   1.252   1.963  0.0299  0.3840  0.0025
 4477TIP3    H234991   6.847   1.331   2.007  0.4472  0.1357 -0.6880
 4478TIP3   OH234992   6.319   7.159   1.634 -0.4053  0.2872 -0.1728
 4478TIP3    H134993   6.323   7.091   1.701 -3.4691  0.7183  0.5310
 4478TIP3    H234994   6.403   7.204   1.639 -0.1366 -0.4750  2.5520
 4479TIP3   OH234995   0.437   1.593   8.301  0.6248  0.3771 -0.5025
 4479TIP3    H134996   0.447   1.497   8.301 -1.1328  0.1869 -0.7941
 4479TIP3    H234997   0.471   1.620   8.216  3.5103  0.2906  0.5740
 4480TIP3   OH234998   7.205   0.830   8.446  0.4853  0.8445 -0.1751
 4480TIP3    H134999   7.169   0.877   8.521 -1.9004  1.9041 -1.9155
 4480TIP3    H235000   7.228   0.898   8.384  0.3901 -0.1018 -1.2751
 4481TIP3   OH235001   0.587   0.790   0.866  0.3737  0.3935 -0.1780
 4481TIP3    H135002   0.587   0.880   0.833 -0.9076  0.3003 -0.4796
 4481TIP3    H235003   0.678   0.773   0.892  0.6085  1.7999 -0.0392
 4482TIP3   OH235004   0.528   2.125   1.119 -0.5852 -0.1036  0.3479
 4482TIP3    H135005   0.575   2.191   1.067  1.2520  1.6970  4.1117
 4482TIP3    H235006   0.573   2.043   1.099  2.2161  1.0875  1.4457
 4483TIP3   OH235007   6.679   0.118   0.159  0.3614 -0.0914 -0.0316
 4483TIP3    H135008   6.728   0.138   0.080 -0.5363 -1.0905 -0.8563
 4483TIP3    H235009   6.700   0.027   0.179  2.0532  0.7022  1.9680
 4484TIP3   OH235010   5.913   2.014   1.712  0.0248 -0.0195 -0.4490
 4484TIP3    H135011   5.970   2.090   1.725 -2.7218  1.8405  1.3634
 4484TIP3    H235012   5.958   1.942   1.755  2.1178  0.8262 -1.1548
 4485TIP3   OH235013   1.324   6.809   1.452 -0.6811  0.2996 -0.3813
 4485TIP3    H135014   1.285   6.850   1.530 -0.2210  0.5299 -0.2725
 4485TIP3    H235015   1.319   6.715   1.470  1.2272  0.3960  0.8085
 4486TIP3   OH235016   6.264   0.916   0.630 -0.1517  0.7587  0.3070
 4486TIP3    H135017   6.222   0.844   0.584 -1.4118  1.6303  0.0718
 4486TIP3    H235018   6.337   0.940   0.573  1.3134 -1.4163  1.2092
 4487TIP3   OH235019   0.533   1.041   0.778 -0.1565  0.0249 -1.2863
 4487TIP3    H135020   0.584   1.122   0.786 -1.8652  0.9210  0.8395
 4487TIP3    H235021   0.509   1.038   0.685  0.5636  1.5539 -1.5517
 4488TIP3   OH235022   6.177   0.114   0.932  0.0109  0.6362  0.3968
 4488TIP3    H135023   6.256   0.145   0.975  0.1415 -1.5769  1.8197
 4488TIP3    H235024   6.105   0.155   0.981  0.1530 -1.8737  2.8297
 4489TIP3   OH235025   6.849   3.428   1.953 -0.2722  0.5913 -0.1824
 4489TIP3    H135026   6.797   3.507   1.936  1.2546  1.4828 -0.8530
 4489TIP3    H235027   6.929   3.442   1.903 -0.3590 -1.8136 -1.0630
 4490TIP3   OH235028   5.352   0.962   1.747 -0.3910  0.0514  0.3506
 4490TIP3    H135029   5.295   1.010   1.687 -3.2681 -2.8426  0.6301
 4490TIP3    H235030   5.350   1.012   1.829  1.9433  2.9098 -1.2305
 4491TIP3   OH235031   6.858   1.160   1.720 -0.2067 -0.3099  0.7839
 4491TIP3    H135032   6.826   1.144   1.809 -1.1634 -0.1776  0.4671
 4491TIP3    H235033   6.933   1.102   1.711 -0.2119 -0.4599  1.6114
 4492TIP3   OH235034   6.083   1.945   2.003 -0.6911 -0.6432  0.7640
 4492TIP3    H135035   6.079   1.983   2.091 -0.3836 -0.5934  0.7594
 4492TIP3    H235036   6.067   1.852   2.017  0.3139 -0.7884  0.9941
 4493TIP3   OH235037   0.695   1.247   1.349  0.0712  0.1550  0.1967
 4493TIP3    H135038   0.729   1.209   1.430 -0.0238  0.0016  0.1641
 4493TIP3    H235039   0.759   1.316   1.327  0.6769 -0.5216 -0.1757
 4494TIP3   OH235040   6.604   0.805   1.409  0.2114 -0.5055  0.1260
 4494TIP3    H135041   6.685   0.792   1.359  0.1019 -0.3694 -0.0880
 4494TIP3    H235042   6.560   0.720   1.407  0.6745 -0.7677  0.8222
 4495TIP3   OH235043   7.201   4.819   0.347  0.2249 -0.0162  0.0748
 4495TIP3    H135044   7.291   4.819   0.380 -0.1271 -0.9752  1.0605
 4495TIP3    H235045   7.182   4.911   0.329  1.2453  0.2455  0.3070
 4496TIP3   OH235046   4.677   6.676   1.416 -0.1521  0.3496  0.0928
 4496TIP3    H135047   4.701   6.768   1.424 -2.2597  0.8663  0.8064
 4496TIP3    H235048   4.607   6.664   1.480  2.6331 -2.7048  2.7510
 4497TIP3   OH235049   4.784   1.951   1.798  0.0226 -0.0248 -0.1453
 4497TIP3    H135050   4.714   1.962   1.734 -0.8546  0.0439  0.7995
 4497TIP3    H235051   4.842   2.025   1.783 -0.9047  0.7502  0.0275
 4498TIP3   OH235052   0.838   3.173   1.417 -0.1256  0.6222 -0.8529
 4498TIP3    H135053   0.747   3.164   1.387 -0.4377 -0.8540  0.4834
 4498TIP3    H235054   0.869   3.083   1.427  0.9818  1.1052  0.1866
 4499TIP3   OH235055   0.015   1.126   1.369  0.2515  0.1492 -0.3407
 4499TIP3    H135056   0.032   1.220   1.360 -0.5519  0.4584  1.2004
 4499TIP3    H235057   0.101   1.087   1.385  0.3830  0.8452  0.6873
 4500TIP3   OH235058   4.103   6.624   1.501 -0.4682  0.0888 -0.1297
 4500TIP3    H135059   4.185   6.574   1.501  1.8822  3.6693 -0.8653
 4500TIP3    H235060   4.066   6.610   1.414 -2.2019 -3.8118  1.1566
 4501TIP3   OH235061   7.042   2.367   1.896 -0.1185  0.5601 -0.3792
 4501TIP3    H135062   7.009   2.451   1.862  0.3481  1.1935  0.6930
 4501TIP3    H235063   7.045   2.380   1.990  2.5882  0.2977 -0.3971
 4502TIP3   OH235064   4.521   0.682   0.700  0.1860  0.0968  0.0486
 4502TIP3    H135065   4.521   0.588   0.682  1.6771  0.2044 -0.6302
 4502TIP3    H235066   4.548   0.688   0.792  0.4774 -0.1325 -0.0189
 4503TIP3   OH235067   0.727   7.257   7.929  0.6487  0.1251  0.1198
 4503TIP3    H135068   0.788   7.329   7.916 -1.9204  2.0716 -1.5049
 4503TIP3    H235069   0.687   7.273   8.015  0.2691  0.4981 -0.1264
 4504TIP3   OH235070   6.144   0.960   1.679 -0.5507 -0.4412  0.3080
 4504TIP3    H135071   6.068   0.971   1.736 -0.5109 -1.1596  0.4996
 4504TIP3    H235072   6.112   0.987   1.592 -1.1866 -1.2669  0.2797
 4505TIP3   OH235073   6.285   0.330   0.628  0.0680  0.7881 -0.0980
 4505TIP3    H135074   6.229   0.253   0.639 -1.3590  1.9779  1.1872
 4505TIP3    H235075   6.243   0.380   0.559  1.9124 -0.3475 -2.1189
 4506TIP3   OH235076   4.914   6.754   0.308 -0.0100  0.4665 -0.0205
 4506TIP3    H135077   4.837   6.728   0.256  1.4286 -2.2177 -0.9012
 4506TIP3    H235078   4.951   6.827   0.259  0.2446 -0.8169 -1.8293
 4507TIP3   OH235079   1.139   0.807   1.560  0.0469 -0.3629  0.3004
 4507TIP3    H135080   1.197   0.744   1.602 -0.4496 -0.6345  0.5821
 4507TIP3    H235081   1.195   0.853   1.497  0.8248  0.1862  1.3937
 4508TIP3   OH235082   6.632   0.795   0.547 -0.1021  0.0190 -0.1479
 4508TIP3    H135083   6.634   0.794   0.643  0.4574 -1.0242 -0.1705
 4508TIP3    H235084   6.723   0.807   0.521  0.1421 -2.5472 -0.5755
 4509TIP3   OH235085   6.882   5.404   7.604 -0.4300 -0.7801  0.5801
 4509TIP3    H135086   6.802   5.447   7.635  0.2499  1.0610 -0.1433
 4509TIP3    H235087   6.945   5.417   7.674  1.6063  4.8012 -1.9448
 4510TIP3   OH235088   0.023   0.571   8.160  0.2788 -0.4573  0.3958
 4510TIP3    H135089   0.074   0.552   8.238  1.7170  0.9253 -0.1847
 4510TIP3    H235090  -0.067   0.576   8.191  1.0023  1.8516  2.3169
 4511TIP3   OH235091   0.631   0.509   0.147 -0.7775  0.1818 -0.4237
 4511TIP3    H135092   0.650   0.603   0.145  0.7301 -0.1263 -1.1133
 4511TIP3    H235093   0.586   0.496   0.231 -0.1766  1.3606  0.0960
 4512TIP3   OH235094   7.157   1.908   8.200 -0.3784 -0.0927 -0.6043
 4512TIP3    H135095   7.251   1.890   8.189 -0.8792 -2.5213 -1.3263
 4512TIP3    H235096   7.138   1.879   8.289 -0.1847  1.6961  0.0358
 4513TIP3   OH235097   6.385   0.387   0.302  0.3483  0.2454 -0.4576
 4513TIP3    H135098   6.458   0.347   0.254  1.3500  0.9067  0.4755
 4513TIP3    H235099   6.424   0.463   0.345 -0.6568 -0.0032  0.9236
 4514TIP3   OH235100   4.928   0.086   2.270 -0.3671 -0.2423  0.6725
 4514TIP3    H135101   4.916  -0.004   2.299  1.0518 -0.9719 -0.9103
 4514TIP3    H235102   4.849   0.106   2.220 -0.5005 -0.7487  0.6763
 4515TIP3   OH235103   5.112   6.595   0.515 -0.8119 -0.4091 -0.3747
 4515TIP3    H135104   5.077   6.680   0.489 -0.7242 -0.5786 -1.0652
 4515TIP3    H235105   5.113   6.597   0.611 -1.5683  0.0598 -0.3749
 4516TIP3   OH235106   6.759   1.094   1.174 -0.2640  0.1253  0.0303
 4516TIP3    H135107   6.745   1.153   1.248  0.3303 -2.3431  2.1407
 4516TIP3    H235108   6.673   1.054   1.158 -0.9397  2.2165 -2.1040
 4517TIP3   OH235109   6.439   1.397   0.762  0.3362  0.6402  0.7242
 4517TIP3    H135110   6.465   1.430   0.849 -2.9174  3.4304  0.7306
 4517TIP3    H235111   6.379   1.325   0.781  1.1866 -0.0682  0.7552
 4518TIP3   OH235112   1.652   1.383   1.673  0.5329  0.1138  0.1498
 4518TIP3    H135113   1.684   1.308   1.623  2.1321  0.4432  0.6374
 4518TIP3    H235114   1.704   1.382   1.753 -0.0474  1.2287  0.5503
 4519TIP3   OH235115   1.687   0.358   1.221 -0.6272  0.0501  0.0135
 4519TIP3    H135116   1.688   0.374   1.127 -3.0249  1.1584  0.1304
 4519TIP3    H235117   1.695   0.263   1.230 -0.4646 -0.0718 -1.3106
 4520TIP3   OH235118   1.664   2.800   0.896  0.0906  0.0846 -0.5024
 4520TIP3    H135119   1.747   2.759   0.872  0.6487 -0.6057  2.4625
 4520TIP3    H235120   1.673   2.821   0.989 -2.1690  2.1899 -0.7036
 4521TIP3   OH235121   0.796   0.681   0.396  0.3301  0.6024  0.6549
 4521TIP3    H135122   0.799   0.736   0.475  1.2226  3.4305 -1.2677
 4521TIP3    H235123   0.748   0.733   0.332  2.1222 -0.3910 -1.5814
 4522TIP3   OH235124   0.049   2.269   0.760  0.0759 -0.0898 -0.5396
 4522TIP3    H135125  -0.043   2.258   0.787  0.2011 -0.5486 -0.2894
 4522TIP3    H235126   0.055   2.219   0.678  0.3111 -0.7721 -0.1104
 4523TIP3   OH235127   2.199   2.123   1.339 -0.7781 -0.9742 -0.3375
 4523TIP3    H135128   2.196   2.116   1.244  1.5379  0.8620 -0.5949
 4523TIP3    H235129   2.159   2.043   1.371 -2.8273 -0.9996 -2.8544
 4524TIP3   OH235130   0.426   3.874   1.741 -0.3992  0.7302 -0.1775
 4524TIP3    H135131   0.459   3.784   1.737 -0.1918  0.8040 -0.1297
 4524TIP3    H235132   0.331   3.864   1.741 -0.3778  0.5380 -0.7288
 4525TIP3   OH235133   6.143   1.034   8.227  0.1433  0.0625 -0.7178
 4525TIP3    H135134   6.092   0.972   8.279  0.4972  1.6677  1.5921
 4525TIP3    H235135   6.173   0.983   8.151 -1.3483 -2.0004  0.0460
 4526TIP3   OH235136   6.948   6.132   7.968 -0.2591  0.3183  0.2712
 4526TIP3    H135137   7.014   6.087   7.916 -0.2396  1.8716 -1.1076
 4526TIP3    H235138   6.982   6.221   7.978 -1.0367  0.4782  1.5436
 4527TIP3   OH235139   0.632   3.533   1.543 -0.1995 -0.1319 -0.1069
 4527TIP3    H135140   0.618   3.519   1.449 -0.4834  4.0835 -0.7808
 4527TIP3    H235141   0.714   3.582   1.548  0.7308 -1.8367  2.0038
 4528TIP3   OH235142   2.068   1.721   0.194 -0.0185  0.1450  0.4504
 4528TIP3    H135143   2.154   1.763   0.200  0.0908 -0.3950  2.9346
 4528TIP3    H235144   2.082   1.646   0.137  1.3593 -0.3992  1.4805
 4529TIP3   OH235145   1.222   6.858   1.695  0.8744 -0.0341 -0.4996
 4529TIP3    H135146   1.143   6.906   1.721  0.2810 -1.3633  0.2116
 4529TIP3    H235147   1.226   6.784   1.755  2.1538 -0.5012 -1.1413
 4530TIP3   OH235148   7.123   1.810   1.274 -0.2801 -0.2546 -0.9521
 4530TIP3    H135149   7.142   1.775   1.361  1.1674 -0.4077 -1.3088
 4530TIP3    H235150   7.036   1.777   1.253 -0.9755  0.4426  0.7595
 4531TIP3   OH235151   3.128   3.143   7.779  0.6097  0.1101  0.4689
 4531TIP3    H135152   3.118   3.112   7.689  1.3252  1.0180  0.0786
 4531TIP3    H235153   3.044   3.123   7.821  0.1512  0.0157 -0.4982
 4532TIP3   OH235154   7.175   3.685   0.574  0.1518 -0.6630  0.3417
 4532TIP3    H135155   7.151   3.618   0.637  0.3379 -1.3582 -0.3234
 4532TIP3    H235156   7.196   3.762   0.627 -2.5482 -0.3278  1.0110
 4533TIP3   OH235157   0.996   4.367   1.889  0.4704  0.1864  1.1836
 4533TIP3    H135158   0.933   4.429   1.852  0.5918 -1.4128 -1.9402
 4533TIP3    H235159   0.941   4.300   1.931  0.0774 -0.5561 -0.4582
 4534TIP3   OH235160   1.144   1.976   0.920  0.8467 -0.4259 -0.4383
 4534TIP3    H135161   1.141   2.035   0.995  0.4784 -0.2778 -0.5703
 4534TIP3    H235162   1.223   1.923   0.934  0.7071 -0.4876  0.1209
 4535TIP3   OH235163   6.202   1.187   1.063 -0.3523  0.6479  0.2673
 4535TIP3    H135164   6.168   1.101   1.087  0.4063  0.0367 -0.8077
 4535TIP3    H235165   6.124   1.243   1.057 -1.0757 -0.5008 -1.1923
 4536TIP3   OH235166   1.213   2.944   2.039  0.6753  0.1588 -0.2309
 4536TIP3    H135167   1.155   2.904   1.974 -2.1277  1.2332  1.4990
 4536TIP3    H235168   1.249   2.871   2.089 -2.8472 -0.4004  1.6286
 4537TIP3   OH235169   0.116   1.170   0.818  0.3877 -0.2643 -0.2115
 4537TIP3    H135170   0.158   1.229   0.881 -0.3849  0.4819 -0.3851
 4537TIP3    H235171   0.047   1.126   0.869  1.8146 -2.0113  0.2533
 4538TIP3   OH235172   0.549   6.936   0.197  0.2060 -0.1159  0.6165
 4538TIP3    H135173   0.566   6.867   0.261  1.4942 -0.3184  0.0681
 4538TIP3    H235174   0.569   6.896   0.112  0.7293  0.8409  0.2798
 4539TIP3   OH235175   7.277   2.874   1.056 -0.0231 -0.0422  0.0611
 4539TIP3    H135176   7.207   2.817   1.086 -0.4954 -0.6363 -2.0920
 4539TIP3    H235177   7.350   2.855   1.115 -0.9713 -1.0113  0.9488
 4540TIP3   OH235178   0.083   1.690   1.224  0.0940  0.2180 -0.3402
 4540TIP3    H135179   0.144   1.720   1.291 -1.0216 -0.5308  1.0499
 4540TIP3    H235180   0.009   1.751   1.229  0.4163  0.6996 -1.5139
 4541TIP3   OH235181   6.206   4.180   1.419  0.0862 -0.4816 -0.1009
 4541TIP3    H135182   6.241   4.100   1.458 -1.4747 -0.4152  1.5085
 4541TIP3    H235183   6.224   4.248   1.484  0.4238  0.2700 -0.9773
 4542TIP3   OH235184   1.192   2.746   1.036 -0.1303  0.4770  0.2588
 4542TIP3    H135185   1.266   2.773   1.091 -0.2671  0.8666  0.2508
 4542TIP3    H235186   1.217   2.772   0.948 -1.2578  2.6671  0.5697
 4543TIP3   OH235187   1.779   0.777   1.541  0.0724 -0.0250 -0.3538
 4543TIP3    H135188   1.749   0.858   1.500 -0.7120  0.2442  0.7232
 4543TIP3    H235189   1.851   0.747   1.485 -2.0633 -0.5843 -2.9146
 4544TIP3   OH235190   1.229   0.040   8.305 -0.2708  0.3421 -0.4690
 4544TIP3    H135191   1.248   0.090   8.226  2.2824 -0.6392 -0.5051
 4544TIP3    H235192   1.204  -0.047   8.273 -1.2400  0.5377 -0.2631
 4545TIP3   OH235193   2.769   1.856   0.466  0.2846 -0.0363  0.2952
 4545TIP3    H135194   2.842   1.818   0.419 -1.2988 -0.5479 -1.8231
 4545TIP3    H235195   2.787   1.837   0.558  2.6737 -0.3229 -0.1964
 4546TIP3   OH235196   0.290   1.898   0.456 -0.3645  0.3718  0.3731
 4546TIP3    H135197   0.300   1.849   0.537  1.8010  0.5281  0.2380
 4546TIP3    H235198   0.277   1.989   0.484 -2.1141  0.0825  0.5702
 4547TIP3   OH235199   0.657   2.229   0.661  0.2037 -0.1732  0.1132
 4547TIP3    H135200   0.676   2.264   0.748  1.0924  1.5311 -0.7514
 4547TIP3    H235201   0.561   2.220   0.659  0.1746 -0.1554  1.2188
 4548TIP3   OH235202   2.057   3.205   1.261 -0.3172  0.2155  0.4430
 4548TIP3    H135203   2.135   3.149   1.261 -1.0790 -0.8577  0.7956
 4548TIP3    H235204   2.077   3.273   1.325  1.0035  0.9144 -0.6813
 4549TIP3   OH235205   1.283   1.594   0.795 -0.4079  0.1392 -0.3921
 4549TIP3    H135206   1.243   1.568   0.878 -4.0116 -0.1954 -2.1562
 4549TIP3    H235207   1.316   1.513   0.757 -1.0971 -0.0952 -0.4890
 4550TIP3   OH235208   1.090   1.851   1.221  0.0083  0.8065 -0.1661
 4550TIP3    H135209   1.078   1.945   1.203 -1.2885  0.5872 -0.4442
 4550TIP3    H235210   1.047   1.807   1.148  2.3059 -0.0173 -1.0871
 4551TIP3   OH235211   6.704   1.186   0.457  0.5403 -0.0767  0.0096
 4551TIP3    H135212   6.684   1.151   0.544  0.3191 -1.3535 -0.5335
 4551TIP3    H235213   6.731   1.276   0.473 -1.4207  0.3457  1.2208
 4552TIP3   OH235214   1.157   4.810   1.549  0.4133  0.0081 -0.2803
 4552TIP3    H135215   1.077   4.839   1.506  0.5523  1.4531  0.4346
 4552TIP3    H235216   1.224   4.872   1.519  0.4771  1.1421  2.1390
 4553TIP3   OH235217   7.189   1.825   0.767 -0.3343 -0.0488  0.6584
 4553TIP3    H135218   7.121   1.859   0.710 -0.0355  0.4428  0.5944
 4553TIP3    H235219   7.247   1.775   0.709 -0.6483 -0.4780  0.7154
 4554TIP3   OH235220   0.451   6.030   0.766 -0.2586  0.4062 -0.1250
 4554TIP3    H135221   0.382   6.045   0.831 -0.7219  1.6569 -0.8716
 4554TIP3    H235222   0.511   6.104   0.779 -0.2667  0.5674 -0.9987
 4555TIP3   OH235223   1.498   3.877   1.177  0.6325  0.4634  0.5546
 4555TIP3    H135224   1.548   3.917   1.249  0.8948 -0.4570  0.8872
 4555TIP3    H235225   1.511   3.783   1.188  0.9385  0.3211 -0.8867
 4556TIP3   OH235226   1.055   2.459   1.873  0.1019  0.9520 -0.0290
 4556TIP3    H135227   1.119   2.405   1.919 -1.6971 -0.8758  0.3722
 4556TIP3    H235228   0.991   2.483   1.940  0.6549  3.3053 -0.2817
 4557TIP3   OH235229   1.752   3.101   0.851 -0.7033  0.0693 -0.0031
 4557TIP3    H135230   1.803   3.049   0.789  0.6254 -0.0851  1.1888
 4557TIP3    H235231   1.774   3.065   0.937 -1.1042  1.4692  0.7069
 4558TIP3   OH235232   3.537   0.627   7.920  0.5281 -0.3636 -0.2742
 4558TIP3    H135233   3.592   0.630   7.841  0.1178  0.2778 -0.5358
 4558TIP3    H235234   3.552   0.712   7.962  0.7568 -0.7119  0.3509
 4559TIP3   OH235235   7.217   2.069   0.421 -0.1561 -0.1020 -0.5496
 4559TIP3    H135236   7.175   1.996   0.376  1.5389 -0.3792 -1.7480
 4559TIP3    H235237   7.153   2.098   0.486 -0.6436 -3.0286  0.3581
 4560TIP3   OH235238   0.859   3.981   1.100  0.0843  0.1161  0.1537
 4560TIP3    H135239   0.821   3.899   1.070  0.9594 -0.0855 -0.4197
 4560TIP3    H235240   0.812   4.001   1.182  0.9587 -1.7614  1.1428
 4561TIP3   OH235241   0.476   4.307   1.740 -0.0500  0.6484  0.1304
 4561TIP3    H135242   0.464   4.263   1.656 -0.6554  1.4622 -0.2228
 4561TIP3    H235243   0.413   4.266   1.798  0.6057 -0.1483  0.2787
 4562TIP3   OH235244   0.813   1.396   6.843  0.1707 -0.7329 -0.2789
 4562TIP3    H135245   0.790   1.468   6.902  0.1944 -2.9630  2.5179
 4562TIP3    H235246   0.907   1.403   6.831  0.4805 -1.4992  1.6332
 4563TIP3   OH235247   6.533   4.859   1.515  0.5407  0.1294 -0.3897
 4563TIP3    H135248   6.447   4.866   1.474  0.6811 -1.0422 -0.8924
 4563TIP3    H235249   6.519   4.802   1.591  0.3442  2.0300  1.0408
 4564TIP3   OH235250   0.896   2.399   0.990  0.3973 -0.3856  0.2571
 4564TIP3    H135251   0.983   2.440   0.992 -0.0654  0.5770  0.7469
 4564TIP3    H235252   0.912   2.311   0.955  1.6056 -0.3049  0.5951
 4565TIP3   OH235253   6.151   3.114   1.534  0.2177  0.0657 -0.5025
 4565TIP3    H135254   6.084   3.180   1.549  0.1329 -0.4261  1.4753
 4565TIP3    H235255   6.137   3.049   1.603  2.5882 -0.1582 -0.1722
 4566TIP3   OH235256   6.133   4.214   2.009  0.5497 -0.0206 -0.4485
 4566TIP3    H135257   6.091   4.150   2.067 -0.4703 -0.7532 -1.9611
 4566TIP3    H235258   6.060   4.257   1.964  1.2183  2.4061  0.7226
 4567TIP3   OH235259   1.049   2.893   1.433 -0.0989 -0.6539 -0.1405
 4567TIP3    H135260   1.113   2.822   1.429  0.8246  0.0966  0.9206
 4567TIP3    H235261   0.983   2.870   1.367  0.9482 -1.7394 -0.8262
 4568TIP3   OH235262   1.596   0.977   2.016  0.2076 -0.2605 -0.1369
 4568TIP3    H135263   1.690   0.979   1.999  0.0095  1.2882 -1.2000
 4568TIP3    H235264   1.562   1.051   1.966 -1.3836  0.0598  1.3699
 4569TIP3   OH235265   2.146   2.804   8.245  0.1185 -0.0069  0.1440
 4569TIP3    H135266   2.103   2.871   8.299  0.6888  0.7220 -0.3010
 4569TIP3    H235267   2.232   2.840   8.226 -0.5487  0.3510 -2.3924
 4570TIP3   OH235268   1.837   6.303   6.761  0.0489 -0.1235  0.7375
 4570TIP3    H135269   1.857   6.388   6.801  0.1291  0.0611  0.3029
 4570TIP3    H235270   1.923   6.263   6.745  0.0021 -0.4735  1.3419
 4571TIP3   OH235271   2.912   3.667   1.219 -0.5570  0.2245  0.1133
 4571TIP3    H135272   2.862   3.727   1.164 -2.4204  0.1256  1.6411
 4571TIP3    H235273   2.884   3.580   1.191 -0.6821  0.1569  0.4410
 4572TIP3   OH235274   5.894   4.257   1.876  0.3196  0.1646  0.4573
 4572TIP3    H135275   5.859   4.201   1.807  2.6179 -0.7857  0.0389
 4572TIP3    H235276   5.818   4.277   1.931 -1.1742 -0.6030 -1.2609
 4573TIP3   OH235277   1.937   0.591   1.745  0.2585 -0.0335  0.2546
 4573TIP3    H135278   1.927   0.615   1.653 -1.9655  0.0793  0.4950
 4573TIP3    H235279   1.848   0.586   1.778  0.9823 -1.4021  2.0770
 4574TIP3   OH235280   1.117   5.366   1.665 -0.0229 -0.2896  0.0099
 4574TIP3    H135281   1.108   5.439   1.603  0.3792 -0.6030 -0.4305
 4574TIP3    H235282   1.173   5.401   1.735 -1.0574  0.2837  0.5525
 4575TIP3   OH235283   0.688   1.203   2.365 -0.2970  0.3221 -0.2395
 4575TIP3    H135284   0.717   1.120   2.403  0.2994  0.5986 -0.0750
 4575TIP3    H235285   0.669   1.259   2.440 -0.7003  0.3363 -0.3503
 4576TIP3   OH235286   1.693   1.387   2.189  0.3255 -0.5305  0.0426
 4576TIP3    H135287   1.711   1.335   2.267  1.6027 -1.1526 -0.6516
 4576TIP3    H235288   1.765   1.449   2.184  1.4085 -1.8918 -1.8001
 4577TIP3   OH235289   1.604   2.002   0.652  0.8402  0.2883  0.1850
 4577TIP3    H135290   1.581   1.917   0.690  0.4847 -1.3361 -3.4106
 4577TIP3    H235291   1.533   2.060   0.678 -1.5414 -1.8275 -1.4032
 4578TIP3   OH235292   6.351   2.710   6.786 -0.5263 -0.3677 -0.4430
 4578TIP3    H135293   6.379   2.780   6.844 -1.1185 -1.8023  1.6207
 4578TIP3    H235294   6.270   2.743   6.747  0.9018  1.4108 -2.0333
 4579TIP3   OH235295   6.409   3.757   1.692 -0.0032  0.0103 -0.4731
 4579TIP3    H135296   6.494   3.792   1.666 -1.1158  2.2600 -1.1904
 4579TIP3    H235297   6.396   3.681   1.635  0.8339  0.5808 -1.4304
 4580TIP3   OH235298   1.131   2.594   0.232 -0.0405 -0.8105 -0.3566
 4580TIP3    H135299   1.226   2.607   0.235 -0.1229  0.1079 -1.1825
 4580TIP3    H235300   1.106   2.628   0.146 -1.6171  2.3789  1.2873
 4581TIP3   OH235301   0.075   1.150   7.773  0.5337 -0.3757 -0.4282
 4581TIP3    H135302   0.105   1.228   7.819 -1.0888 -0.4385  0.7834
 4581TIP3    H235303   0.051   1.182   7.686 -1.1039  0.7157  0.3912
 4582TIP3   OH235304   1.948   2.739   1.666  0.2269  0.2355 -0.6229
 4582TIP3    H135305   1.957   2.645   1.653  0.2650  0.3730 -1.6543
 4582TIP3    H235306   2.037   2.769   1.688  0.4090  0.1669 -1.2504
 4583TIP3   OH235307   1.603   1.977   1.006  0.7239  0.5935  0.0483
 4583TIP3    H135308   1.537   2.019   1.062  1.7789  0.9026  1.0801
 4583TIP3    H235309   1.552   1.925   0.944 -0.4920  0.7815  0.8713
 4584TIP3   OH235310   0.162   3.673   1.127 -0.2904  0.6708  0.0615
 4584TIP3    H135311   0.128   3.655   1.039  0.0341  0.1603  0.0356
 4584TIP3    H235312   0.157   3.588   1.172  2.8227  0.0913 -0.5782
 4585TIP3   OH235313   1.895   3.097   7.769  0.3304 -0.0610 -0.2152
 4585TIP3    H135314   1.822   3.129   7.822  0.2503 -1.0726  0.3007
 4585TIP3    H235315   1.889   3.002   7.775  1.2528 -0.1626 -0.7793
 4586TIP3   OH235316   6.628   0.756   7.025 -0.0196 -0.2434  0.3047
 4586TIP3    H135317   6.583   0.733   6.944 -0.9497  0.6536  0.5536
 4586TIP3    H235318   6.720   0.765   7.000 -0.1925 -0.7037 -0.4919
 4587TIP3   OH235319   2.394   2.271   0.807 -0.3698 -0.0883  0.4572
 4587TIP3    H135320   2.398   2.295   0.715  0.9460 -0.6151  0.3652
 4587TIP3    H235321   2.315   2.315   0.840 -0.7448  0.2497 -0.8630
 4588TIP3   OH235322   2.016   4.282   1.724 -0.3920  0.5384 -0.4242
 4588TIP3    H135323   2.011   4.186   1.719  0.1075  0.5428 -1.0489
 4588TIP3    H235324   2.037   4.301   1.815  2.3596 -0.0624 -0.8874
 4589TIP3   OH235325   1.915   1.507   1.429 -0.0608 -0.4539 -0.3680
 4589TIP3    H135326   1.920   1.416   1.459  0.7990 -0.2206  0.2187
 4589TIP3    H235327   1.914   1.559   1.509  1.6598  0.1402 -0.7149
 4590TIP3   OH235328   2.528   2.837   6.797 -0.4447  0.2195 -0.4858
 4590TIP3    H135329   2.515   2.785   6.718 -0.0008 -1.6933  0.6711
 4590TIP3    H235330   2.551   2.924   6.765  1.8964 -1.0811 -2.4722
 4591TIP3   OH235331   6.923   0.768   7.096  0.2595 -0.0812 -0.2466
 4591TIP3    H135332   6.914   0.852   7.139  3.0819  0.6729 -1.0383
 4591TIP3    H235333   7.008   0.734   7.126 -0.7108 -2.5235 -0.1347
 4592TIP3   OH235334   1.515   2.530   0.431 -0.0468 -0.0637  0.3267
 4592TIP3    H135335   1.601   2.514   0.471  0.5655  0.3787 -0.8109
 4592TIP3    H235336   1.492   2.447   0.390  1.1101  0.6243 -1.7565
 4593TIP3   OH235337   6.619   1.814   1.647  0.0738 -0.1278  0.0586
 4593TIP3    H135338   6.536   1.790   1.687 -1.2183 -0.2400 -2.5723
 4593TIP3    H235339   6.620   1.909   1.647  0.9668 -0.1143  2.0573
 4594TIP3   OH235340   1.468   3.714   2.601 -0.1963 -0.3676  0.4193
 4594TIP3    H135341   1.473   3.748   2.690  2.0946  0.0293  0.1683
 4594TIP3    H235342   1.512   3.779   2.547 -2.8274  0.0932 -1.2546
 4595TIP3   OH235343   1.410   2.235   1.041  0.5217 -0.8316 -0.3815
 4595TIP3    H135344   1.383   2.230   1.133 -0.1747 -0.9472 -0.5935
 4595TIP3    H235345   1.486   2.294   1.042  0.0471 -0.2212  0.1700
 4596TIP3   OH235346   1.823   2.137   1.998  0.0168  0.0228  0.2675
 4596TIP3    H135347   1.874   2.082   1.940 -1.0238 -1.7822  1.0163
 4596TIP3    H235348   1.859   2.121   2.085  1.9319  3.1167  0.1214
 4597TIP3   OH235349   1.275   3.676   1.603  0.0323 -0.1440 -0.1864
 4597TIP3    H135350   1.319   3.705   1.683 -1.3345  1.3105  0.0363
 4597TIP3    H235351   1.345   3.672   1.538  0.9455 -0.2491  0.7804
 4598TIP3   OH235352   6.127   1.608   1.240 -0.3949 -0.3884 -0.0143
 4598TIP3    H135353   6.194   1.578   1.179  0.5160 -1.5878  1.5335
 4598TIP3    H235354   6.050   1.555   1.219 -0.4395  0.0131 -0.8756
 4599TIP3   OH235355   2.204   1.855   7.709  0.0576 -0.3751 -0.7514
 4599TIP3    H135356   2.127   1.810   7.745  0.9544 -0.3122  1.3320
 4599TIP3    H235357   2.268   1.785   7.696  0.8944  0.0401  0.9741
 4600TIP3   OH235358   1.500   3.311   8.419 -0.2026  0.4724 -0.3653
 4600TIP3    H135359   1.406   3.322   8.407 -0.3621  0.2136  0.6048
 4600TIP3    H235360   1.523   3.376   8.485  0.1038 -0.1906  0.1894
 4601TIP3   OH235361   2.045   0.245   0.026  0.6174  0.1606 -0.9999
 4601TIP3    H135362   1.969   0.204  -0.013  1.1167 -1.3274 -0.4215
 4601TIP3    H235363   2.064   0.320  -0.031 -1.1785  0.4617 -1.2137
 4602TIP3   OH235364   0.692   1.619   0.219  0.2200 -0.1855  0.3333
 4602TIP3    H135365   0.785   1.604   0.200  0.7556  1.7696  1.3000
 4602TIP3    H235366   0.691   1.699   0.271 -1.8834 -1.1509  1.8312
 4603TIP3   OH235367   3.686   1.450   1.037 -0.6008  0.4117 -0.0853
 4603TIP3    H135368   3.768   1.427   0.994  0.3172 -0.5526  2.1057
 4603TIP3    H235369   3.698   1.541   1.066 -0.2133  0.1751  0.4828
 4604TIP3   OH235370   0.420   3.201   1.819 -0.0447 -0.0730  0.4577
 4604TIP3    H135371   0.348   3.138   1.811  0.9832 -1.0598 -1.1433
 4604TIP3    H235372   0.434   3.209   1.914 -3.3731  1.4462  0.8883
 4605TIP3   OH235373   1.560   2.642   1.568  0.0916  0.1537 -0.1311
 4605TIP3    H135374   1.526   2.571   1.514  0.7604  0.0673 -0.4391
 4605TIP3    H235375   1.575   2.601   1.654  1.5057 -0.3496 -0.6083
 4606TIP3   OH235376   7.135   0.358   0.162  0.1417 -0.3416 -0.4299
 4606TIP3    H135377   7.100   0.374   0.074  0.9513 -0.8620 -0.8606
 4606TIP3    H235378   7.196   0.430   0.177 -0.8575  0.3800  0.1810
 4607TIP3   OH235379   5.278   0.622   1.202 -0.0262 -0.1582  0.2903
 4607TIP3    H135380   5.355   0.678   1.208  0.7351 -1.0453 -1.0964
 4607TIP3    H235381   5.226   0.659   1.131 -0.7866  0.3148  1.0830
 4608TIP3   OH235382   1.748   4.681   0.570 -0.3924  0.1256 -0.7201
 4608TIP3    H135383   1.661   4.671   0.531  0.2012 -0.4264 -1.9363
 4608TIP3    H235384   1.733   4.677   0.664 -1.6629 -0.1348 -0.9246
 4609TIP3   OH235385   2.128   3.062   1.533  0.1890 -0.1626 -0.3832
 4609TIP3    H135386   2.052   3.089   1.585 -0.4541 -2.0499 -0.3248
 4609TIP3    H235387   2.201   3.066   1.595 -0.1308  0.0994 -0.0167
 4610TIP3   OH235388   6.665   4.409   1.198 -0.4625 -0.1566  0.5548
 4610TIP3    H135389   6.596   4.345   1.215  0.7101 -1.5564  0.1612
 4610TIP3    H235390   6.709   4.377   1.119 -0.7599  1.9234 -0.4861
 4611TIP3   OH235391   1.939   1.969   1.764  0.0072 -0.1804  0.1726
 4611TIP3    H135392   1.982   1.964   1.678  0.4968  1.4390  0.3063
 4611TIP3    H235393   2.002   1.930   1.825  0.5469  0.5473  0.0948
 4612TIP3   OH235394   3.831   3.955   0.274 -0.0510 -0.0535 -0.2913
 4612TIP3    H135395   3.810   3.945   0.181 -0.0986 -1.0300 -0.1807
 4612TIP3    H235396   3.757   4.003   0.310 -0.4931 -0.5103 -0.5777
 4613TIP3   OH235397   6.891   4.530   0.529  0.5911  0.7152  0.1351
 4613TIP3    H135398   6.966   4.590   0.539  1.3631 -0.1052 -0.6201
 4613TIP3    H235399   6.863   4.543   0.438  0.1728  0.5937  0.2457
 4614TIP3   OH235400   2.540   2.908   8.489  0.2195  0.3175 -0.0354
 4614TIP3    H135401   2.485   2.846   8.538 -0.0019  1.0851  0.6987
 4614TIP3    H235402   2.562   2.862   8.408 -0.8719 -0.3004  0.0081
 4615TIP3   OH235403   0.952   3.639   0.503  0.1743 -0.1848  0.5422
 4615TIP3    H135404   0.926   3.560   0.455  0.0040  0.0422  0.2529
 4615TIP3    H235405   0.982   3.699   0.434 -3.0862  1.3391  0.3407
 4616TIP3   OH235406   1.711   1.398   1.212 -0.1877  0.6985  0.2702
 4616TIP3    H135407   1.731   1.308   1.240  0.1830  1.1095  1.3196
 4616TIP3    H235408   1.619   1.410   1.235 -0.7109  0.0256 -1.3773
 4617TIP3   OH235409   0.529   5.556   0.564 -0.8647 -0.1033 -0.0851
 4617TIP3    H135410   0.603   5.542   0.624 -1.1846 -0.3758  0.2495
 4617TIP3    H235411   0.465   5.489   0.589 -0.7113 -0.6745 -1.2058
 4618TIP3   OH235412   6.472   2.957   1.640  0.0670  0.6399  0.0162
 4618TIP3    H135413   6.492   3.048   1.661 -0.5021  1.3286 -2.3676
 4618TIP3    H235414   6.414   2.961   1.565 -1.7496 -1.6301  1.2117
 4619TIP3   OH235415   1.523   4.042   7.234  0.3180 -0.6166  0.2354
 4619TIP3    H135416   1.519   4.057   7.328  0.5309 -2.9327  0.6332
 4619TIP3    H235417   1.461   3.971   7.218  2.1302 -1.9654 -0.9824
 4620TIP3   OH235418   0.127   5.175   1.808  0.7827  0.1074 -0.0128
 4620TIP3    H135419   0.122   5.249   1.747  0.7191 -0.5879 -0.8707
 4620TIP3    H235420   0.072   5.200   1.882 -0.3367  0.3588 -0.9193
 4621TIP3   OH235421   1.604   1.126   0.010  0.4258 -0.2881  0.4120
 4621TIP3    H135422   1.635   1.200  -0.042 -0.7247  0.3873  0.6670
 4621TIP3    H235423   1.510   1.124  -0.007 -0.3945  1.4328  4.3168
 4622TIP3   OH235424   5.585   1.372   1.266  0.4502  0.1869 -0.0636
 4622TIP3    H135425   5.508   1.386   1.321 -0.1938 -1.7964 -0.4152
 4622TIP3    H235426   5.592   1.451   1.213 -2.2244 -0.1881 -1.0568
 4623TIP3   OH235427   1.861   4.054   7.439  0.0466 -0.2154  0.7904
 4623TIP3    H135428   1.789   3.993   7.424  0.6166 -0.7108  0.0483
 4623TIP3    H235429   1.840   4.130   7.384  0.1042 -0.3718  0.5519
 4624TIP3   OH235430   7.160   3.474   1.938 -0.1988 -0.0972 -0.0906
 4624TIP3    H135431   7.218   3.403   1.910 -1.6864 -0.9778 -0.9887
 4624TIP3    H235432   7.102   3.488   1.864 -1.0029  0.9253  0.7227
 4625TIP3   OH235433   0.997   4.230   8.429  0.5010 -0.4937  0.7015
 4625TIP3    H135434   0.948   4.262   8.354  0.3865  0.4794  1.1934
 4625TIP3    H235435   1.028   4.143   8.402  2.2446  0.6971 -1.2719
 4626TIP3   OH235436   1.749   2.879   8.288 -0.4879 -0.1174  0.7255
 4626TIP3    H135437   1.812   2.947   8.264 -1.7312  1.9383  3.0558
 4626TIP3    H235438   1.785   2.839   8.367  0.3487 -2.4225 -0.7389
 4627TIP3   OH235439   0.305   2.753   0.128 -0.2411  0.3458  0.1664
 4627TIP3    H135440   0.318   2.845   0.103  1.4094  0.4005  1.1502
 4627TIP3    H235441   0.224   2.753   0.179 -1.1633  0.9720 -1.2793
 4628TIP3   OH235442   3.296   2.445   1.943  0.0872  0.0658  0.1358
 4628TIP3    H135443   3.282   2.368   1.999  1.3927  0.3964  0.9347
 4628TIP3    H235444   3.237   2.512   1.979 -0.3315 -0.2503  0.0417
 4629TIP3   OH235445   1.105   3.759   0.319 -0.0939  0.2265  0.5874
 4629TIP3    H135446   1.154   3.679   0.337 -2.1455 -0.9342  1.2802
 4629TIP3    H235447   1.150   3.799   0.246  0.3342 -2.1817 -0.5347
 4630TIP3   OH235448   1.929   3.658   1.830  0.0893 -0.0500  0.0291
 4630TIP3    H135449   1.891   3.654   1.918  1.6663 -2.1085  0.6586
 4630TIP3    H235450   1.853   3.656   1.771 -0.9248 -0.5845  1.3192
 4631TIP3   OH235451   1.394   1.371   1.585  0.6704  0.5224  0.2061
 4631TIP3    H135452   1.488   1.360   1.575  0.7148  0.4448  0.6898
 4631TIP3    H235453   1.378   1.356   1.678 -0.0688 -1.2138 -0.1971
 4632TIP3   OH235454   0.980   0.604   1.415  0.2023  0.3794 -0.2915
 4632TIP3    H135455   1.048   0.670   1.401 -0.3746  1.0907  0.2269
 4632TIP3    H235456   1.025   0.533   1.462  0.2269  1.5705  1.5543
 4633TIP3   OH235457   1.094   4.574   0.628 -0.0672  0.2236  0.0158
 4633TIP3    H135458   1.144   4.643   0.584 -0.0338  0.3048  0.1822
 4633TIP3    H235459   1.097   4.597   0.721  0.8274 -0.5541  0.1957
 4634TIP3   OH235460   1.836   0.204   7.883 -0.6455 -0.2544  0.2326
 4634TIP3    H135461   1.855   0.110   7.888 -0.9976 -0.3187  0.3896
 4634TIP3    H235462   1.802   0.226   7.970 -0.0533  0.1332  0.3712
 4635TIP3   OH235463   1.687   3.027   1.871  0.3644  0.1062 -0.3986
 4635TIP3    H135464   1.611   3.045   1.926  0.6566  0.8723 -0.2402
 4635TIP3    H235465   1.657   2.960   1.810 -0.4689  0.4907 -0.4170
 4636TIP3   OH235466   1.784   3.251   1.355 -0.8775  0.2066 -0.1282
 4636TIP3    H135467   1.870   3.208   1.354 -0.3596  1.2213 -2.1370
 4636TIP3    H235468   1.780   3.293   1.441  1.5657  1.9008 -0.7742
 4637TIP3   OH235469   0.129   4.516   1.671 -0.0172  0.7693  0.3302
 4637TIP3    H135470   0.077   4.544   1.746  0.1049 -0.5656  0.9166
 4637TIP3    H235471   0.218   4.544   1.691 -0.4423  2.9206 -0.6051
 4638TIP3   OH235472   0.169   3.044   0.513  0.4699  0.4772  0.8210
 4638TIP3    H135473   0.105   3.040   0.583 -0.0310  2.6825  0.5206
 4638TIP3    H235474   0.236   3.105   0.544  0.2818  1.4140 -0.5484
 4639TIP3   OH235475   1.250   6.030   0.737 -0.6536  0.2086 -0.4075
 4639TIP3    H135476   1.244   6.023   0.832 -1.1387 -0.2982 -0.4752
 4639TIP3    H235477   1.164   6.004   0.705 -0.9657  1.7973 -0.9210
 4640TIP3   OH235478   0.839   3.416   0.309 -0.5885  0.0373  0.0106
 4640TIP3    H135479   0.898   3.347   0.277  0.5362  0.5412  0.9523
 4640TIP3    H235480   0.757   3.370   0.329 -0.0388 -0.9291  0.0691
 4641TIP3   OH235481   3.248   1.917   8.469 -0.0948  0.0736  0.4463
 4641TIP3    H135482   3.184   1.979   8.436  0.8149 -0.1203 -1.8200
 4641TIP3    H235483   3.196   1.847   8.509 -1.1647  1.5134  1.6108
 4642TIP3   OH235484   0.507   3.339   2.370 -0.2454 -0.2311  0.3488
 4642TIP3    H135485   0.585   3.336   2.315 -0.4692  0.6195 -0.0230
 4642TIP3    H235486   0.478   3.430   2.366 -0.1131 -0.1083  2.1116
 4643TIP3   OH235487   3.425   2.762   8.209 -0.0885  0.2752 -0.2325
 4643TIP3    H135488   3.444   2.839   8.263 -0.4187  0.5178 -0.4608
 4643TIP3    H235489   3.335   2.739   8.232  0.2263 -0.4329  0.3108
 4644TIP3   OH235490   0.776   1.903   0.250  0.0800 -0.4212 -0.0352
 4644TIP3    H135491   0.739   1.941   0.330 -0.8124 -0.3429 -0.4752
 4644TIP3    H235492   0.719   1.936   0.180 -0.1014 -1.7802 -0.5320
 4645TIP3   OH235493   6.935   0.727   7.747 -0.3297  0.7941  0.2058
 4645TIP3    H135494   6.954   0.645   7.702  1.3239  0.7384  0.9783
 4645TIP3    H235495   6.889   0.700   7.827  0.8046  0.5623  0.7875
 4646TIP3   OH235496   0.131   2.456   7.726  0.2118  0.3872 -0.4348
 4646TIP3    H135497   0.158   2.534   7.774 -1.4945  0.1022  1.0475
 4646TIP3    H235498   0.057   2.486   7.673  1.3183  0.4092 -2.0108
 4647TIP3   OH235499   1.425   2.359   2.700  0.4216 -0.2913  0.7670
 4647TIP3    H135500   1.386   2.334   2.784 -1.1391  1.1985  0.5212
 4647TIP3    H235501   1.503   2.305   2.693  1.4313  0.5999  3.9171
 4648TIP3   OH235502   0.985   2.988   2.215 -0.1296 -0.7028  0.2317
 4648TIP3    H135503   0.950   2.919   2.272 -0.9302 -0.4675  0.0395
 4648TIP3    H235504   1.061   2.948   2.173  0.2182 -1.0060  1.1576
 4649TIP3   OH235505   0.216   1.882   2.438  0.3400  0.0291 -0.5897
 4649TIP3    H135506   0.199   1.813   2.373  1.5637  0.3006 -1.2028
 4649TIP3    H235507   0.137   1.936   2.437 -1.7100 -2.7501  1.6849
 4650TIP3   OH235508   6.562   2.336   1.198 -0.0040 -0.3746  0.2982
 4650TIP3    H135509   6.498   2.397   1.234 -1.9727 -1.4560 -1.2485
 4650TIP3    H235510   6.522   2.305   1.117  2.4214 -1.2249 -0.6199
 4651TIP3   OH235511   6.651   4.276   1.541 -0.3694 -0.0997 -0.3219
 4651TIP3    H135512   6.694   4.192   1.558 -2.1669 -1.1124 -0.6240
 4651TIP3    H235513   6.611   4.266   1.455 -1.0184  0.8906 -0.1518
 4652TIP3   OH235514   2.484   1.854   1.796  0.1832  0.2918 -0.0023
 4652TIP3    H135515   2.449   1.815   1.716  0.5884 -0.7321  0.3243
 4652TIP3    H235516   2.407   1.862   1.853  0.2347 -0.7426  0.2203
 4653TIP3   OH235517   0.717   2.149   7.226  0.3858 -0.4543  0.9321
 4653TIP3    H135518   0.672   2.214   7.280 -0.0736 -0.7430  0.8938
 4653TIP3    H235519   0.663   2.140   7.147 -0.0380 -1.5341  1.3276
 4654TIP3   OH235520   0.356   1.958   2.665 -0.0525 -0.0598  0.0335
 4654TIP3    H135521   0.412   2.030   2.636  1.3419 -1.4889 -0.8475
 4654TIP3    H235522   0.310   1.929   2.586  0.4080 -1.0229  0.1141
 4655TIP3   OH235523   1.835   0.042   0.134 -0.6600  0.2944  0.4186
 4655TIP3    H135524   1.797   0.118   0.089 -2.4851 -0.7434  0.1642
 4655TIP3    H235525   1.891   0.001   0.068 -0.6392  0.7059  0.1766
 4656TIP3   OH235526   1.337   3.826   7.459 -0.7984  0.1338  0.4475
 4656TIP3    H135527   1.373   3.738   7.469 -3.1939 -0.7406  1.8791
 4656TIP3    H235528   1.409   3.884   7.484  0.5722 -1.4257  0.2532
 4657TIP3   OH235529   2.320   2.776   1.436  0.5075 -0.2918 -0.4758
 4657TIP3    H135530   2.362   2.863   1.434 -2.8378  1.4445  0.9283
 4657TIP3    H235531   2.338   2.744   1.524  0.1726 -0.1870 -0.3677
 4658TIP3   OH235532   7.222   3.189   1.808 -0.1100 -0.4411 -1.0104
 4658TIP3    H135533   7.274   3.137   1.870 -1.1041  0.7404  0.8767
 4658TIP3    H235534   7.140   3.140   1.800 -0.8445  0.5349  0.3648
 4659TIP3   OH235535   0.590   3.482   1.287  0.5232 -0.0702 -0.2658
 4659TIP3    H135536   0.603   3.555   1.226  1.3337 -0.8423 -1.0246
 4659TIP3    H235537   0.535   3.420   1.239  0.0671 -0.0819  0.2740
 4660TIP3   OH235538   3.307   0.674   0.987  0.2242  0.3761 -0.8721
 4660TIP3    H135539   3.284   0.749   0.933  0.0460  1.6958  0.9822
 4660TIP3    H235540   3.388   0.699   1.031 -1.6314  0.9660  2.4265
 4661TIP3   OH235541   0.885   4.595   0.343  0.7545  0.0809 -0.0785
 4661TIP3    H135542   0.940   4.586   0.266 -0.2458 -0.0440 -0.7792
 4661TIP3    H235543   0.871   4.690   0.351  0.5606  0.0658 -0.2529
 4662TIP3   OH235544   2.163   2.052   7.522  0.0772  0.1404 -0.5214
 4662TIP3    H135545   2.237   2.032   7.465 -0.7693 -1.3891 -1.1247
 4662TIP3    H235546   2.174   1.993   7.597 -2.0020 -2.1411 -1.9298
 4663TIP3   OH235547   7.290   5.402   0.123  0.1339  0.1037 -0.7581
 4663TIP3    H135548   7.350   5.339   0.083  0.4351  0.0841 -0.2783
 4663TIP3    H235549   7.343   5.450   0.186 -0.3529  0.0813 -0.3242
 4664TIP3   OH235550   6.490   4.786   0.943  0.0577  0.0131 -0.8850
 4664TIP3    H135551   6.558   4.777   1.009 -0.9380  2.2146  0.4935
 4664TIP3    H235552   6.538   4.797   0.860  1.3432 -0.4764 -0.2148
 4665TIP3   OH235553   1.388   4.270   1.781  0.0014  0.0436 -0.1938
 4665TIP3    H135554   1.317   4.293   1.721 -0.6773  0.0978  0.6225
 4665TIP3    H235555   1.408   4.179   1.759  0.8478  0.5510 -1.5834
 4666TIP3   OH235556   1.723   3.327   2.169 -0.2268 -0.4958  0.5759
 4666TIP3    H135557   1.651   3.294   2.223 -1.0638 -2.4033 -1.6147
 4666TIP3    H235558   1.721   3.422   2.181 -2.7664 -0.5810  0.9846
 4667TIP3   OH235559   1.506   1.981   1.448  0.1997  0.1664  0.1384
 4667TIP3    H135560   1.413   1.970   1.468  0.1001  1.2703  0.3134
 4667TIP3    H235561   1.545   2.008   1.530  0.4640  0.9078 -0.2285
 4668TIP3   OH235562   1.717   1.933   1.260  0.5769  0.0863  0.1112
 4668TIP3    H135563   1.647   1.952   1.323  0.4908 -1.4289  0.5086
 4668TIP3    H235564   1.673   1.931   1.175  0.2667 -0.1593  0.2750
 4669TIP3   OH235565   1.483   1.104   1.488  0.6350  0.3257 -0.2401
 4669TIP3    H135566   1.551   1.127   1.552  1.8442  1.1951 -1.8244
 4669TIP3    H235567   1.455   1.188   1.452  0.9401 -0.2569 -1.8536
 4670TIP3   OH235568   1.494   3.013   2.096  0.1017  0.0079  0.1652
 4670TIP3    H135569   1.403   2.984   2.087  0.1613 -0.3779  0.7930
 4670TIP3    H235570   1.539   2.938   2.134  0.2218  0.9937  1.9859
 4671TIP3   OH235571   2.149   2.647   8.021 -0.1864 -0.3594 -0.5558
 4671TIP3    H135572   2.107   2.704   8.087 -0.8181 -0.8915 -0.4919
 4671TIP3    H235573   2.177   2.707   7.953  0.6135  0.2213  0.2742
 4672TIP3   OH235574   1.840   2.112   1.004 -0.3209  1.0568  0.0042
 4672TIP3    H135575   1.816   2.200   1.032  0.5978  0.9636  1.1058
 4672TIP3    H235576   1.759   2.061   1.013 -0.2273  1.2022  1.7597
 4673TIP3   OH235577   1.664   1.660   1.622  0.6077 -1.0456 -0.5910
 4673TIP3    H135578   1.653   1.569   1.594 -1.2961 -0.0920 -3.1518
 4673TIP3    H235579   1.576   1.698   1.617  1.6838  1.4529 -1.4538
 4674TIP3   OH235580   1.559   4.102   0.234  0.0558  0.3577  1.3223
 4674TIP3    H135581   1.619   4.153   0.288 -0.7468  2.8247  0.0008
 4674TIP3    H235582   1.581   4.127   0.144 -1.4145 -0.4530  0.7165
 4675TIP3   OH235583   7.151   4.190   1.451 -0.0266 -0.6873  0.6297
 4675TIP3    H135584   7.158   4.120   1.386  1.5237 -0.4848  0.5658
 4675TIP3    H235585   7.100   4.258   1.407  0.9727 -0.5722 -0.3514
 4676TIP3   OH235586   2.949   4.368   0.384 -0.4669  0.7038  0.6147
 4676TIP3    H135587   3.008   4.443   0.390  0.2830  0.1483  0.3908
 4676TIP3    H235588   3.005   4.292   0.403 -0.7343  0.0154 -1.1494
 4677TIP3   OH235589   2.300   2.049   2.183  0.7043 -0.3977 -0.0294
 4677TIP3    H135590   2.307   1.993   2.260  1.1496 -1.5949 -0.9309
 4677TIP3    H235591   2.258   2.128   2.215 -2.4373 -2.2973  0.7359
 4678TIP3   OH235592   6.586   2.867   1.306  0.8527  0.5707  0.0936
 4678TIP3    H135593   6.650   2.808   1.267  2.1637  2.2197 -0.3313
 4678TIP3    H235594   6.502   2.825   1.291  1.7257 -1.0021 -0.4974
 4679TIP3   OH235595   0.923   1.698   1.885 -0.7237 -0.6500 -0.5170
 4679TIP3    H135596   0.936   1.732   1.974 -0.8680 -1.9778  0.0292
 4679TIP3    H235597   0.830   1.711   1.868 -0.9839 -1.6540  0.0813
 4680TIP3   OH235598   1.934   1.889   2.224 -0.3449  0.0877 -0.1508
 4680TIP3    H135599   2.007   1.850   2.272 -0.3072  0.1186 -0.1828
 4680TIP3    H235600   1.947   1.984   2.235  0.3703  0.1243 -1.2895
 4681TIP3   OH235601   0.287   1.802   1.396 -0.2253  0.2947 -0.4679
 4681TIP3    H135602   0.287   1.892   1.364 -1.0759  0.3264 -0.3756
 4681TIP3    H235603   0.270   1.810   1.490 -0.1412  0.0441 -0.4308
 4682TIP3   OH235604   1.524   3.469   1.953  0.0332 -0.6418  0.3532
 4682TIP3    H135605   1.478   3.390   1.924  0.3011 -1.3901  1.9371
 4682TIP3    H235606   1.617   3.448   1.945  0.1068 -0.5538  0.9668
 4683TIP3   OH235607   6.825   3.096   1.086  0.2166 -0.2434 -0.3622
 4683TIP3    H135608   6.893   3.137   1.139  0.1926 -2.2020  1.2555
 4683TIP3    H235609   6.751   3.156   1.090  0.9226  0.5996  0.1145
 4684TIP3   OH235610   2.113   1.732   1.592  0.6632 -0.3150  0.0461
 4684TIP3    H135611   2.199   1.696   1.612  1.5694  1.7959  0.0587
 4684TIP3    H235612   2.054   1.687   1.652  2.2058  0.3772  2.1250
 4685TIP3   OH235613   3.242   2.347   1.275  0.6185 -0.3937 -0.2976
 4685TIP3    H135614   3.335   2.358   1.253  0.8675  1.6682  1.5956
 4685TIP3    H235615   3.242   2.283   1.346  0.5994 -0.3452 -0.2542
 4686TIP3   OH235616   6.931   2.753   1.567  0.5740  0.4178  0.6813
 4686TIP3    H135617   7.005   2.776   1.511  0.5753 -0.6877  0.2226
 4686TIP3    H235618   6.870   2.827   1.556 -0.7854 -1.1514 -3.2315
 4687TIP3   OH235619   1.442   1.733   1.286 -0.4338  0.3801 -0.4829
 4687TIP3    H135620   1.449   1.799   1.355 -1.3110  0.1949 -0.2030
 4687TIP3    H235621   1.370   1.676   1.315 -1.6899  1.0691 -2.1784
 4688TIP3   OH235622   3.832   1.987   7.623  0.2520  0.1359 -0.3188
 4688TIP3    H135623   3.860   1.933   7.697 -0.6232  0.4960  0.2795
 4688TIP3    H235624   3.881   2.069   7.634  2.6835 -1.0341 -2.0340
 4689TIP3   OH235625   1.498   1.776   1.987  0.2942 -0.5830 -0.5904
 4689TIP3    H135626   1.460   1.704   2.038  0.5221 -1.0102 -1.0253
 4689TIP3    H235627   1.555   1.821   2.049  1.1470 -1.5484 -0.6552
 4690TIP3   OH235628   2.243   3.677   1.325 -0.0289  0.3969  0.3752
 4690TIP3    H135629   2.256   3.649   1.234 -1.0021 -1.1219  0.6849
 4690TIP3    H235630   2.312   3.741   1.340 -0.5857  1.5793 -1.8059
 4691TIP3   OH235631   1.535   2.781   1.876  0.7660 -0.0654  0.1217
 4691TIP3    H135632   1.534   2.687   1.858  1.3982 -0.4416  1.9524
 4691TIP3    H235633   1.504   2.788   1.966  0.0336  1.5488 -0.2387
 4692TIP3   OH235634   7.288   3.224   2.584 -0.1818 -0.5403 -0.0579
 4692TIP3    H135635   7.261   3.147   2.534  1.7025 -1.5491  0.4011
 4692TIP3    H235636   7.227   3.228   2.658 -0.6573 -1.2337 -0.4103
 4693TIP3   OH235637   1.274   1.171   1.739 -0.2176  0.5801  0.7060
 4693TIP3    H135638   1.210   1.100   1.746  0.9533 -0.9385 -2.8180
 4693TIP3    H235639   1.260   1.208   1.651  3.9891 -0.1222 -0.3706
 4694TIP3   OH235640   1.812   2.469   0.912 -0.4607 -0.2138 -0.0578
 4694TIP3    H135641   1.750   2.426   0.972 -1.0452  0.5023 -0.1386
 4694TIP3    H235642   1.897   2.459   0.955 -0.5571 -1.5994 -0.1613
 4695TIP3   OH235643   6.528   5.520   2.012 -0.3055  1.0192  0.0683
 4695TIP3    H135644   6.604   5.525   2.070 -1.4538 -0.8844  1.8053
 4695TIP3    H235645   6.552   5.454   1.947 -0.3965  0.5197  0.5340
 4696TIP3   OH235646   1.554   0.611   1.582 -0.2243  0.8107  0.5434
 4696TIP3    H135647   1.479   0.647   1.630 -1.1562  0.0103 -0.2832
 4696TIP3    H235648   1.620   0.680   1.586 -1.2579  1.8190  0.6877
 4697TIP3   OH235649   1.433   5.537   8.091  0.7030 -0.0250 -0.1869
 4697TIP3    H135650   1.453   5.447   8.063  1.2994 -0.7963  2.5429
 4697TIP3    H235651   1.356   5.561   8.039 -0.3421 -2.6530  0.0288
 4698TIP3   OH235652   6.345   4.521   1.050 -0.2422  0.0960  0.1739
 4698TIP3    H135653   6.404   4.592   1.025  0.5091 -0.6694 -0.2384
 4698TIP3    H235654   6.296   4.556   1.125 -0.7412  1.4831 -0.7829
 4699TIP3   OH235655   1.845   6.098   8.424  0.0493  0.1669  0.4132
 4699TIP3    H135656   1.845   6.132   8.335 -0.7792 -0.0445  0.3273
 4699TIP3    H235657   1.937   6.080   8.443  0.2144  0.0593 -0.4585
 4700TIP3   OH235658   7.072   4.721   0.576  0.5061 -0.0803  0.2672
 4700TIP3    H135659   7.110   4.756   0.495  0.2404  0.3371  0.3234
 4700TIP3    H235660   7.040   4.798   0.623 -0.1918 -0.4145  0.3369
 4701TIP3   OH235661   1.689   6.166   1.369  0.3269 -0.1101 -0.1511
 4701TIP3    H135662   1.698   6.071   1.373  0.0307 -0.1766 -0.9860
 4701TIP3    H235663   1.595   6.181   1.377  0.3390  0.0947 -0.4148
 4702TIP3   OH235664   1.648   2.594   1.235  0.0020 -0.1935 -0.0076
 4702TIP3    H135665   1.679   2.670   1.186 -0.6336  0.8386  1.1562
 4702TIP3    H235666   1.699   2.595   1.316 -0.6893 -0.4376  0.4350
 4703TIP3   OH235667   1.456   1.530   2.110  0.0622  0.0554 -0.3302
 4703TIP3    H135668   1.544   1.492   2.120  0.2140  0.1312 -1.3390
 4703TIP3    H235669   1.434   1.561   2.198  2.6909  3.6188 -0.8026
 4704TIP3   OH235670   7.154   4.053   1.726  0.1502  0.2461 -0.2807
 4704TIP3    H135671   7.160   3.982   1.663  0.1025  0.0466 -0.0622
 4704TIP3    H235672   7.132   4.130   1.674  0.3466  0.1296 -0.5362
 4705TIP3   OH235673   6.642   6.508   8.253 -0.0860  0.0856  0.3542
 4705TIP3    H135674   6.735   6.524   8.264  0.0796  0.4921 -1.4901
 4705TIP3    H235675   6.637   6.415   8.229  0.2249  0.9710 -3.4459
 4706TIP3   OH235676   1.615   3.415   0.141  0.2961 -0.0681  0.3505
 4706TIP3    H135677   1.594   3.358   0.215  0.1841 -0.2050  0.2123
 4706TIP3    H235678   1.637   3.499   0.181 -2.5192  0.6888  0.3799
 4707TIP3   OH235679   2.949   0.604   8.195  0.1587  0.2575 -0.0498
 4707TIP3    H135680   3.044   0.619   8.196  0.2370 -0.0572 -1.6347
 4707TIP3    H235681   2.921   0.621   8.285  1.8141 -0.2524  0.5788
 4708TIP3   OH235682   6.815   0.765   0.065 -0.3500 -0.1586  0.2871
 4708TIP3    H135683   6.819   0.801   0.154  1.1517 -1.5524  0.8077
 4708TIP3    H235684   6.819   0.842   0.008  2.1275  0.6023  1.3995
 4709TIP3   OH235685   6.665   0.453   0.382  0.3419  0.1250  0.2616
 4709TIP3    H135686   6.705   0.442   0.296 -0.4408 -1.4156  0.0844
 4709TIP3    H235687   6.596   0.518   0.369  1.3981  1.2473  0.1313
 4710TIP3   OH235688   2.303   0.705   1.568 -0.3172 -0.1388 -0.4531
 4710TIP3    H135689   2.238   0.636   1.561 -1.4170  0.7127  1.0841
 4710TIP3    H235690   2.350   0.687   1.650  0.6434 -0.1040 -0.9782
 4711TIP3   OH235691   3.133   2.289   1.683  0.3687 -0.3278  0.1276
 4711TIP3    H135692   3.196   2.234   1.635  0.2811  1.3043 -1.9531
 4711TIP3    H235693   3.181   2.319   1.760  2.1043  0.6798 -1.2975
 4712TIP3   OH235694   2.221   1.861   8.082  0.0017 -0.1814  0.9715
 4712TIP3    H135695   2.182   1.838   7.997 -1.0773  0.3127  1.3137
 4712TIP3    H235696   2.300   1.808   8.087 -0.0457 -0.3964 -0.2424
 4713TIP3   OH235697   7.250   5.365   0.513 -0.2442 -0.7082  0.4309
 4713TIP3    H135698   7.180   5.388   0.574 -0.5955  0.2424 -0.3201
 4713TIP3    H235699   7.209   5.368   0.427  0.7782  0.1250 -0.0378
 4714TIP3   OH235700   6.813   0.642   7.973 -0.4378 -0.4541  0.0951
 4714TIP3    H135701   6.860   0.670   8.051  0.3246  0.3905 -0.6585
 4714TIP3    H235702   6.791   0.550   7.990  0.8822 -0.6629  0.7435
 4715TIP3   OH235703   1.451   1.289   1.285 -0.4566  0.8377 -0.4642
 4715TIP3    H135704   1.364   1.308   1.250 -2.0942 -2.2390  1.7190
 4715TIP3    H235705   1.478   1.209   1.240  0.8220  1.1993 -0.3612
 4716TIP3   OH235706   1.228   3.423   8.031 -0.0719  0.2531 -0.0743
 4716TIP3    H135707   1.174   3.353   8.067 -0.4654  1.4724  1.7644
 4716TIP3    H235708   1.304   3.379   7.995  1.2304 -0.8806  3.8700
 4717TIP3   OH235709   4.553   2.905   7.204 -0.0821 -0.1596  0.5134
 4717TIP3    H135710   4.579   2.825   7.249  1.8177 -0.5533 -1.2089
 4717TIP3    H235711   4.471   2.883   7.161 -0.1965 -0.8185  1.0693
 4718TIP3   OH235712   1.264   2.274   2.277 -0.2162 -0.7509  0.0707
 4718TIP3    H135713   1.180   2.251   2.237  0.1123 -1.1541 -0.3958
 4718TIP3    H235714   1.309   2.325   2.209 -0.6888  0.7656  0.8613
 4719TIP3   OH235715   0.164   3.780   1.656 -0.8686 -0.0971 -0.0624
 4719TIP3    H135716   0.188   3.702   1.607  1.9318 -0.0072  1.0323
 4719TIP3    H235717   0.114   3.747   1.731 -0.2017 -0.7986  0.0824
 4720TIP3   OH235718   1.618   4.140   6.266  0.0103 -0.6072  0.8638
 4720TIP3    H135719   1.575   4.178   6.343  0.4444  0.8501  0.4176
 4720TIP3    H235720   1.708   4.171   6.272  0.2187 -1.0633  0.1342
 4721TIP3   OH235721   1.472   2.371   1.488 -0.6560 -0.5702 -0.3912
 4721TIP3    H135722   1.560   2.334   1.490  0.6861  2.4952 -0.1295
 4721TIP3    H235723   1.431   2.332   1.411  1.2503 -1.3260 -1.0474
 4722TIP3   OH235724   2.505   2.973   7.625  0.3653  0.2356 -0.6944
 4722TIP3    H135725   2.435   3.035   7.601 -0.7853 -0.9373 -0.3898
 4722TIP3    H235726   2.492   2.899   7.566 -0.6618 -1.3986  1.5340
 4723TIP3   OH235727   4.081   3.941   1.027 -0.1620 -0.2039 -0.3860
 4723TIP3    H135728   4.051   4.002   1.094 -1.9718 -1.6444  0.1740
 4723TIP3    H235729   4.081   3.856   1.071  0.9613 -0.8341 -1.5505
 4724TIP3   OH235730   1.473   2.652   0.693  0.2157 -0.1774  0.4318
 4724TIP3    H135731   1.460   2.631   0.600  0.9738 -0.6945  0.4320
 4724TIP3    H235732   1.536   2.724   0.692 -0.0293  0.0351  0.5303
 4725TIP3   OH235733   1.638   2.421   7.485  0.4209 -0.3134 -1.0329
 4725TIP3    H135734   1.545   2.402   7.471  0.2547  0.4600 -0.9715
 4725TIP3    H235735   1.681   2.335   7.477 -0.7917 -1.4707  3.5442
 4726TIP3   OH235736   1.205   0.844   0.696  0.4483  0.0728 -0.1549
 4726TIP3    H135737   1.277   0.906   0.684 -1.0346  1.4948 -2.1813
 4726TIP3    H235738   1.243   0.759   0.675  2.0312  0.5264  0.7608
 4727TIP3   OH235739   2.213   2.811   1.747 -0.3483 -0.3865  0.4117
 4727TIP3    H135740   2.189   2.805   1.839 -0.9160  0.3504  0.3245
 4727TIP3    H235741   2.254   2.897   1.738  0.1045 -0.6383  0.0701
 4728TIP3   OH235742   0.985   2.273   1.470  0.1769  0.0690  0.8945
 4728TIP3    H135743   1.043   2.316   1.533 -1.1439 -0.6286  2.6381
 4728TIP3    H235744   0.899   2.311   1.486 -0.2329 -0.3462 -0.2793
 4729TIP3   OH235745   3.284   3.426   1.722 -0.2370 -0.0385  0.1740
 4729TIP3    H135746   3.376   3.452   1.723 -0.3645  0.3670  2.5211
 4729TIP3    H235747   3.249   3.457   1.805 -1.9121 -2.3801  0.3899
 4730TIP3   OH235748   0.629   5.025   1.147  0.0478 -0.0361  0.3111
 4730TIP3    H135749   0.558   5.087   1.162 -0.1260  0.4002 -2.0168
 4730TIP3    H235750   0.587   4.952   1.101  0.7238 -0.7331  0.7855
 4731TIP3   OH235751   4.006   1.101   1.384 -0.1602 -0.0256 -0.5395
 4731TIP3    H135752   4.039   1.022   1.425 -1.9622 -0.5746 -0.1208
 4731TIP3    H235753   3.971   1.153   1.456  3.5414  2.4887 -0.4024
 4732TIP3   OH235754   1.885   3.470   1.165  0.4156  0.4968 -0.8347
 4732TIP3    H135755   1.807   3.416   1.154  1.1360 -0.8690  0.4051
 4732TIP3    H235756   1.942   3.417   1.221  0.7591  2.9449  1.2409
 4733TIP3   OH235757   4.297   2.510   0.906  0.2963 -0.1623 -0.0802
 4733TIP3    H135758   4.270   2.582   0.850 -0.2538 -0.7463 -0.5872
 4733TIP3    H235759   4.247   2.435   0.873  1.3277 -0.9052  0.0289
 4734TIP3   OH235760   6.678   2.391   1.555  0.0411 -0.1808 -1.0065
 4734TIP3    H135761   6.657   2.484   1.569 -0.7137 -0.5240  0.2403
 4734TIP3    H235762   6.739   2.391   1.481  0.3713  1.3462 -0.7560
 4735TIP3   OH235763   2.062   1.898   1.369 -0.4753  0.7453 -0.4414
 4735TIP3    H135764   2.081   1.833   1.437 -0.7750 -0.6842 -1.6946
 4735TIP3    H235765   1.992   1.859   1.317  2.1872  0.1588 -3.7628
 4736TIP3   OH235766   0.812   3.748   0.956 -0.6407  0.2060  0.2003
 4736TIP3    H135767   0.770   3.758   0.870  0.3419  0.9197 -0.2101
 4736TIP3    H235768   0.862   3.667   0.949  0.1272  0.7062 -0.2047
 4737TIP3   OH235769   3.873   2.216   1.873 -0.6122 -0.2713 -0.3995
 4737TIP3    H135770   3.861   2.129   1.911  2.8981 -0.7210 -0.1019
 4737TIP3    H235771   3.845   2.276   1.942 -0.4611 -1.1619  0.4553
 4738TIP3   OH235772   1.733   3.626   1.465 -0.1400  0.2720  0.3275
 4738TIP3    H135773   1.747   3.534   1.485 -1.7177  0.0916  0.6150
 4738TIP3    H235774   1.802   3.647   1.401 -0.8868 -1.5630 -1.1297
 4739TIP3   OH235775   3.103   2.656   1.980 -0.7314  0.3659 -0.1652
 4739TIP3    H135776   3.030   2.700   2.024  0.0618  0.9842  0.5553
 4739TIP3    H235777   3.160   2.727   1.952  0.8089 -0.2271  1.4468
 4740TIP3   OH235778   1.509   2.258   0.340 -0.0072  0.1245  0.7631
 4740TIP3    H135779   1.463   2.231   0.260 -0.2935  0.9783  0.6408
 4740TIP3    H235780   1.598   2.226   0.328 -0.5213 -1.4269  0.9383
 4741TIP3   OH235781   3.132   2.122   0.578 -0.0942  0.0590 -0.9444
 4741TIP3    H135782   3.117   2.029   0.594  0.2507  0.3959  1.4802
 4741TIP3    H235783   3.059   2.166   0.621  1.2171  1.0485  0.2987
 4742TIP3   OH235784   1.569   3.657   0.685 -0.5280  0.2603 -0.0460
 4742TIP3    H135785   1.497   3.599   0.707  0.1869 -1.1113 -1.2255
 4742TIP3    H235786   1.648   3.609   0.711  0.0565  0.8600 -0.6830
 4743TIP3   OH235787   1.487   3.558   7.823 -0.0111  0.4108 -0.1088
 4743TIP3    H135788   1.483   3.464   7.805  0.6880 -0.0296  1.9804
 4743TIP3    H235789   1.573   3.571   7.862 -1.3572  1.3844  2.6374
 4744TIP3   OH235790   3.347   1.580   0.938  0.0772  0.1877 -0.0020
 4744TIP3    H135791   3.304   1.495   0.948 -0.0695  0.0732 -1.5179
 4744TIP3    H235792   3.430   1.560   0.894 -0.0927  0.8769 -0.6293
 4745TIP3   OH235793   3.143   2.879   8.279  0.3148 -0.1628  0.3616
 4745TIP3    H135794   3.089   2.886   8.200  1.5376 -0.5517 -0.5369
 4745TIP3    H235795   3.164   2.969   8.302 -2.1149  0.0922  1.7364
 4746TIP3   OH235796   3.830   2.316   0.528  0.0687 -0.5926  0.6938
 4746TIP3    H135797   3.748   2.364   0.519  0.2465 -0.5814 -1.1113
 4746TIP3    H235798   3.805   2.232   0.566 -0.6200 -0.1445  1.2374
 4747TIP3   OH235799   3.009   2.321   7.518 -0.7558 -0.5798 -0.5731
 4747TIP3    H135800   3.041   2.275   7.440 -1.1823 -1.4534 -0.2445
 4747TIP3    H235801   2.937   2.376   7.486 -0.6162 -0.5778 -0.8788
 4748TIP3   OH235802   2.207   3.331   0.955 -0.0214  0.0150 -0.2297
 4748TIP3    H135803   2.260   3.263   0.997 -1.6276 -0.0425  1.7569
 4748TIP3    H235804   2.148   3.283   0.898  2.2695  0.1015 -2.7843
 4749TIP3   OH235805   4.595   4.491   0.758 -0.0687  0.2675 -0.3717
 4749TIP3    H135806   4.572   4.507   0.850  0.8298 -1.9257  0.2719
 4749TIP3    H235807   4.574   4.399   0.744  1.0597  0.2374 -1.9904
 4750TIP3   OH235808   4.610   3.050   2.317 -0.6836 -0.0370 -0.2559
 4750TIP3    H135809   4.597   2.994   2.241  0.1353 -0.4554 -0.0947
 4750TIP3    H235810   4.677   3.005   2.369  0.9859  1.7445 -0.7921
 4751TIP3   OH235811   2.409   1.698   1.586 -0.0170  0.1795 -0.0218
 4751TIP3    H135812   2.488   1.646   1.601 -0.2917 -0.3386 -0.3805
 4751TIP3    H235813   2.394   1.693   1.492 -0.5229  0.2130  0.0568
 4752TIP3   OH235814   2.404   1.664   7.648  0.0472  0.2857  0.5844
 4752TIP3    H135815   2.358   1.594   7.694  0.2537 -0.8085 -0.8198
 4752TIP3    H235816   2.469   1.618   7.594 -0.3907  1.5093 -1.0123
 4753TIP3   OH235817   3.548   4.546   0.497  0.0566 -0.3292 -0.5874
 4753TIP3    H135818   3.484   4.586   0.555  0.1596  0.8086 -1.2397
 4753TIP3    H235819   3.590   4.479   0.550 -1.0821 -0.5107  0.0989
 4754TIP3   OH235820   1.986   2.296   0.007 -0.6255 -0.3529  0.2291
 4754TIP3    H135821   1.902   2.330   0.036 -0.9186 -0.4997 -0.4424
 4754TIP3    H235822   1.979   2.201   0.019 -1.4807 -0.6088 -2.1942
 4755TIP3   OH235823   1.467   1.991   1.814  0.0942  0.3097  0.7395
 4755TIP3    H135824   1.459   1.913   1.868  2.4935  1.2023  2.4922
 4755TIP3    H235825   1.546   1.975   1.761 -1.2728  0.1653 -1.2979
 4756TIP3   OH235826   1.393   1.951   6.566 -0.6700  0.0489 -0.2727
 4756TIP3    H135827   1.321   2.009   6.591 -1.7482 -0.2254 -2.5689
 4756TIP3    H235828   1.355   1.894   6.499  0.9987 -1.7988  0.2995
 4757TIP3   OH235829   4.122   3.505   2.201  0.3316  0.0683 -0.4283
 4757TIP3    H135830   4.203   3.490   2.153  0.4756  0.4351 -0.2956
 4757TIP3    H235831   4.150   3.534   2.288  0.0610  0.1114 -0.3542
 4758TIP3   OH235832   1.830   2.275   0.329 -0.1564 -0.3863 -0.0868
 4758TIP3    H135833   1.906   2.235   0.287  0.7673 -0.6320  1.7548
 4758TIP3    H235834   1.794   2.333   0.262 -0.4015 -2.8327 -2.1661
 4759TIP3   OH235835   1.838   0.054   1.486  0.5331 -0.6610 -0.7151
 4759TIP3    H135836   1.845   0.023   1.576 -0.8586 -0.3938 -0.5089
 4759TIP3    H235837   1.868   0.145   1.489 -0.5488 -0.3114 -0.3133
 4760TIP3   OH235838   1.541   3.588   0.411  0.2718 -0.1875 -0.2508
 4760TIP3    H135839   1.597   3.640   0.353  2.2070 -2.5448 -0.5511
 4760TIP3    H235840   1.559   3.623   0.499 -1.1839  2.0374 -0.7730
 4761TIP3   OH235841   3.048   1.679   7.091 -0.3463 -0.6897 -0.2183
 4761TIP3    H135842   3.014   1.727   7.166  1.3296 -0.0107  0.1209
 4761TIP3    H235843   3.101   1.609   7.129 -0.5593 -1.1484 -0.7572
 4762TIP3   OH235844   0.825   2.996   1.888  0.3123  0.1699  0.7680
 4762TIP3    H135845   0.782   3.019   1.971  1.0897  1.7225  0.7394
 4762TIP3    H235846   0.808   3.070   1.830  0.6676 -0.4484 -0.1377
 4763TIP3   OH235847   2.492   3.723   0.784 -0.0944 -0.0887  0.0874
 4763TIP3    H135848   2.500   3.751   0.876 -2.6470 -0.4110  0.4610
 4763TIP3    H235849   2.474   3.629   0.789 -2.5716  0.3112 -0.5878
 4764TIP3   OH235850   3.247   3.237   0.620 -0.5639 -0.0602  0.2055
 4764TIP3    H135851   3.189   3.261   0.692  0.5299  0.6698  0.8665
 4764TIP3    H235852   3.295   3.318   0.600  0.6273 -0.7848  0.0650
 4765TIP3   OH235853   0.342   0.946   0.246 -0.1106 -0.4088 -0.6152
 4765TIP3    H135854   0.412   0.913   0.190  0.4382 -0.1936 -0.0549
 4765TIP3    H235855   0.325   0.875   0.308  1.7547  0.7251  1.2248
 4766TIP3   OH235856   1.287   2.207   1.743  0.2287 -0.1402  0.1982
 4766TIP3    H135857   1.312   2.119   1.772 -0.9257 -0.7131 -0.5451
 4766TIP3    H235858   1.257   2.251   1.822  3.1353  0.4176  1.0460
 4767TIP3   OH235859   4.449   1.569   1.350  0.3989 -0.1554 -0.1569
 4767TIP3    H135860   4.516   1.636   1.346 -0.6087  0.8750 -0.0993
 4767TIP3    H235861   4.487   1.494   1.304  1.7918  0.2084  0.3716
 4768TIP3   OH235862   0.372   0.617   1.998  0.2475 -0.0008 -0.1246
 4768TIP3    H135863   0.360   0.592   2.089 -1.1176 -1.6213 -0.7146
 4768TIP3    H235864   0.444   0.562   1.967  1.0750  0.9441  0.1294
 4769TIP3   OH235865   2.123   3.405   2.703 -0.2197  0.5022  0.0715
 4769TIP3    H135866   2.064   3.455   2.646 -1.7963 -0.2520  1.0259
 4769TIP3    H235867   2.087   3.317   2.702  0.8111  0.0732  0.8034
 4770TIP3   OH235868   4.305   3.158   2.321  0.0678 -0.5312 -0.2850
 4770TIP3    H135869   4.389   3.112   2.327 -0.2188 -1.0484 -0.2557
 4770TIP3    H235870   4.307   3.200   2.235  0.7564  0.2371  0.0955
 4771TIP3   OH235871   2.003   4.139   2.064  0.3978  0.1859 -0.0893
 4771TIP3    H135872   2.015   4.234   2.054 -0.0301  0.4856  1.9035
 4771TIP3    H235873   2.090   4.107   2.087  0.6752 -0.0013 -1.3946
 4772TIP3   OH235874   4.574   4.742   0.599 -0.0794 -0.3560 -0.0950
 4772TIP3    H135875   4.595   4.820   0.650 -1.4467  0.8332 -1.2963
 4772TIP3    H235876   4.603   4.669   0.653  2.9139  1.0103  0.2788
 4773TIP3   OH235877   2.413   2.060   8.156  0.2950  0.6891 -0.1827
 4773TIP3    H135878   2.367   2.021   8.082 -0.3156 -0.1754  0.6544
 4773TIP3    H235879   2.491   2.100   8.117 -0.4922  1.0437 -1.4154
 4774TIP3   OH235880   4.661   4.511   1.058 -0.0064  0.0099  0.0621
 4774TIP3    H135881   4.614   4.480   1.136  0.5086 -1.6121 -0.2420
 4774TIP3    H235882   4.702   4.593   1.085  1.8231 -1.5197  2.1693
 4775TIP3   OH235883   2.137   5.290   8.496 -0.1115  0.3423 -0.2058
 4775TIP3    H135884   2.106   5.206   8.461  0.1949  0.5986 -1.1239
 4775TIP3    H235885   2.226   5.298   8.461 -0.3826  1.3582 -0.6659
 4776TIP3   OH235886   3.644   2.937   1.265  0.3426  0.1447 -0.5576
 4776TIP3    H135887   3.657   2.997   1.339 -0.9127  1.1382 -1.1235
 4776TIP3    H235888   3.700   2.862   1.285 -1.2147 -0.3404  2.2216
 4777TIP3   OH235889   2.557   3.303   1.900  0.0012  0.0802  0.6148
 4777TIP3    H135890   2.606   3.283   1.980  0.2567 -0.4452  0.3322
 4777TIP3    H235891   2.575   3.229   1.843 -0.0393  0.5397  0.0036
 4778TIP3   OH235892   2.570   1.785   2.184  0.1585  0.3323 -0.5463
 4778TIP3    H135893   2.485   1.740   2.184 -0.9287  2.3399 -1.0903
 4778TIP3    H235894   2.615   1.749   2.108 -0.1272 -0.8878 -0.1501
 4779TIP3   OH235895   2.061   1.452   0.803  0.1239  0.7237  0.0848
 4779TIP3    H135896   2.082   1.381   0.864 -0.9044  1.4564  1.3123
 4779TIP3    H235897   2.139   1.508   0.803  0.0463  0.8291  0.8752
 4780TIP3   OH235898   3.364   2.135   1.817  0.3890 -0.3598  0.1358
 4780TIP3    H135899   3.425   2.205   1.793 -0.3117  0.2830  0.2020
 4780TIP3    H235900   3.353   2.145   1.912  0.9665 -1.1135  0.2825
 4781TIP3   OH235901   2.183   2.506   0.123  0.0994  0.2108 -0.0270
 4781TIP3    H135902   2.263   2.467   0.089 -0.1605  0.0313 -0.4370
 4781TIP3    H235903   2.122   2.433   0.132 -0.3344  0.4905 -0.6436
 4782TIP3   OH235904   2.382   2.045   7.849  0.2276  0.2889  0.5988
 4782TIP3    H135905   2.315   1.978   7.839 -1.3140  2.0901 -1.6401
 4782TIP3    H235906   2.464   2.001   7.827 -0.6263 -1.0832  0.1194
 4783TIP3   OH235907   1.609   3.332   0.900  0.1690  0.1176  0.4326
 4783TIP3    H135908   1.664   3.255   0.895 -1.0045 -0.7628  0.8021
 4783TIP3    H235909   1.573   3.330   0.989 -1.9277 -0.3619 -0.3945
 4784TIP3   OH235910   2.678   2.064   8.341 -0.3257  0.3455  0.4331
 4784TIP3    H135911   2.678   2.125   8.268 -1.6219  0.2987  0.3746
 4784TIP3    H235912   2.593   2.076   8.383 -0.2247 -0.7399  0.9867
 4785TIP3   OH235913   2.352   3.192   0.662  0.5304  0.5891 -0.0558
 4785TIP3    H135914   2.340   3.164   0.753 -1.9656  0.0666 -0.5091
 4785TIP3    H235915   2.309   3.277   0.657 -1.7302 -0.5731 -1.3501
 4786TIP3   OH235916   2.948   1.783   1.801 -1.1059 -0.1426  0.0840
 4786TIP3    H135917   2.878   1.787   1.867  0.7328 -0.5084  2.1110
 4786TIP3    H235918   3.022   1.826   1.842  0.2074 -0.7191 -1.6328
 4787TIP3   OH235919   2.741   1.584   0.591  0.2720 -0.0514 -0.3662
 4787TIP3    H135920   2.659   1.620   0.557  0.6888 -0.0031 -1.3395
 4787TIP3    H235921   2.776   1.653   0.646  0.0439  0.2342 -0.5780
 4788TIP3   OH235922   1.663   4.004   1.350 -0.3135  0.0710  0.8312
 4788TIP3    H135923   1.731   4.047   1.298 -1.3829 -0.2754 -0.8946
 4788TIP3    H235924   1.709   3.968   1.426  1.5763 -0.9733 -0.7832
 4789TIP3   OH235925   2.045   2.268   1.137 -0.0966 -0.1739  0.2284
 4789TIP3    H135926   1.968   2.274   1.194  0.1030  0.7256  0.4095
 4789TIP3    H235927   2.105   2.211   1.185 -1.0229 -1.6725 -0.3568
 4790TIP3   OH235928   1.147   0.531   2.192 -0.0111 -0.3811  0.0956
 4790TIP3    H135929   1.131   0.624   2.208  0.3033 -0.2493 -0.3434
 4790TIP3    H235930   1.065   0.499   2.153  0.3257 -0.0065 -0.9209
 4791TIP3   OH235931   2.032   2.726   0.563  0.5214  0.0386  0.3257
 4791TIP3    H135932   2.072   2.715   0.649 -1.1062 -0.0205  1.0967
 4791TIP3    H235933   1.984   2.644   0.548  0.3383  0.2733 -0.3818
 4792TIP3   OH235934   1.019   2.684   7.917 -0.2227  0.2424 -0.0961
 4792TIP3    H135935   1.078   2.623   7.963 -1.1115 -1.1120 -0.7093
 4792TIP3    H235936   1.077   2.734   7.860  0.6077  0.4081  0.8698
 4793TIP3   OH235937   3.552   1.687   0.368  0.0562  0.0529 -0.0402
 4793TIP3    H135938   3.583   1.742   0.440 -0.4268  0.9320 -0.4923
 4793TIP3    H235939   3.632   1.666   0.319  0.2733  0.1955  0.2469
 4794TIP3   OH235940   1.040   1.245   1.531 -0.1868  0.6229 -0.4392
 4794TIP3    H135941   1.030   1.338   1.548 -0.5537  0.6672 -0.8665
 4794TIP3    H235942   1.002   1.202   1.607  0.4473  0.8245 -0.0084
 4795TIP3   OH235943   3.908   2.242   1.601 -0.1615  0.5462 -0.2716
 4795TIP3    H135944   3.880   2.151   1.591 -1.7149  0.9756  0.0548
 4795TIP3    H235945   3.915   2.254   1.696  2.4339  0.0774 -0.3604
 4796TIP3   OH235946   2.583   5.579   8.005 -0.2435 -0.1155  0.4773
 4796TIP3    H135947   2.578   5.508   7.941 -0.5621  0.9515 -0.6924
 4796TIP3    H235948   2.644   5.642   7.967 -0.7936  0.7467  1.0091
 4797TIP3   OH235949   2.165   2.066   0.620 -0.0580  0.2846 -0.0509
 4797TIP3    H135950   2.119   2.093   0.541  1.9238  1.3583 -0.8512
 4797TIP3    H235951   2.118   2.110   0.691  1.1497  3.3215 -1.0575
 4798TIP3   OH235952   2.928   4.919   1.639  0.0408 -0.3691 -0.0744
 4798TIP3    H135953   2.881   4.871   1.572 -1.0672  1.3547 -0.5572
 4798TIP3    H235954   2.893   4.886   1.722  0.0294 -1.1110 -0.3703
 4799TIP3   OH235955   2.377   3.658   2.392  0.5407 -0.3496  0.4477
 4799TIP3    H135956   2.284   3.643   2.375  0.6318 -1.4812  0.8497
 4799TIP3    H235957   2.389   3.627   2.482  0.8445  1.9349  1.2090
 4800TIP3   OH235958   2.778   1.748   1.583 -0.1260  0.3844 -0.5890
 4800TIP3    H135959   2.782   1.829   1.532 -2.1806  0.2658 -1.0035
 4800TIP3    H235960   2.816   1.771   1.668 -1.0566  1.8991 -0.5618
 4801TIP3   OH235961   2.692   2.025   1.478  0.6611 -0.1888  0.0695
 4801TIP3    H135962   2.643   2.103   1.450 -0.8376 -1.1026  0.1296
 4801TIP3    H235963   2.698   1.971   1.400  0.9855 -0.4084  0.2421
 4802TIP3   OH235964   4.358   1.089   0.923  0.4488  0.0872  0.1159
 4802TIP3    H135965   4.339   1.173   0.881 -0.4267 -1.3665 -2.5153
 4802TIP3    H235966   4.287   1.078   0.987 -0.8038  0.2831 -1.2044
 4803TIP3   OH235967   3.011   2.324   0.866 -0.5454 -0.5171 -0.1479
 4803TIP3    H135968   3.037   2.402   0.916  1.1179 -0.7412 -0.6310
 4803TIP3    H235969   2.922   2.343   0.838 -1.3022 -0.1420  2.3810
 4804TIP3   OH235970   4.430   3.500   1.477 -0.4624  0.7864 -0.0701
 4804TIP3    H135971   4.524   3.495   1.495 -0.2916  0.5243 -1.0201
 4804TIP3    H235972   4.419   3.451   1.396 -1.4330  0.7571  0.0802
 4805TIP3   OH235973   4.299   3.704   1.974 -0.1282  0.6797 -0.3498
 4805TIP3    H135974   4.277   3.659   1.892 -0.7130 -0.0311  0.1907
 4805TIP3    H235975   4.356   3.643   2.021  0.5563  1.2675 -0.4177
 4806TIP3   OH235976   3.479   2.980   8.381  0.5044  0.0792 -0.2899
 4806TIP3    H135977   3.420   2.959   8.454 -0.9487  2.7430 -0.6337
 4806TIP3    H235978   3.567   2.978   8.420 -0.1304 -0.0459  1.1809
 4807TIP3   OH235979   3.679   1.870   0.054  0.6404 -0.3181 -0.2520
 4807TIP3    H135980   3.601   1.926   0.056  0.1338 -1.0492  1.0635
 4807TIP3    H235981   3.702   1.864  -0.038 -2.0862 -1.7536 -0.8877
 4808TIP3   OH235982   2.302   3.991   0.434  0.3611 -0.3293  0.2430
 4808TIP3    H135983   2.396   3.980   0.440  0.3398 -0.1624  0.9788
 4808TIP3    H235984   2.288   4.085   0.435  0.2993 -0.3123 -1.8645
 4809TIP3   OH235985   4.493   2.344   1.035 -0.1017 -0.7802 -0.4319
 4809TIP3    H135986   4.424   2.398   0.997  2.1189  2.6736  0.2317
 4809TIP3    H235987   4.463   2.325   1.124 -0.2860  0.6202 -0.1854
 4810TIP3   OH235988   1.517   3.332   2.349  0.4319 -0.4118 -0.2595
 4810TIP3    H135989   1.537   3.422   2.375  1.6677 -1.5363  2.9253
 4810TIP3    H235990   1.425   3.320   2.372  0.2718  0.0241 -0.6726
 4811TIP3   OH235991   2.505   2.660   1.668  0.3058  0.5373 -0.3055
 4811TIP3    H135992   2.552   2.744   1.670 -3.8539  2.9612  0.0541
 4811TIP3    H235993   2.507   2.629   1.759  1.4575  0.4435 -0.3551
 4812TIP3   OH235994   4.159   2.930   0.263 -0.2379  0.0500  0.2034
 4812TIP3    H135995   4.233   2.871   0.267 -0.4072 -0.1469  0.4628
 4812TIP3    H235996   4.121   2.926   0.351 -0.5387  0.1682  0.0784
 4813TIP3   OH235997   4.383   0.556   1.240  0.1361  0.0748 -0.3617
 4813TIP3    H135998   4.411   0.624   1.301 -0.3720  0.3226 -0.3998
 4813TIP3    H235999   4.319   0.504   1.290  0.8772 -0.6691 -0.1727
 4814TIP3   OH236000   2.798   3.618   2.450 -0.2750 -0.0008  0.3897
 4814TIP3    H136001   2.887   3.648   2.430 -0.7662  1.5066  0.4277
 4814TIP3    H236002   2.746   3.698   2.454 -1.6878 -0.8948  0.1325
 4815TIP3   OH236003   1.783   5.852   8.199 -0.4019 -0.8569 -0.0277
 4815TIP3    H136004   1.867   5.862   8.156 -0.5461 -1.1573 -0.3845
 4815TIP3    H236005   1.804   5.834   8.290 -0.0870 -0.7059 -0.0706
 4816TIP3   OH236006   2.883   2.391   0.518  0.0246 -0.0254  0.5124
 4816TIP3    H136007   2.807   2.448   0.511  0.1767  0.1842  0.5471
 4816TIP3    H236008   2.934   2.409   0.438  0.9752  1.2129  1.3663
 4817TIP3   OH236009   2.850   2.658   7.042 -0.0893  0.1545  0.4922
 4817TIP3    H136010   2.756   2.664   7.054 -0.0019  2.5004  0.2480
 4817TIP3    H236011   2.878   2.748   7.027  2.2726 -0.4365  1.1488
 4818TIP3   OH236012   3.503   1.824   0.670 -0.8473  0.3164  0.6817
 4818TIP3    H136013   3.584   1.867   0.696 -0.3748 -0.0244 -0.2168
 4818TIP3    H236014   3.516   1.732   0.696 -0.4218 -0.0016 -0.6236
 4819TIP3   OH236015   2.019   2.031   0.199  0.2424 -0.6359 -0.2147
 4819TIP3    H136016   1.963   2.021   0.122  0.0679 -1.7134  0.0351
 4819TIP3    H236017   2.102   1.992   0.173  0.3495 -0.5285 -0.0306
 4820TIP3   OH236018   2.819   4.774   1.441  0.0665 -0.0727 -0.1936
 4820TIP3    H136019   2.749   4.726   1.486 -0.2561  1.6380  1.1774
 4820TIP3    H236020   2.882   4.706   1.415 -1.4363 -1.4764 -0.2634
 4821TIP3   OH236021   2.057   0.854   1.021  0.2725  0.1545 -0.7448
 4821TIP3    H136022   2.058   0.811   1.107  2.1727 -0.5206 -1.0686
 4821TIP3    H236023   2.147   0.844   0.989 -0.3538  0.6258 -2.7000
 4822TIP3   OH236024   2.891   3.768   0.353  1.2146 -0.6370  0.3789
 4822TIP3    H136025   2.964   3.823   0.380  0.2967  0.3015  0.9822
 4822TIP3    H236026   2.834   3.763   0.431  0.4718 -1.0832 -0.1805
 4823TIP3   OH236027   3.510   3.473   2.268 -0.1050 -0.3059  0.2234
 4823TIP3    H136028   3.471   3.431   2.345 -1.5647 -1.9277 -1.3519
 4823TIP3    H236029   3.451   3.545   2.247 -1.8808 -2.2616 -1.6747
 4824TIP3   OH236030   4.235   2.534   1.592 -0.2598  0.7197  0.4175
 4824TIP3    H136031   4.211   2.622   1.564  0.8581  0.8870 -0.0690
 4824TIP3    H236032   4.173   2.512   1.661 -1.2688  1.4382 -0.2506
 4825TIP3   OH236033   2.342   3.268   8.425  0.2295  0.2174  0.0975
 4825TIP3    H136034   2.251   3.242   8.415  0.9215 -1.6737 -1.5840
 4825TIP3    H236035   2.341   3.364   8.418 -1.9115  0.4054  2.6558
 4826TIP3   OH236036   0.929   2.014   0.529 -0.2567  0.3247 -0.3099
 4826TIP3    H136037   0.946   1.930   0.485 -1.2209 -0.1670  0.2402
 4826TIP3    H236038   1.014   2.042   0.561  0.1983 -0.0851 -1.1481
 4827TIP3   OH236039   4.942   2.409   1.833  0.7706 -0.1045  0.1739
 4827TIP3    H136040   4.939   2.407   1.929  0.2937  0.5731  0.1717
 4827TIP3    H236041   4.999   2.483   1.813  0.1684  0.2889 -0.0806
 4828TIP3   OH236042   1.195   1.702   1.859 -0.3921 -0.0839 -0.0226
 4828TIP3    H136043   1.103   1.727   1.864 -0.9496 -1.8315 -1.1920
 4828TIP3    H236044   1.243   1.780   1.888 -2.2034  1.0958 -0.1547
 4829TIP3   OH236045   1.940   2.742   7.080 -0.0566 -0.6638 -0.2617
 4829TIP3    H136046   1.954   2.704   6.993 -1.0424 -0.1020 -0.6815
 4829TIP3    H236047   1.866   2.802   7.068  0.1642 -0.1554  0.8413
 4830TIP3   OH236048   2.888   1.339   0.445 -0.5795  0.5061 -0.3089
 4830TIP3    H136049   2.965   1.395   0.453 -0.6511  0.5390  0.1733
 4830TIP3    H236050   2.815   1.395   0.472 -0.9749  0.9408 -2.1874
 4831TIP3   OH236051   3.313   0.794   0.344 -0.4169 -0.0241  0.3626
 4831TIP3    H136052   3.282   0.784   0.435 -0.8306 -1.5468  0.0664
 4831TIP3    H236053   3.404   0.767   0.346 -0.5858 -0.6022  0.2123
 4832TIP3   OH236054   3.548   6.078   1.854  0.3658  0.5994 -0.2821
 4832TIP3    H136055   3.474   6.018   1.846  1.2625 -0.3883 -1.3627
 4832TIP3    H236056   3.560   6.113   1.765  0.9216  1.0867 -0.0183
 4833TIP3   OH236057   1.826   2.204   1.307  0.3096 -0.5553 -0.0631
 4833TIP3    H136058   1.825   2.234   1.398 -2.3711  0.0153 -0.2178
 4833TIP3    H236059   1.816   2.109   1.312 -0.4935 -0.4619  0.2526
 4834TIP3   OH236060   1.346   0.079   1.482 -0.4845  0.1241 -0.3890
 4834TIP3    H136061   1.308   0.037   1.559 -0.8080  0.8565 -0.1505
 4834TIP3    H236062   1.412   0.016   1.451 -0.4096 -0.2111  0.4349
 4835TIP3   OH236063   3.579   4.195   2.307 -0.0560 -0.4637 -0.4028
 4835TIP3    H136064   3.653   4.256   2.309 -0.1366 -0.4037  1.2163
 4835TIP3    H236065   3.613   4.115   2.348  0.0445 -1.5283 -2.4988
 4836TIP3   OH236066   0.670   3.938   1.635 -0.0728  0.3402  0.1473
 4836TIP3    H136067   0.584   3.901   1.653 -0.3005  0.8706  0.1782
 4836TIP3    H236068   0.660   3.983   1.550  0.1371  0.5056  0.2087
 4837TIP3   OH236069   2.749   4.332   1.696  0.2415  0.1005 -0.0001
 4837TIP3    H136070   2.723   4.240   1.690  0.1054  0.1690 -0.4878
 4837TIP3    H236071   2.769   4.345   1.789  0.1084 -0.3799  0.0989
 4838TIP3   OH236072   2.386   1.023   2.030  0.4726  0.7838  0.1287
 4838TIP3    H136073   2.465   1.051   1.984  0.5903  1.5220  0.7925
 4838TIP3    H236074   2.400   0.929   2.046  0.1028  0.3371 -2.0086
 4839TIP3   OH236075   3.986   0.659   1.299  0.4458 -0.2112  0.2323
 4839TIP3    H136076   4.066   0.702   1.329  0.0911 -0.5435  1.7262
 4839TIP3    H236077   3.923   0.673   1.370 -1.1000  0.7746 -1.2868
 4840TIP3   OH236078   1.160   1.102   6.622 -0.1113  0.3189  0.3521
 4840TIP3    H136079   1.152   1.121   6.716 -0.4087 -0.8071  0.5644
 4840TIP3    H236080   1.070   1.094   6.592 -0.0340  1.2898 -0.1763
 4841TIP3   OH236081   3.324   1.966   0.863 -0.0292 -0.1897  0.0001
 4841TIP3    H136082   3.367   2.045   0.893  0.5567 -1.0691  1.5644
 4841TIP3    H236083   3.387   1.924   0.804  0.8518 -0.9248  1.4321
 4842TIP3   OH236084   1.013   1.617   6.856  0.2027 -0.8617 -0.2896
 4842TIP3    H136085   0.949   1.641   6.923  0.7967  0.9289 -0.3090
 4842TIP3    H236086   0.976   1.651   6.774  0.2235 -1.6234 -0.6115
 4843TIP3   OH236087   4.283   4.375   0.868 -0.2725  0.3406  0.0351
 4843TIP3    H136088   4.214   4.360   0.803 -1.6112 -2.2368  1.9618
 4843TIP3    H236089   4.263   4.461   0.905 -2.6956 -0.5093  0.7957
 4844TIP3   OH236090   1.359   2.459   1.215 -0.0042  0.0675  0.0637
 4844TIP3    H136091   1.280   2.468   1.162  0.5696  1.5898 -0.5632
 4844TIP3    H236092   1.420   2.523   1.178  1.7700 -1.5574  0.0859
 4845TIP3   OH236093   2.605   4.671   0.503  0.4393  0.2230  0.1153
 4845TIP3    H136094   2.581   4.679   0.411  2.0871 -1.7008 -0.5029
 4845TIP3    H236095   2.653   4.588   0.509  0.1415  0.2010  2.7464
 4846TIP3   OH236096   2.318   3.571   2.623 -0.2697 -0.0283 -0.1095
 4846TIP3    H136097   2.283   3.619   2.698  0.4679  1.1817 -0.5324
 4846TIP3    H236098   2.282   3.483   2.633  0.1295 -0.0017  1.8837
 4847TIP3   OH236099   0.478   2.805   0.612 -0.0957  0.1500 -0.0358
 4847TIP3    H136100   0.407   2.867   0.633  0.2391  0.2521  0.8133
 4847TIP3    H236101   0.549   2.829   0.672  1.2970  1.1506 -2.0236
 4848TIP3   OH236102   3.697   4.207   8.382  0.1552 -0.5208  0.4312
 4848TIP3    H136103   3.759   4.280   8.385 -0.7314  0.2208  1.2239
 4848TIP3    H236104   3.680   4.195   8.289  2.2694 -1.4223  0.1431
 4849TIP3   OH236105   5.012   3.366   1.573 -0.6787 -0.7550  0.3047
 4849TIP3    H136106   5.029   3.439   1.514 -0.6163 -0.3877  0.7776
 4849TIP3    H236107   4.974   3.406   1.651 -0.0834 -1.1576  0.8045
 4850TIP3   OH236108   2.413   2.151   8.440  0.4155 -0.1647  0.6635
 4850TIP3    H136109   2.368   2.236   8.433  2.6728  1.0515  0.5411
 4850TIP3    H236110   2.384   2.103   8.362  1.7887  1.8347 -1.1565
 4851TIP3   OH236111   2.099   2.989   2.338  0.4349  0.1408 -0.0366
 4851TIP3    H136112   2.012   2.949   2.332  0.4705 -0.0839  0.8138
 4851TIP3    H236113   2.159   2.915   2.325  0.5200  0.7028 -3.1309
 4852TIP3   OH236114   3.629   0.651   7.276  0.3519 -0.0545  0.3077
 4852TIP3    H136115   3.725   0.652   7.277  0.3523 -0.2311  0.6309
 4852TIP3    H236116   3.604   0.743   7.273  0.5323 -0.0124  0.0194
 4853TIP3   OH236117   2.510   3.014   0.880 -0.5315 -0.5100 -0.7122
 4853TIP3    H136118   2.452   2.939   0.872 -0.4085 -0.8596  1.3478
 4853TIP3    H236119   2.566   3.009   0.803 -3.3171 -0.0459 -2.8333
 4854TIP3   OH236120   3.137   3.193   1.879  0.7652 -0.0357  0.0531
 4854TIP3    H136121   3.179   3.264   1.829  0.6874 -0.8751 -1.2152
 4854TIP3    H236122   3.194   3.181   1.955  0.8249  1.3330  0.2420
 4855TIP3   OH236123   0.800   1.783   1.517 -0.2786 -0.0859 -0.4677
 4855TIP3    H136124   0.791   1.878   1.511  0.9722  0.0934  0.2987
 4855TIP3    H236125   0.894   1.767   1.509 -0.4481 -1.2422 -0.3167
 4856TIP3   OH236126   2.875   4.823   0.074  0.4637 -0.2912 -0.0550
 4856TIP3    H136127   2.859   4.730   0.058  1.2616 -0.5118  0.3853
 4856TIP3    H236128   2.888   4.830   0.168 -1.3304  0.5514  0.1549
 4857TIP3   OH236129   2.862   2.065   1.999 -0.4000 -0.3892  0.3267
 4857TIP3    H136130   2.767   2.081   1.999 -0.3739 -0.2005  1.3481
 4857TIP3    H236131   2.879   2.023   1.915 -1.3622 -0.2270  0.0440
 4858TIP3   OH236132   0.806   1.127   0.654  0.2079  0.1361  0.7539
 4858TIP3    H136133   0.742   1.120   0.583 -0.1161  0.0835  1.0476
 4858TIP3    H236134   0.847   1.212   0.641  1.7321 -0.8124 -0.8064
 4859TIP3   OH236135   2.890   2.626   1.590  0.0522 -0.5646  0.3357
 4859TIP3    H136136   2.974   2.584   1.574  1.3006  2.4096 -1.3343
 4859TIP3    H236137   2.907   2.689   1.660 -0.5336  0.6553 -0.5877
 4860TIP3   OH236138   3.033   2.774   0.122  0.3955 -0.4136  0.0247
 4860TIP3    H136139   2.984   2.820   0.054 -0.8746  0.2816  1.3611
 4860TIP3    H236140   3.125   2.787   0.099  0.0445  2.0949 -0.1067
 4861TIP3   OH236141   2.609   1.514   2.438 -0.1007 -0.6330  0.9558
 4861TIP3    H136142   2.600   1.427   2.399 -1.0922 -0.2570  0.3112
 4861TIP3    H236143   2.518   1.545   2.448  0.2445  0.3466  1.1213
 4862TIP3   OH236144   3.551   1.423   0.177 -0.1510 -0.5076 -0.0135
 4862TIP3    H136145   3.521   1.456   0.092  1.2605  2.0702  0.4407
 4862TIP3    H236146   3.485   1.454   0.240  0.3832  0.1663  0.2179
 4863TIP3   OH236147   1.341   2.744   7.488 -0.2372  0.9497 -0.5137
 4863TIP3    H136148   1.421   2.787   7.518  1.5730 -1.7375 -1.2359
 4863TIP3    H236149   1.370   2.687   7.417 -2.5909 -0.9173 -0.0420
 4864TIP3   OH236150   3.305   2.578   0.652  0.0302  0.2313 -0.2356
 4864TIP3    H136151   3.257   2.660   0.642 -1.4602 -0.1320  3.3702
 4864TIP3    H236152   3.327   2.574   0.745  1.4406 -2.7300 -0.6470
 4865TIP3   OH236153   1.939   1.534   1.730 -0.2326 -0.2745 -0.3256
 4865TIP3    H136154   1.847   1.558   1.737 -0.5315 -1.4084 -0.2667
 4865TIP3    H236155   1.959   1.492   1.814  0.2326 -0.3793 -0.4880
 4866TIP3   OH236156   1.385   2.094   0.809  0.1928  0.4905  0.0488
 4866TIP3    H136157   1.338   2.145   0.743  1.1592  0.7905 -0.4100
 4866TIP3    H236158   1.386   2.150   0.887 -1.6229 -0.1723  0.5864
 4867TIP3   OH236159   3.101   1.820   0.771  0.0466  0.2558 -0.5105
 4867TIP3    H136160   3.087   1.905   0.813  0.2122 -0.7090  1.5361
 4867TIP3    H236161   3.190   1.795   0.795 -0.2816 -0.8749 -0.4318
 4868TIP3   OH236162   2.187   0.832   1.839 -0.4058  0.3770 -0.1791
 4868TIP3    H136163   2.264   0.819   1.894 -1.3990 -0.4656  1.0595
 4868TIP3    H236164   2.207   0.786   1.757  0.1941 -0.3023  0.3430
 4869TIP3   OH236165   2.891   1.130   1.886  0.2592  0.2124  0.1693
 4869TIP3    H136166   2.899   1.035   1.885  0.1736  0.2103 -0.3496
 4869TIP3    H236167   2.853   1.150   1.972 -1.0901 -0.3313 -0.2892
 4870TIP3   OH236168   3.938   2.780   1.800  0.4406 -0.4964  0.2369
 4870TIP3    H136169   4.017   2.738   1.836  0.3805 -1.4232 -0.6988
 4870TIP3    H236170   3.966   2.817   1.717  0.3104  0.7280  0.7269
 4871TIP3   OH236171   1.825   2.190   0.582 -0.0754 -0.0231  0.8578
 4871TIP3    H136172   1.831   2.223   0.492  0.7100 -1.5502  0.3161
 4871TIP3    H236173   1.753   2.127   0.579 -0.0304 -0.0923  1.2930
 4872TIP3   OH236174   4.576   2.198   1.809  0.2102 -0.0241  0.9355
 4872TIP3    H136175   4.582   2.144   1.730  0.9647 -0.4870  1.3064
 4872TIP3    H236176   4.530   2.277   1.780  0.3541 -0.2478  0.0622
 4873TIP3   OH236177   2.416   2.426   2.290 -0.1721 -0.5767  0.0161
 4873TIP3    H136178   2.398   2.506   2.241 -0.3562 -0.4821  0.2390
 4873TIP3    H236179   2.339   2.371   2.277 -0.9026  0.0860  1.4879
 4874TIP3   OH236180   1.798   2.534   0.585 -0.0022 -0.5207 -0.5524
 4874TIP3    H136181   1.848   2.461   0.548 -0.2734 -1.3747  0.7231
 4874TIP3    H236182   1.789   2.512   0.678  2.3257  2.4677  0.4828
 4875TIP3   OH236183   0.218   4.084   1.212 -0.3341  0.2600  0.5424
 4875TIP3    H136184   0.213   4.016   1.279 -1.3868 -0.9463 -0.7259
 4875TIP3    H236185   0.310   4.082   1.183 -0.6975 -1.6936 -0.5430
 4876TIP3   OH236186   7.287   6.015   1.707 -0.0662 -0.0356 -0.0537
 4876TIP3    H136187   7.213   5.979   1.756  0.7440  0.1961  1.3884
 4876TIP3    H236188   7.363   5.971   1.745  0.5205 -0.3979 -1.6355
 4877TIP3   OH236189   1.330   4.090   1.105  0.0465  0.0274  0.0801
 4877TIP3    H136190   1.360   4.000   1.124  1.2678  0.7853  1.9582
 4877TIP3    H236191   1.386   4.145   1.160 -1.1005  1.9066 -0.6055
 4878TIP3   OH236192   2.966   1.570   1.430 -0.6172 -0.7092 -0.1537
 4878TIP3    H136193   2.982   1.640   1.493 -1.0238 -0.4901 -0.2992
 4878TIP3    H236194   2.991   1.490   1.478 -0.0766 -0.4673 -0.0165
 4879TIP3   OH236195   3.139   3.458   1.946 -0.0951 -0.1726 -0.1179
 4879TIP3    H136196   3.169   3.397   2.013  0.1691 -0.1845 -0.2492
 4879TIP3    H236197   3.170   3.544   1.976  1.6067 -0.4046 -1.1470
 4880TIP3   OH236198   4.089   3.906   2.005 -0.4902 -0.9457  0.2102
 4880TIP3    H136199   4.155   3.845   1.971 -0.2844 -0.1199 -0.9153
 4880TIP3    H236200   4.031   3.921   1.931 -0.3662  0.4550  0.3911
 4881TIP3   OH236201   2.561   2.828   1.182  0.0003 -0.5335  0.1212
 4881TIP3    H136202   2.571   2.777   1.262  0.6467 -1.6026 -0.6322
 4881TIP3    H236203   2.497   2.779   1.130 -0.1032 -0.0657 -0.1957
 4882TIP3   OH236204   4.280   2.087   7.617 -0.7292 -0.1108  0.8653
 4882TIP3    H136205   4.252   2.025   7.550  1.4450 -0.5598  0.3548
 4882TIP3    H236206   4.359   2.128   7.582 -1.4641  2.0970  1.7100
 4883TIP3   OH236207   2.584   1.741   8.349 -0.0282 -0.3182 -0.0759
 4883TIP3    H136208   2.627   1.823   8.322  1.0354 -0.5938  0.7000
 4883TIP3    H236209   2.539   1.764   8.431 -0.1934 -0.3737 -0.1511
 4884TIP3   OH236210   2.227   2.285   0.385 -0.3766  0.4859  0.2518
 4884TIP3    H136211   2.307   2.335   0.367 -0.3635 -0.3976 -2.2945
 4884TIP3    H236212   2.251   2.194   0.365 -2.0140  0.2246 -0.5482
 4885TIP3   OH236213   4.587   0.046   0.701  0.0373  0.0789 -0.7291
 4885TIP3    H136214   4.586   0.102   0.623 -1.2357  0.8265 -0.1873
 4885TIP3    H236215   4.509   0.071   0.749 -0.2324 -1.7712 -0.1833
 4886TIP3   OH236216   3.544   2.744   0.725  0.3864  0.2169 -0.3891
 4886TIP3    H136217   3.581   2.698   0.801  1.1785 -0.1165 -0.9677
 4886TIP3    H236218   3.450   2.751   0.745  0.3656 -1.0214  0.0398
 4887TIP3   OH236219   2.631   1.144   0.699 -0.3823  0.7299  0.5865
 4887TIP3    H136220   2.651   1.238   0.703  3.2254 -0.0122  1.6888
 4887TIP3    H236221   2.634   1.115   0.790 -0.4771 -0.6273  0.1674
 4888TIP3   OH236222   0.627   4.701   0.685 -0.3232 -0.7199 -0.0183
 4888TIP3    H136223   0.689   4.633   0.710  0.4147 -0.8794 -2.1474
 4888TIP3    H236224   0.670   4.783   0.707 -0.2110 -0.8835  0.3651
 4889TIP3   OH236225   2.723   2.364   0.852  0.2057  0.5531 -0.5964
 4889TIP3    H136226   2.713   2.395   0.942 -0.8513 -0.1585 -0.4549
 4889TIP3    H236227   2.670   2.424   0.800 -0.5039 -0.0175 -0.5333
 4890TIP3   OH236228   1.466   2.212   8.214  0.3273  0.2331  0.1321
 4890TIP3    H136229   1.508   2.128   8.231  0.3410  0.4918  1.4341
 4890TIP3    H236230   1.460   2.254   8.300  0.5706  1.6762 -0.5340
 4891TIP3   OH236231   3.631   3.172   7.230  0.3810 -0.5447  0.1642
 4891TIP3    H136232   3.683   3.092   7.240  0.8919 -0.1411  0.7780
 4891TIP3    H236233   3.541   3.141   7.227  0.5900 -1.1715  0.1176
 4892TIP3   OH236234   0.971   1.524   1.648  0.1131 -0.4090  0.3492
 4892TIP3    H136235   0.973   1.595   1.584 -0.8019  0.3573  1.1629
 4892TIP3    H236236   0.946   1.566   1.730 -2.1438 -1.9072  0.4792
 4893TIP3   OH236237   3.471   2.621   1.843  0.2814 -0.0605  0.1307
 4893TIP3    H136238   3.406   2.555   1.868 -1.2506  1.0467 -0.8619
 4893TIP3    H236239   3.421   2.702   1.834  1.7612  0.7671 -0.8875
 4894TIP3   OH236240   5.745   2.230   2.026 -0.3167 -0.2274  0.0447
 4894TIP3    H136241   5.767   2.200   2.114  3.4932 -0.0034 -0.7606
 4894TIP3    H236242   5.722   2.322   2.037  0.2076 -0.1811  0.7665
 4895TIP3   OH236243   2.992   1.856   1.387 -0.1882 -0.1433  0.3573
 4895TIP3    H136244   2.981   1.763   1.366  0.3310 -0.6487  2.2110
 4895TIP3    H236245   3.039   1.856   1.471  1.9499  1.8059 -0.7884
 4896TIP3   OH236246   4.333   3.180   1.725 -0.4652  0.2620 -0.4054
 4896TIP3    H136247   4.338   3.085   1.716  0.3204  0.3653 -1.1815
 4896TIP3    H236248   4.269   3.207   1.659 -0.4499  0.2988 -0.4051
 4897TIP3   OH236249   1.957   3.771   1.376 -0.0261 -0.3414  0.4453
 4897TIP3    H136250   2.027   3.707   1.385  1.0866  0.4522 -1.9995
 4897TIP3    H236251   1.985   3.827   1.304 -1.5970  2.0850  1.6349
 4898TIP3   OH236252   2.836   1.874   1.019 -0.3351  0.2625 -0.8975
 4898TIP3    H136253   2.929   1.877   1.043 -0.2317 -0.5760 -1.2001
 4898TIP3    H236254   2.796   1.940   1.075  0.3169  0.0739 -0.1961
 4899TIP3   OH236255   0.812   2.563   0.756 -0.7793  0.0853  0.3962
 4899TIP3    H136256   0.867   2.495   0.793  0.3582 -1.5151 -3.8823
 4899TIP3    H236257   0.871   2.638   0.744 -0.6291 -0.1070 -0.0760
 4900TIP3   OH236258   3.555   1.221   0.354 -1.2753 -0.0124  0.7603
 4900TIP3    H136259   3.570   1.294   0.293  0.1506 -0.3092  0.7412
 4900TIP3    H236260   3.637   1.171   0.352 -1.1610  0.0302  3.0099
 4901TIP3   OH236261   4.083   6.862   8.369 -0.2370 -0.3643  0.1117
 4901TIP3    H136262   4.073   6.791   8.305  0.5768 -0.5866  0.2246
 4901TIP3    H236263   3.994   6.878   8.401 -0.2274 -2.3315  1.1664
 4902TIP3   OH236264   3.098   3.409   0.772 -0.1231  0.0603 -0.5553
 4902TIP3    H136265   3.059   3.480   0.720 -0.7452 -0.3173 -0.6069
 4902TIP3    H236266   3.111   3.448   0.859  1.0499  0.7371 -1.0143
 4903TIP3   OH236267   0.429   1.915   1.868 -0.0296  0.0328 -0.1931
 4903TIP3    H136268   0.384   1.839   1.904  1.5728 -0.7808  0.1787
 4903TIP3    H236269   0.474   1.954   1.943  1.3544 -0.2530 -0.8448
 4904TIP3   OH236270   1.850   4.639   1.412  0.9022  0.1750  0.1773
 4904TIP3    H136271   1.755   4.639   1.427  0.8372 -1.8653 -0.0768
 4904TIP3    H236272   1.876   4.731   1.420 -0.7432  0.4815  2.5220
 4905TIP3   OH236273   3.614   2.305   1.814 -0.3538 -0.2913 -0.1908
 4905TIP3    H136274   3.568   2.372   1.865 -0.3754  0.6127 -1.3786
 4905TIP3    H236275   3.698   2.345   1.792  1.1724 -2.0690  2.2506
 4906TIP3   OH236276   2.718   1.490   8.263 -0.5740 -0.0695 -0.1885
 4906TIP3    H136277   2.749   1.578   8.245 -1.8023  0.2262 -0.9155
 4906TIP3    H236278   2.692   1.491   8.355  1.6289 -0.3543  0.4644
 4907TIP3   OH236279   3.610   3.998   0.089 -0.4097 -0.0511  0.7684
 4907TIP3    H136280   3.678   4.051   0.047 -0.5845  0.8346  1.5836
 4907TIP3    H236281   3.531   4.016   0.038  0.2030 -2.0420 -0.9533
 4908TIP3   OH236282   2.766   2.333   1.800  0.6595 -0.0284 -0.0038
 4908TIP3    H136283   2.750   2.240   1.786  2.9272 -0.5216  0.3987
 4908TIP3    H236284   2.801   2.364   1.717  0.7712  0.2409  0.1418
 4909TIP3   OH236285   2.099   4.039   1.609  0.4615  0.2945  0.2480
 4909TIP3    H136286   2.177   4.092   1.627  0.3069  0.8302 -0.5845
 4909TIP3    H236287   2.133   3.958   1.573  0.6924 -0.0645  1.2594
 4910TIP3   OH236288   3.261   3.084   1.370  0.2203 -0.3985 -0.1503
 4910TIP3    H136289   3.198   3.028   1.416 -0.6484  1.2855  0.7668
 4910TIP3    H236290   3.309   3.128   1.441  0.2878  0.6680 -0.8462
 4911TIP3   OH236291   2.219   4.387   1.543 -0.1419 -0.3000 -0.1826
 4911TIP3    H136292   2.197   4.440   1.466  2.1505 -0.0062 -0.6572
 4911TIP3    H236293   2.134   4.356   1.575 -1.2670  1.0324 -1.7758
 4912TIP3   OH236294   3.167   3.773   0.577 -0.1034  0.6606  0.1448
 4912TIP3    H136295   3.251   3.756   0.534 -0.3242  0.9490 -0.4138
 4912TIP3    H236296   3.175   3.863   0.610  0.0669  0.4376  0.7090
 4913TIP3   OH236297   2.501   4.636   1.558  0.2031  0.2829  0.5185
 4913TIP3    H136298   2.415   4.658   1.594  0.3930  0.8410  0.6362
 4913TIP3    H236299   2.552   4.607   1.633  1.0352  2.7817  0.9583
 4914TIP3   OH236300   3.148   4.386   0.056 -0.5762  0.4952  0.1251
 4914TIP3    H136301   3.202   4.426   0.124 -0.1271  0.4837 -0.2235
 4914TIP3    H236302   3.147   4.293   0.080  0.2302  0.3648 -0.3183
 4915TIP3   OH236303   0.091   3.102   2.260  0.5538  0.4298  0.5722
 4915TIP3    H136304   0.130   3.172   2.312  2.6764  0.1762 -0.6175
 4915TIP3    H236305   0.104   3.130   2.169 -0.8136 -0.3376  0.1252
 4916TIP3   OH236306   2.705   4.623   1.098  0.1805 -0.0832  0.3837
 4916TIP3    H136307   2.754   4.543   1.078 -2.9210 -1.9499 -0.1229
 4916TIP3    H236308   2.770   4.693   1.093  2.7855 -2.4553 -0.1298
 4917TIP3   OH236309   2.630   3.803   1.010 -0.3528  0.4741 -0.1230
 4917TIP3    H136310   2.663   3.713   1.004  0.7084  1.0188 -4.2968
 4917TIP3    H236311   2.707   3.855   1.032 -0.8565  0.4644  1.7375
 4918TIP3   OH236312   2.489   2.299   0.314  0.4270 -0.6131 -0.1194
 4918TIP3    H136313   2.558   2.274   0.251  1.8065 -1.2192  1.6004
 4918TIP3    H236314   2.537   2.327   0.392 -1.2539  1.2361  0.2775
 4919TIP3   OH236315   2.996   0.209   1.344 -0.3604 -0.0994  0.3649
 4919TIP3    H136316   2.938   0.212   1.267 -0.3588  0.6314  0.3916
 4919TIP3    H236317   2.996   0.299   1.377  2.6603  0.4670 -1.0208
 4920TIP3   OH236318   2.216   7.016   1.142  0.6435  0.2399 -0.6144
 4920TIP3    H136319   2.233   6.924   1.162  0.5193  0.5100  0.8138
 4920TIP3    H236320   2.141   7.015   1.083 -0.2048 -0.5205  0.4682
 4921TIP3   OH236321   2.980   2.583   0.967  0.0500 -0.4173  0.1901
 4921TIP3    H136322   2.895   2.581   1.012 -0.8169 -0.5072 -1.4470
 4921TIP3    H236323   3.013   2.672   0.982 -1.0870  0.1376 -0.5674
 4922TIP3   OH236324   3.246   1.132   7.290  0.2109 -0.4949 -0.0203
 4922TIP3    H136325   3.238   1.043   7.323 -0.5117 -0.6743 -0.6480
 4922TIP3    H236326   3.326   1.132   7.237  1.9696  0.0751  2.5476
 4923TIP3   OH236327   3.706   1.443   7.980  0.2600  0.2815  0.2697
 4923TIP3    H136328   3.732   1.352   7.992  0.0083  0.0883 -0.6678
 4923TIP3    H236329   3.739   1.487   8.058 -0.1116 -0.7125  1.0055
 4924TIP3   OH236330   3.516   2.871   0.977 -0.2566 -0.0525  0.2854
 4924TIP3    H136331   3.598   2.824   0.993  0.4603  0.9018 -0.4724
 4924TIP3    H236332   3.531   2.958   1.015 -0.9459  0.1032  0.2063
 4925TIP3   OH236333   2.602   4.333   7.524  0.2214 -0.6512  0.6886
 4925TIP3    H136334   2.652   4.253   7.511 -0.6039 -1.2481  1.1425
 4925TIP3    H236335   2.624   4.360   7.613 -0.9373 -1.3954  1.2032
 4926TIP3   OH236336   2.076   1.685   7.913  0.0055 -0.0509  0.3667
 4926TIP3    H136337   2.003   1.638   7.953 -0.0832  0.5735  0.9448
 4926TIP3    H236338   2.150   1.626   7.922 -0.3222 -0.4920  0.2004
 4927TIP3   OH236339   2.885   1.780   7.323  0.0578 -0.0594 -0.1418
 4927TIP3    H136340   2.863   1.693   7.289  0.4505  0.0341 -0.6598
 4927TIP3    H236341   2.915   1.764   7.412 -0.9881 -0.3145  0.1686
 4928TIP3   OH236342   1.578   4.572   1.175 -0.6213 -0.1297 -0.0811
 4928TIP3    H136343   1.589   4.591   1.268  0.9230  1.9071 -0.6175
 4928TIP3    H236344   1.665   4.544   1.146 -1.1597 -1.0322 -0.8454
 4929TIP3   OH236345   2.733   3.977   1.446 -0.1859  0.6648 -0.2330
 4929TIP3    H136346   2.670   4.024   1.392  0.4584  0.9432 -0.7520
 4929TIP3    H236347   2.816   3.988   1.400 -0.6973 -4.6970 -2.7446
 4930TIP3   OH236348   2.313   1.291   1.578  0.3926 -0.3103 -0.4047
 4930TIP3    H136349   2.281   1.309   1.666 -0.3140 -0.1748 -0.6894
 4930TIP3    H236350   2.336   1.198   1.580 -0.6216 -0.5639 -0.3842
 4931TIP3   OH236351   2.927   1.792   8.422 -0.0474 -0.2591  0.1435
 4931TIP3    H136352   2.994   1.727   8.443  1.2120  1.5881  2.0424
 4931TIP3    H236353   2.897   1.824   8.507 -1.1258  1.1716 -0.7514
 4932TIP3   OH236354   3.363   3.654   0.827  0.7907 -0.0795 -0.6244
 4932TIP3    H136355   3.409   3.580   0.868  1.9183  0.7793 -0.3102
 4932TIP3    H236356   3.305   3.687   0.896 -1.1903 -1.8855 -1.3809
 4933TIP3   OH236357   3.802   2.432   2.025 -0.1295 -0.3556  0.0356
 4933TIP3    H136358   3.801   2.484   1.945  0.6420 -1.4725 -0.7177
 4933TIP3    H236359   3.745   2.479   2.086 -0.0309  0.9568 -0.8778
 4934TIP3   OH236360   3.316   5.297   0.262 -0.0417 -0.6283 -0.3753
 4934TIP3    H136361   3.303   5.327   0.352 -0.0105 -1.1533 -0.1969
 4934TIP3    H236362   3.315   5.378   0.210  0.6647 -0.2567  0.1771
 4935TIP3   OH236363   2.753   3.168   1.581 -0.0348 -0.0665 -0.1857
 4935TIP3    H136364   2.706   3.140   1.660 -1.5774  2.2359 -0.2659
 4935TIP3    H236365   2.845   3.162   1.606 -0.4261 -1.3710  1.0848
 4936TIP3   OH236366   3.478   3.416   0.260 -0.4037  0.7143  0.0996
 4936TIP3    H136367   3.551   3.478   0.261  0.6910 -0.5807  0.0738
 4936TIP3    H236368   3.476   3.384   0.170 -1.2209  0.9874  0.0141
 4937TIP3   OH236369   4.090   1.874   0.713  0.3942  0.5006 -0.0583
 4937TIP3    H136370   4.045   1.954   0.686 -3.1927 -1.3603  0.0186
 4937TIP3    H236371   4.064   1.862   0.805  0.1012 -1.2411 -0.3494
 4938TIP3   OH236372   3.281   2.961   1.118 -0.3553 -0.6017 -0.2758
 4938TIP3    H136373   3.365   2.927   1.088 -0.5284 -2.7499  1.5605
 4938TIP3    H236374   3.301   3.004   1.202 -0.9322 -0.2613 -0.3089
 4939TIP3   OH236375   3.380   4.866   0.880  0.5506 -0.1701 -0.0712
 4939TIP3    H136376   3.293   4.902   0.862  0.6127 -0.3291 -0.7179
 4939TIP3    H236377   3.427   4.938   0.922  0.7202  0.5804 -1.5030
 4940TIP3   OH236378   3.259   0.659   1.375  0.1446  0.1364 -0.0897
 4940TIP3    H136379   3.196   0.606   1.327  2.1418 -0.6997 -1.9143
 4940TIP3    H236380   3.240   0.749   1.349 -0.2881 -0.1085 -0.6324
 4941TIP3   OH236381   3.505   3.203   0.701  0.1358  0.0822 -0.7703
 4941TIP3    H136382   3.411   3.204   0.686  0.0924  2.6235 -0.6986
 4941TIP3    H236383   3.544   3.231   0.618  0.7182  0.3696 -0.4142
 4942TIP3   OH236384   3.576   4.410   0.756  0.4052 -0.2035  0.7329
 4942TIP3    H136385   3.560   4.483   0.816 -2.0252 -0.5563  0.5715
 4942TIP3    H236386   3.626   4.347   0.808 -1.1279 -0.2317  2.2082
 4943TIP3   OH236387   4.860   2.363   1.487 -0.1657  0.4708  0.1382
 4943TIP3    H136388   4.890   2.309   1.561  0.2142  0.3364 -0.1084
 4943TIP3    H236389   4.798   2.424   1.526 -0.9164 -0.4174  0.3479
 4944TIP3   OH236390   6.355   2.129   2.004  0.0522 -0.3230 -0.5995
 4944TIP3    H136391   6.343   2.224   1.999  0.4508 -0.3607 -2.5948
 4944TIP3    H236392   6.441   2.118   2.045 -0.9873  0.1119  1.7964
 4945TIP3   OH236393   3.449   1.735   1.177 -0.1314 -0.3596  0.1180
 4945TIP3    H136394   3.477   1.679   1.249  1.3061 -0.2670 -0.3647
 4945TIP3    H236395   3.435   1.675   1.104 -0.2150 -0.2863  0.0738
 4946TIP3   OH236396   5.584   2.671   1.584  0.0071 -0.0226 -0.3469
 4946TIP3    H136397   5.526   2.717   1.523  0.2642 -0.8197 -1.2069
 4946TIP3    H236398   5.570   2.578   1.565  0.9436 -0.2489  0.0218
 4947TIP3   OH236399   3.076   6.189   1.483  0.1210  0.1201  0.5974
 4947TIP3    H136400   3.169   6.206   1.493 -0.2650  3.5269 -0.9068
 4947TIP3    H236401   3.039   6.201   1.570  1.0615 -1.3217  1.2151
 4948TIP3   OH236402   5.901   7.218   8.292 -0.7892 -0.2548  0.2399
 4948TIP3    H136403   5.900   7.270   8.372  0.0931  0.2524 -0.0860
 4948TIP3    H236404   5.990   7.184   8.285 -0.1801  1.6511 -1.7895
 4949TIP3   OH236405   6.682   2.018   1.159 -0.5261  0.0233 -0.3916
 4949TIP3    H136406   6.651   2.107   1.174  0.0973  0.4668 -1.6695
 4949TIP3    H236407   6.758   2.008   1.216 -0.8516  0.1553  0.0686
 4950TIP3   OH236408   6.602   2.300   2.201 -0.0041 -0.1525 -0.2360
 4950TIP3    H136409   6.626   2.311   2.109  0.5221  2.2633  0.1313
 4950TIP3    H236410   6.686   2.284   2.246 -0.0915  0.0205 -0.0098
 4951TIP3   OH236411   4.512   1.672   2.027 -0.6258  0.2564  0.2020
 4951TIP3    H136412   4.463   1.648   1.948 -0.4963 -1.5890  0.6525
 4951TIP3    H236413   4.448   1.665   2.098  0.0016 -1.1280  0.6531
 4952TIP3   OH236414   2.361   3.155   1.083 -0.1038 -0.5439 -0.0428
 4952TIP3    H136415   2.411   3.090   1.034  1.7849 -0.2439  1.4279
 4952TIP3    H236416   2.343   3.113   1.167  1.4426  0.9326  1.0561
 4953TIP3   OH236417   1.456   3.955   7.811  0.2163  0.2608 -0.3153
 4953TIP3    H136418   1.421   3.926   7.895 -1.4615 -1.2878 -1.5053
 4953TIP3    H236419   1.546   3.980   7.829 -0.0887 -0.1668  1.9067
 4954TIP3   OH236420   6.578   2.823   2.172  0.3944 -0.0873  0.3887
 4954TIP3    H136421   6.564   2.862   2.258 -0.7211 -1.3264  0.7798
 4954TIP3    H236422   6.572   2.729   2.186  0.5695 -0.3190 -0.9806
 4955TIP3   OH236423   2.903   2.416   7.165 -0.6318 -0.5209 -0.2113
 4955TIP3    H136424   2.893   2.484   7.099 -0.5763 -0.0910  0.2223
 4955TIP3    H236425   2.864   2.453   7.244  0.3280 -0.5855  0.2989
 4956TIP3   OH236426   5.045   4.150   1.692  0.1311 -0.3568 -0.1250
 4956TIP3    H136427   5.068   4.147   1.785  0.7286  0.8929 -0.2229
 4956TIP3    H236428   4.950   4.138   1.691  0.1065 -0.2740  0.6592
 4957TIP3   OH236429   4.016   2.451   0.778  0.2954  0.9468  0.7706
 4957TIP3    H136430   3.923   2.455   0.757  0.3114  3.9155  1.0132
 4957TIP3    H236431   4.056   2.519   0.723  2.3699 -0.5144  0.4151
 4958TIP3   OH236432   4.508   0.860   2.175  0.3540  0.0338 -0.0706
 4958TIP3    H136433   4.474   0.796   2.237  0.3591 -0.8452 -0.9532
 4958TIP3    H236434   4.603   0.852   2.181  0.3450 -1.0867 -1.2246
 4959TIP3   OH236435   5.571   1.881   1.764 -0.3826  0.0169 -0.1258
 4959TIP3    H136436   5.576   1.975   1.747 -0.6222  0.5026  2.3046
 4959TIP3    H236437   5.503   1.873   1.831  1.2028 -1.6531  1.3291
 4960TIP3   OH236438   6.444   0.645   0.430  0.5448  0.3549  0.7258
 4960TIP3    H136439   6.511   0.695   0.477  0.4403  0.2751  0.9568
 4960TIP3    H236440   6.361   0.672   0.469  0.3194  1.5817 -0.5892
 4961TIP3   OH236441   2.134   3.564   0.848 -0.1431  0.3082  0.8824
 4961TIP3    H136442   2.150   3.476   0.882 -1.7504  0.4280  1.9687
 4961TIP3    H236443   2.207   3.579   0.787 -0.4852 -2.2151 -0.2201
 4962TIP3   OH236444   4.101   2.610   1.942  0.2553 -0.1068 -0.5900
 4962TIP3    H136445   4.083   2.585   2.032 -0.6856 -0.6977 -0.9326
 4962TIP3    H236446   4.089   2.530   1.891  1.1251  0.1405 -1.1968
 4963TIP3   OH236447   4.158   4.417   1.483 -1.1056 -0.3055  0.1277
 4963TIP3    H136448   4.142   4.324   1.496 -1.0456 -0.3477 -0.1059
 4963TIP3    H236449   4.228   4.421   1.418 -1.2838 -0.0937 -0.0519
 4964TIP3   OH236450   4.447   2.416   1.748 -0.5453  0.3065 -0.1762
 4964TIP3    H136451   4.406   2.445   1.830 -2.2397 -1.4129 -0.3786
 4964TIP3    H236452   4.411   2.475   1.682 -1.3783 -0.0955 -0.0911
 4965TIP3   OH236453   2.321   3.825   7.461  0.1756 -0.5352 -0.3243
 4965TIP3    H136454   2.377   3.894   7.426 -0.1866  1.1857  2.3392
 4965TIP3    H236455   2.377   3.776   7.521 -0.2287 -1.0038 -0.3235
 4966TIP3   OH236456   7.131   3.182   2.199  0.1555  0.7513  0.2018
 4966TIP3    H136457   7.204   3.126   2.223 -1.2958 -1.2071  0.1762
 4966TIP3    H236458   7.062   3.160   2.261 -1.2758  0.7090 -1.3724
 4967TIP3   OH236459   5.035   3.630   1.471  0.1345 -0.1120  0.3983
 4967TIP3    H136460   5.072   3.710   1.434 -0.8648 -0.2274 -0.8804
 4967TIP3    H236461   5.002   3.656   1.557  0.8288  0.5815  0.4592
 4968TIP3   OH236462   5.073   1.487   2.213  0.2015 -0.1765 -0.1004
 4968TIP3    H136463   5.005   1.433   2.251 -0.0690  0.0780 -0.2239
 4968TIP3    H236464   5.139   1.495   2.282  0.5034 -1.1254 -0.2786
 4969TIP3   OH236465   5.942   5.557   1.528  0.4141 -0.3784 -0.1210
 4969TIP3    H136466   5.990   5.541   1.447 -0.1589 -1.6526 -0.2301
 4969TIP3    H236467   5.855   5.585   1.499  1.5875  3.7951  0.0625
 4970TIP3   OH236468   5.643   1.487   1.985  0.1253 -0.0503  0.3457
 4970TIP3    H136469   5.673   1.526   1.903  0.0267  0.0542  0.3587
 4970TIP3    H236470   5.559   1.447   1.964 -0.3899  0.8462  0.6222
 4971TIP3   OH236471   6.356   1.919   7.073  0.1694  0.6499 -0.1859
 4971TIP3    H136472   6.374   2.013   7.068 -0.0192  0.6891 -0.1324
 4971TIP3    H236473   6.418   1.887   7.138  0.9940  0.5462 -1.0202
 4972TIP3   OH236474   3.204   4.970   1.438  0.0307  0.7121 -0.0028
 4972TIP3    H136475   3.151   4.963   1.358 -0.7833 -0.2725  0.6157
 4972TIP3    H236476   3.193   4.886   1.482  3.6871 -0.3052 -0.8144
 4973TIP3   OH236477   5.041   4.788   0.129  0.0334  0.7341  0.4163
 4973TIP3    H136478   5.005   4.876   0.137  1.3211  1.3735 -0.6013
 4973TIP3    H236479   5.043   4.772   0.034  1.5564  0.3663  0.4932
 4974TIP3   OH236480   1.313   3.600   0.240 -0.0238 -0.4515 -0.8719
 4974TIP3    H136481   1.338   3.654   0.164 -0.3541  2.1220  0.7822
 4974TIP3    H236482   1.394   3.590   0.289 -0.4821  0.7831  0.1645
 4975TIP3   OH236483   4.007   2.959   0.490 -0.1750  0.1166 -0.1638
 4975TIP3    H136484   4.027   3.053   0.492  0.8852 -0.1142  0.2341
 4975TIP3    H236485   3.946   2.946   0.562 -1.3751  0.7226 -1.0361
 4976TIP3   OH236486   5.846   2.261   2.336 -0.0089  0.0765  0.1520
 4976TIP3    H136487   5.838   2.255   2.431  0.1975  1.5218  0.2766
 4976TIP3    H236488   5.830   2.354   2.317 -1.7786 -0.5253 -1.3959
 4977TIP3   OH236489   3.091   3.725   1.424  0.1204 -0.0273  0.3097
 4977TIP3    H136490   3.022   3.687   1.369 -0.5315  0.6079  0.6757
 4977TIP3    H236491   3.138   3.785   1.366  0.8653 -1.0389 -0.1476
 4978TIP3   OH236492   6.384   0.360   7.586 -0.1499 -0.1860 -0.0809
 4978TIP3    H136493   6.308   0.324   7.631  0.1818  0.7244  1.2486
 4978TIP3    H236494   6.351   0.438   7.542 -0.2153 -0.3927 -0.3977
 4979TIP3   OH236495   5.081   2.122   6.657  0.4847 -0.4100 -0.1959
 4979TIP3    H136496   5.094   2.086   6.570  1.2269  1.0645 -0.6921
 4979TIP3    H236497   5.019   2.061   6.699  1.2271 -1.8941 -1.2434
 4980TIP3   OH236498   5.743   5.086   0.462  0.2144  0.0161  0.4284
 4980TIP3    H136499   5.822   5.140   0.472  0.3154 -0.1880  0.7260
 4980TIP3    H236500   5.725   5.054   0.550 -1.8312  2.3235  0.9114
 4981TIP3   OH236501   4.760   4.455   1.492  0.7388  0.1811 -0.5412
 4981TIP3    H136502   4.731   4.418   1.409  0.5597  0.7239 -0.7280
 4981TIP3    H236503   4.736   4.390   1.558 -0.5493  0.4418 -0.7323
 4982TIP3   OH236504   1.462   5.082   1.066  0.2501 -0.6269 -0.0542
 4982TIP3    H136505   1.553   5.104   1.048  0.0679 -0.1685 -0.4124
 4982TIP3    H236506   1.418   5.166   1.075 -0.5734 -0.8210 -2.0007
 4983TIP3   OH236507   5.739   3.036   2.070  0.3625  0.4402  0.0992
 4983TIP3    H136508   5.780   2.954   2.044 -0.2002 -0.6685  2.5897
 4983TIP3    H236509   5.652   3.010   2.102 -1.4303  2.4664 -2.8363
 4984TIP3   OH236510   4.913   6.695   8.062 -0.3605  0.0036  0.0132
 4984TIP3    H136511   4.918   6.600   8.047 -0.0579 -0.3010  1.9471
 4984TIP3    H236512   4.821   6.711   8.085 -0.1101 -0.0365  1.0543
 4985TIP3   OH236513   4.060   0.756   0.019 -0.2964 -0.3112  0.2194
 4985TIP3    H136514   4.018   0.825  -0.033  1.1852  0.3637 -0.0967
 4985TIP3    H236515   3.987   0.716   0.067 -1.1842  1.5772  0.5283
 4986TIP3   OH236516   4.864   5.098   7.591 -0.3378 -0.7950  0.3711
 4986TIP3    H136517   4.845   5.082   7.684 -0.2173 -1.4164  0.2915
 4986TIP3    H236518   4.818   5.179   7.571 -0.2074 -0.5585  1.0239
 4987TIP3   OH236519   4.655   4.055   1.015 -0.0487  0.0509 -0.1089
 4987TIP3    H136520   4.675   4.052   0.921  0.6585  2.1158 -0.0554
 4987TIP3    H236521   4.569   4.099   1.019 -0.4287 -0.7062  0.1779
 4988TIP3   OH236522   5.603   2.028   2.091  0.2345 -0.4790  0.4162
 4988TIP3    H136523   5.654   1.948   2.088 -0.2781 -0.8014  0.1600
 4988TIP3    H236524   5.658   2.094   2.048  1.1793 -0.3860  1.7432
 4989TIP3   OH236525   2.869   2.581   8.301  0.3130 -0.2802  0.0013
 4989TIP3    H136526   2.924   2.539   8.367  1.1530  0.9142  0.0582
 4989TIP3    H236527   2.926   2.592   8.225 -0.1680 -0.0883 -0.3352
 4990TIP3   OH236528   4.472   0.420   0.802 -0.2212 -0.2565 -0.0562
 4990TIP3    H136529   4.448   0.327   0.807 -2.5101  0.2786 -0.5113
 4990TIP3    H236530   4.507   0.440   0.889  0.0747 -1.4858  0.1185
 4991TIP3   OH236531   4.539   3.115   1.112 -0.6094 -0.2539  0.4874
 4991TIP3    H136532   4.589   3.097   1.032 -0.6150 -1.3933  0.7346
 4991TIP3    H236533   4.543   3.034   1.162 -2.1753 -0.1523  0.8026
 4992TIP3   OH236534   3.651   3.209   1.390  0.2296  0.2073 -0.1027
 4992TIP3    H136535   3.568   3.255   1.380  1.1084  2.0343  0.6330
 4992TIP3    H236536   3.715   3.267   1.347  1.1315 -1.1149 -0.5608
 4993TIP3   OH236537   4.343   4.529   7.069 -0.4532 -0.2508 -0.0303
 4993TIP3    H136538   4.416   4.560   7.122 -0.5931 -1.3911  0.8368
 4993TIP3    H236539   4.284   4.604   7.063 -0.5220 -0.1664  1.5852
 4994TIP3   OH236540   3.353   2.308   0.597 -0.4118  0.1990  0.1581
 4994TIP3    H136541   3.275   2.253   0.593 -0.9370  0.5649  3.5542
 4994TIP3    H236542   3.321   2.397   0.578  0.1590 -0.3173 -3.6752
 4995TIP3   OH236543   0.683   3.976   1.332  0.6362  0.2533 -0.2152
 4995TIP3    H136544   0.596   3.968   1.292  0.1326  2.3564  0.4026
 4995TIP3    H236545   0.686   4.066   1.364  2.9472  0.1057  0.0251
 4996TIP3   OH236546   2.983   3.773   7.190  0.2768  0.1963  0.5067
 4996TIP3    H136547   2.987   3.800   7.282 -0.7167  0.6656  0.4163
 4996TIP3    H236548   3.010   3.681   7.192 -1.5394 -0.3481  1.5289
 4997TIP3   OH236549   7.221   2.659   1.689 -0.8112 -0.5605 -0.5800
 4997TIP3    H136550   7.266   2.738   1.662 -1.1639 -0.1538  0.0142
 4997TIP3    H236551   7.138   2.690   1.725 -0.0531 -1.0371  1.6339
 4998TIP3   OH236552   3.753   3.922   1.693  1.0554 -0.2629 -0.1154
 4998TIP3    H136553   3.846   3.946   1.691  1.0940 -0.2680  1.1368
 4998TIP3    H236554   3.739   3.887   1.781 -0.4693  1.1225  0.2374
 4999TIP3   OH236555   5.267   7.013   1.355  0.3632 -0.3399  0.5844
 4999TIP3    H136556   5.325   7.089   1.360 -1.0290  0.8264 -0.3774
 4999TIP3    H236557   5.181   7.050   1.338 -0.7781 -2.0106  2.5686
 5000TIP3   OH236558   3.511   3.606   1.720  1.2287 -0.4134  0.3297
 5000TIP3    H136559   3.480   3.667   1.653  0.7550 -0.6116  0.3640
 5000TIP3    H236560   3.511   3.656   1.801 -0.9838 -0.9723  0.7115
 5001TIP3   OH236561   2.697   2.254   0.134  0.3398  0.6960 -0.2477
 5001TIP3    H136562   2.687   2.347   0.114  2.3651  1.0210  0.2224
 5001TIP3    H236563   2.727   2.214   0.052  1.7936  0.8625  0.1948
 5002TIP3   OH236564   3.632   2.596   8.248  0.5807  0.2993 -0.2582
 5002TIP3    H136565   3.633   2.604   8.343  0.9051  1.1080 -0.3215
 5002TIP3    H236566   3.552   2.643   8.222 -0.2132 -1.0447 -0.2992
 5003TIP3   OH236567   3.984   1.364   7.408 -0.2392 -0.5411  0.3374
 5003TIP3    H136568   4.024   1.414   7.336 -0.7612 -0.6378 -0.0245
 5003TIP3    H236569   4.047   1.296   7.428 -0.8108 -1.5243 -1.1511
 5004TIP3   OH236570   4.135   1.461   1.813 -0.9254 -0.0365  0.1275
 5004TIP3    H136571   4.100   1.485   1.728 -0.2058  0.9042  0.0891
 5004TIP3    H236572   4.082   1.386   1.841 -0.0445 -1.4739 -1.9254
 5005TIP3   OH236573   3.684   3.502   1.135 -0.4182 -0.0568 -0.1186
 5005TIP3    H136574   3.685   3.563   1.209  0.5036  0.2747 -0.3991
 5005TIP3    H236575   3.743   3.432   1.161  0.0784  0.1699 -0.6361
 5006TIP3   OH236576   4.025   2.175   0.849 -0.2854  0.0117 -0.0546
 5006TIP3    H136577   4.030   2.249   0.789  1.2533  0.2123  0.2911
 5006TIP3    H236578   3.976   2.108   0.802 -0.6047  0.8051 -0.8530
 5007TIP3   OH236579   2.809   3.584   6.807  0.0789  0.0921  0.4129
 5007TIP3    H136580   2.828   3.630   6.725 -2.0027 -0.5629 -0.4519
 5007TIP3    H236581   2.789   3.495   6.781  0.4420 -0.3857  1.7445
 5008TIP3   OH236582   3.210   3.965   1.299  0.3909  0.5058  0.2634
 5008TIP3    H136583   3.259   4.035   1.342  1.7066  0.0348 -0.4764
 5008TIP3    H236584   3.267   3.934   1.230  0.1194 -1.8187  1.0415
 5009TIP3   OH236585   5.655   1.628   1.202  0.1944 -0.1624  0.7220
 5009TIP3    H136586   5.619   1.680   1.274 -0.0973  0.2593  0.2737
 5009TIP3    H236587   5.742   1.664   1.189  0.4014 -0.5124  1.1385
 5010TIP3   OH236588   5.410   4.698   1.708 -0.0967  0.0555 -0.1771
 5010TIP3    H136589   5.395   4.793   1.711  0.9414  0.2066  0.4381
 5010TIP3    H236590   5.323   4.660   1.724 -0.3325  0.9106  0.6821
 5011TIP3   OH236591   4.694   3.280   2.196 -1.0165 -0.4874 -0.1359
 5011TIP3    H136592   4.649   3.217   2.252 -1.0777 -0.1581  0.1923
 5011TIP3    H236593   4.682   3.364   2.241 -1.7184 -0.1010 -1.0267
 5012TIP3   OH236594   0.472   3.009   0.034  0.2125 -0.6592 -0.3720
 5012TIP3    H136595   0.516   3.094   0.039  1.2415 -1.0854 -1.6948
 5012TIP3    H236596   0.513   2.966  -0.042  0.7449 -2.9121  1.1500
 5013TIP3   OH236597   4.088   1.168   2.094  0.0635  0.2813 -0.0596
 5013TIP3    H136598   4.056   1.078   2.083  1.4199 -0.0792 -1.2466
 5013TIP3    H236599   4.109   1.174   2.187  1.3220 -1.1151 -0.2301
 5014TIP3   OH236600   4.568   1.972   1.623  0.8503 -0.3304  0.2889
 5014TIP3    H136601   4.629   2.000   1.555 -0.4525  2.2780  0.1346
 5014TIP3    H236602   4.529   1.891   1.589  1.8947 -0.3025 -1.0098
 5015TIP3   OH236603   5.478   0.835   1.444 -0.2443  0.0885  0.2753
 5015TIP3    H136604   5.572   0.853   1.452 -0.0634  1.0935 -3.0853
 5015TIP3    H236605   5.441   0.917   1.409 -1.8939 -1.1746 -1.0158
 5016TIP3   OH236606   5.801   0.696   1.835  0.3890  0.1373 -0.2335
 5016TIP3    H136607   5.797   0.748   1.915 -1.9727  0.5431 -0.5927
 5016TIP3    H236608   5.718   0.712   1.791  0.4783 -2.2789 -1.3872
 5017TIP3   OH236609   3.722   1.748   7.021  0.6942  0.4064 -0.3094
 5017TIP3    H136610   3.817   1.741   7.018  0.7261  0.9243 -0.4729
 5017TIP3    H236611   3.696   1.764   6.931  0.6004  2.1616  0.0219
 5018TIP3   OH236612   2.920   2.872   1.752 -0.0121  0.1568 -0.1777
 5018TIP3    H136613   2.827   2.884   1.731  0.1025  0.7569 -0.3627
 5018TIP3    H236614   2.929   2.910   1.839 -0.4271 -2.0722  0.8588
 5019TIP3   OH236615   3.766   1.885   7.353 -0.4201  0.3452 -0.2728
 5019TIP3    H136616   3.792   1.902   7.443 -0.8449 -0.5139  0.0171
 5019TIP3    H236617   3.684   1.836   7.360 -1.4380  1.8751 -1.1529
 5020TIP3   OH236618   0.389   1.094   1.023  0.6030  0.1158 -0.2845
 5020TIP3    H136619   0.411   1.075   0.932 -0.0280 -0.9053 -0.2280
 5020TIP3    H236620   0.351   1.182   1.021  0.1484 -0.0944 -1.0815
 5021TIP3   OH236621   4.800   5.172   1.125  0.2192  0.2182 -0.2071
 5021TIP3    H136622   4.799   5.266   1.107 -0.9591  0.1963 -0.2829
 5021TIP3    H236623   4.881   5.158   1.174  1.5770  0.8833 -2.2000
 5022TIP3   OH236624   2.878   3.371   2.328  0.2316 -0.0717  0.5826
 5022TIP3    H136625   2.970   3.398   2.324  0.0396  0.4675 -0.5348
 5022TIP3    H236626   2.835   3.438   2.382  0.2901  0.3012  0.1706
 5023TIP3   OH236627   3.874   2.529   1.544  0.0091 -0.7158  0.1095
 5023TIP3    H136628   3.845   2.559   1.630 -2.1624 -0.4890 -0.6771
 5023TIP3    H236629   3.923   2.449   1.562  0.7563  0.0705  1.6765
 5024TIP3   OH236630   3.747   1.969   0.408 -0.8482  0.0456  0.0755
 5024TIP3    H136631   3.670   2.025   0.401 -0.9649  0.3356  2.8932
 5024TIP3    H236632   3.772   1.949   0.318 -3.3764  1.0942 -0.8766
 5025TIP3   OH236633   6.287   0.993   0.259  0.2718 -0.0946 -0.2731
 5025TIP3    H136634   6.365   0.957   0.301 -0.4963 -2.3258 -0.6848
 5025TIP3    H236635   6.219   0.988   0.326  0.0922  0.3371 -0.4233
 5026TIP3   OH236636   4.326   3.289   1.087  0.8315  0.4166  0.4763
 5026TIP3    H136637   4.237   3.258   1.071  0.4235  2.2808 -1.0305
 5026TIP3    H236638   4.379   3.210   1.089 -0.7009 -0.6364  0.3350
 5027TIP3   OH236639   5.253   3.950   1.701 -0.5561 -0.4708 -0.0355
 5027TIP3    H136640   5.213   3.898   1.770 -0.6460  1.6046  1.5101
 5027TIP3    H236641   5.182   4.003   1.665 -0.3252 -0.8626 -1.0817
 5028TIP3   OH236642   4.663   2.752   1.539  0.2903 -0.2931  0.1796
 5028TIP3    H136643   4.749   2.794   1.538  0.7432 -1.1383  1.4752
 5028TIP3    H236644   4.679   2.667   1.580 -0.7326 -1.4549 -1.7880
 5029TIP3   OH236645   4.019   4.189   2.117 -0.1224 -0.0943  1.1128
 5029TIP3    H136646   3.949   4.126   2.102  0.3830  0.1797 -2.9609
 5029TIP3    H236647   4.087   4.165   2.054  1.9217  1.8474  2.5000
 5030TIP3   OH236648   1.775   3.398   1.905 -0.1865  0.2257  0.4141
 5030TIP3    H136649   1.765   3.328   1.970 -2.2152  0.9981  0.9830
 5030TIP3    H236650   1.854   3.375   1.856  0.2038 -1.4739  1.7965
 5031TIP3   OH236651   6.434   3.971   1.080 -0.6256 -0.0089  0.2004
 5031TIP3    H136652   6.432   4.019   0.997  2.0264  0.1538  0.1919
 5031TIP3    H236653   6.343   3.972   1.110 -1.6667 -0.2917 -2.8090
 5032TIP3   OH236654   3.828   5.024   1.095 -0.4515 -0.3366 -0.1285
 5032TIP3    H136655   3.870   5.062   1.019 -1.4135  0.6036 -0.2030
 5032TIP3    H236656   3.871   4.939   1.107  2.6101  1.2799  0.8035
 5033TIP3   OH236657   4.201   4.784   1.599 -0.2001  0.0644  0.1062
 5033TIP3    H136658   4.260   4.811   1.528  2.9730 -0.6103  2.3977
 5033TIP3    H236659   4.162   4.865   1.630  0.3057  0.6562 -0.7801
 5034TIP3   OH236660   5.834   1.704   2.294  0.0469  0.3842  0.1310
 5034TIP3    H136661   5.923   1.720   2.325  0.4244  0.3975 -0.9339
 5034TIP3    H236662   5.780   1.767   2.343  1.0198  2.4614 -1.3719
 5035TIP3   OH236663   4.012   5.142   7.841  0.2625 -0.1125  0.0950
 5035TIP3    H136664   3.947   5.181   7.900 -1.2747  1.1346 -2.2963
 5035TIP3    H236665   3.963   5.074   7.794  1.2364 -0.5217 -0.3355
 5036TIP3   OH236666   5.212   4.955   7.842 -0.5410 -0.4105 -0.6143
 5036TIP3    H136667   5.269   5.002   7.781  0.3043  1.5649  1.6379
 5036TIP3    H236668   5.271   4.900   7.893 -0.9555 -0.3469 -0.0549
 5037TIP3   OH236669   2.694   3.074   1.198  0.5855  0.2953 -0.2580
 5037TIP3    H136670   2.658   2.985   1.200 -0.6992  0.8228  0.3895
 5037TIP3    H236671   2.638   3.124   1.257  0.2349  1.9503 -1.9581
 5038TIP3   OH236672   5.277   2.675   1.927  0.3170 -0.1353 -0.6955
 5038TIP3    H136673   5.242   2.612   1.864  2.2103 -1.2717 -0.6366
 5038TIP3    H236674   5.273   2.759   1.882 -2.9235 -0.1282 -0.5042
 5039TIP3   OH236675   4.305   4.331   1.215 -0.3628  0.2722  0.2347
 5039TIP3    H136676   4.216   4.352   1.186 -1.5165 -2.6509  1.4423
 5039TIP3    H236677   4.340   4.277   1.144  0.0247  0.4543  0.2886
 5040TIP3   OH236678   3.028   2.599   8.092  0.4383 -0.1489  0.3168
 5040TIP3    H136679   3.036   2.694   8.083  0.6380 -0.2222 -0.3554
 5040TIP3    H236680   3.117   2.566   8.087  0.5692 -0.2252  2.6498
 5041TIP3   OH236681   5.234   2.937   1.812  0.0003  0.7596 -0.1671
 5041TIP3    H136682   5.204   2.970   1.727 -1.2507 -1.0546 -0.4590
 5041TIP3    H236683   5.156   2.942   1.868  0.1580 -0.3677  0.1595
 5042TIP3   OH236684   3.479   1.645   1.886 -0.1400 -0.0702  0.1665
 5042TIP3    H136685   3.422   1.683   1.819  1.3016 -0.7695 -1.4906
 5042TIP3    H236686   3.422   1.585   1.934 -1.1284  0.2261 -0.6063
 5043TIP3   OH236687   4.528   0.695   1.430  0.3627  0.4356  0.7114
 5043TIP3    H136688   4.618   0.667   1.447  0.8475  1.3693 -0.2336
 5043TIP3    H236689   4.516   0.773   1.486  0.2491  0.4955  0.6038
 5044TIP3   OH236690   3.710   3.372   7.989  0.1396  0.1417  0.6759
 5044TIP3    H136691   3.766   3.404   7.918  1.1649 -0.6579  1.1181
 5044TIP3    H236692   3.727   3.433   8.061 -0.9039  0.9553  0.2599
 5045TIP3   OH236693   6.307   1.465   1.107 -0.4954 -0.4940  0.0009
 5045TIP3    H136694   6.326   1.378   1.072 -1.7593 -0.4892 -0.6993
 5045TIP3    H236695   6.393   1.505   1.119  0.1683 -2.2432  1.3854
 5046TIP3   OH236696   2.619   3.718   1.477 -0.4454  0.0146 -1.1984
 5046TIP3    H136697   2.665   3.653   1.529 -2.3432 -1.1124 -0.8702
 5046TIP3    H236698   2.681   3.791   1.469  1.3839 -1.4559 -0.8428
 5047TIP3   OH236699   3.425   3.347   1.270 -0.8696 -0.1544 -0.3474
 5047TIP3    H136700   3.355   3.397   1.229 -0.7333  0.1607 -0.1999
 5047TIP3    H236701   3.394   3.331   1.359  0.1782  1.9034  0.4258
 5048TIP3   OH236702   4.514   3.636   6.894 -0.3101  0.2569  0.8136
 5048TIP3    H136703   4.586   3.692   6.923  0.0912  0.8203 -1.2410
 5048TIP3    H236704   4.555   3.553   6.870 -0.6357 -0.1688  1.6595
 5049TIP3   OH236705   3.759   0.831   1.969 -0.3144 -0.6241  0.2151
 5049TIP3    H136706   3.780   0.766   1.903  0.5461 -0.4112  0.2676
 5049TIP3    H236707   3.843   0.848   2.013 -0.9322 -1.0032  1.5645
 5050TIP3   OH236708   5.841   2.331   1.786 -0.6729 -0.3233  0.2405
 5050TIP3    H136709   5.925   2.363   1.819 -0.8936  0.6220 -0.1054
 5050TIP3    H236710   5.805   2.279   1.858 -0.2209  0.0366  0.7277
 5051TIP3   OH236711   5.275   0.624   1.497  0.1674  0.3943 -0.4612
 5051TIP3    H136712   5.355   0.678   1.493 -1.1796  2.3764 -1.6643
 5051TIP3    H236713   5.257   0.601   1.406 -0.7897  0.1855 -0.2251
 5052TIP3   OH236714   3.826   3.659   0.914  0.6616 -0.0369 -0.2679
 5052TIP3    H136715   3.781   3.629   0.993  0.2658  0.1167 -0.4346
 5052TIP3    H236716   3.879   3.584   0.888 -0.3754 -0.6307 -0.7150
 5053TIP3   OH236717   4.758   3.370   1.765  0.1595  0.1847 -0.2258
 5053TIP3    H136718   4.693   3.398   1.700  0.6516  0.8723 -0.4251
 5053TIP3    H236719   4.747   3.431   1.838 -0.6564 -0.8273  0.5142
 5054TIP3   OH236720   3.103   4.619   0.402 -0.4106 -0.8162  0.0681
 5054TIP3    H136721   3.115   4.638   0.495 -2.3620 -0.5612  0.2820
 5054TIP3    H236722   3.180   4.658   0.359 -0.1762  0.2322  1.4283
 5055TIP3   OH236723   4.205   2.615   0.635 -0.1266 -0.3699 -0.0977
 5055TIP3    H136724   4.143   2.639   0.566 -0.0120 -0.6631 -0.3050
 5055TIP3    H236725   4.290   2.612   0.591  0.1214  0.5770  0.3016
 5056TIP3   OH236726   3.729   3.200   1.653  0.3413  0.2724  0.1659
 5056TIP3    H136727   3.728   3.222   1.559 -0.6769 -1.9634 -0.3766
 5056TIP3    H236728   3.749   3.283   1.696  0.3127  1.4595 -2.0017
 5057TIP3   OH236729   3.658   4.218   0.927  0.1640 -0.3344 -0.6558
 5057TIP3    H136730   3.632   4.188   1.014 -2.0843  0.9257 -0.8678
 5057TIP3    H236731   3.671   4.138   0.877  1.7923 -1.0858  0.8887
 5058TIP3   OH236732   4.377   3.908   2.518  0.3115 -0.3719  0.2130
 5058TIP3    H136733   4.348   3.846   2.586 -1.7235  0.2228 -0.0517
 5058TIP3    H236734   4.410   3.853   2.447 -1.4936 -1.1785 -0.0339
 5059TIP3   OH236735   5.558   6.075   8.366  0.8890  0.0519 -0.1234
 5059TIP3    H136736   5.487   6.015   8.345  1.1034 -0.1124 -0.3970
 5059TIP3    H236737   5.638   6.026   8.342  1.1366 -0.0868  0.9660
 5060TIP3   OH236738   5.468   5.572   1.546 -0.7673 -0.4491  0.0545
 5060TIP3    H136739   5.394   5.524   1.583 -1.4836 -0.2685 -1.0968
 5060TIP3    H236740   5.427   5.644   1.498  0.2652  0.8336  1.0980
 5061TIP3   OH236741   4.412   2.928   1.695 -0.2631  0.2538 -0.5160
 5061TIP3    H136742   4.396   2.876   1.774  1.5383  3.1216  1.8420
 5061TIP3    H236743   4.478   2.878   1.647  1.1208  0.0845  1.4865
 5062TIP3   OH236744   3.369   1.840   0.237  0.4757  0.0513 -0.3240
 5062TIP3    H136745   3.406   1.865   0.152 -0.6096  1.0658 -0.5013
 5062TIP3    H236746   3.435   1.783   0.275  2.1963  1.7574 -0.6735
 5063TIP3   OH236747   3.101   2.503   1.435  0.5888 -0.2693 -0.3684
 5063TIP3    H136748   3.164   2.443   1.395 -1.2291 -1.0191 -2.1902
 5063TIP3    H236749   3.086   2.570   1.368  0.7715  0.8902  0.7323
 5064TIP3   OH236750   6.227   2.686   2.159 -0.4157 -0.5556  0.1514
 5064TIP3    H136751   6.142   2.642   2.151 -0.3621 -0.7924  0.8007
 5064TIP3    H236752   6.206   2.775   2.186 -0.4364 -0.8396  1.1159
 5065TIP3   OH236753   4.105   3.504   1.444  0.6242  0.1185  0.4915
 5065TIP3    H136754   4.167   3.571   1.418  1.0170  0.0704  1.2747
 5065TIP3    H236755   4.081   3.527   1.534 -0.3291  0.0163  0.2692
 5066TIP3   OH236756   3.478   2.064   8.498  0.1870 -0.3293  0.1040
 5066TIP3    H136757   3.461   2.155   8.472 -1.1087  0.0800  2.2821
 5066TIP3    H236758   3.404   2.015   8.461 -0.9573  0.0512  1.8494
 5067TIP3   OH236759   2.465   2.374   1.656 -0.0257  0.5638 -0.0970
 5067TIP3    H136760   2.477   2.323   1.737  0.2201 -0.3946 -0.7300
 5067TIP3    H236761   2.527   2.447   1.664  1.1108 -0.3833 -0.1053
 5068TIP3   OH236762   2.834   4.855   1.113 -0.4104  0.7349 -0.0434
 5068TIP3    H136763   2.834   4.934   1.167  1.5796  0.5422  0.2648
 5068TIP3    H236764   2.926   4.839   1.092 -0.4931 -2.7937  1.8465
 5069TIP3   OH236765   2.946   2.934   0.729  0.3142 -0.0628 -0.1864
 5069TIP3    H136766   3.006   2.953   0.802 -0.8916  0.4805  0.6732
 5069TIP3    H236767   2.949   2.839   0.720 -0.2772 -0.2352  1.2374
 5070TIP3   OH236768   3.467   3.429   1.977 -0.0918 -0.2187  0.4628
 5070TIP3    H136769   3.397   3.404   2.037  1.2188 -0.4697  1.8966
 5070TIP3    H236770   3.530   3.475   2.031  0.4610  0.7791 -0.9920
 5071TIP3   OH236771   1.624   5.010   0.133  0.5921  0.4833  0.3155
 5071TIP3    H136772   1.705   5.041   0.093  0.1951  1.0028 -0.1129
 5071TIP3    H236773   1.634   5.027   0.226  0.7627  1.0347  0.1969
 5072TIP3   OH236774   3.327   2.646   0.898  0.1923  0.0040 -0.7469
 5072TIP3    H136775   3.238   2.619   0.923  0.6517 -0.8182  0.0320
 5072TIP3    H236776   3.372   2.662   0.981  0.7136  0.6422 -1.1447
 5073TIP3   OH236777   3.671   3.607   0.351 -0.7462 -0.0517 -0.5798
 5073TIP3    H136778   3.603   3.630   0.415 -1.3315  2.3615 -2.0293
 5073TIP3    H236779   3.751   3.602   0.402 -1.3137  1.2039  0.4665
 5074TIP3   OH236780   4.280   2.152   1.791  0.1220 -0.1976 -0.2074
 5074TIP3    H136781   4.232   2.211   1.733 -1.5745 -0.2730  1.0820
 5074TIP3    H236782   4.352   2.205   1.824 -0.4438  0.6565 -0.3170
 5075TIP3   OH236783   3.430   1.408   7.940 -0.5187 -0.3505  0.3460
 5075TIP3    H136784   3.411   1.315   7.928 -2.2557 -0.3348  2.7409
 5075TIP3    H236785   3.525   1.411   7.953 -0.4107 -1.7484 -0.0388
 5076TIP3   OH236786   3.782   1.690   0.237  0.6056 -0.1263  0.8724
 5076TIP3    H136787   3.760   1.738   0.158  0.6189  0.5114  1.2524
 5076TIP3    H236788   3.873   1.665   0.226  0.3287 -0.8790  0.2598
 5077TIP3   OH236789   4.668   2.355   2.034 -0.5182 -0.6604  0.5983
 5077TIP3    H136790   4.664   2.308   1.951 -0.7277  0.5982 -0.1065
 5077TIP3    H236791   4.710   2.439   2.013 -0.0676 -0.5527  1.8634
 5078TIP3   OH236792   4.342   1.639   1.838  0.2932 -0.6371  0.4687
 5078TIP3    H136793   4.298   1.723   1.835  0.0708 -0.6728  2.2997
 5078TIP3    H236794   4.272   1.575   1.824  0.3003 -0.5556  0.0670
 5079TIP3   OH236795   2.889   2.889   1.257  0.3970 -0.2328  0.4316
 5079TIP3    H136796   2.823   2.958   1.254 -0.9124 -1.4962 -0.9231
 5079TIP3    H236797   2.838   2.808   1.270  1.4227 -1.4661 -2.6919
 5080TIP3   OH236798   2.676   0.073   2.233  0.1990  0.2488  0.3857
 5080TIP3    H136799   2.601   0.105   2.282  0.3951 -0.1305  0.9446
 5080TIP3    H236800   2.709   0.150   2.186 -0.6474  0.3731 -0.0126
 5081TIP3   OH236801   5.550   1.224   1.884 -0.0862  0.2469  0.4319
 5081TIP3    H136802   5.471   1.185   1.922 -0.6109 -0.6402 -1.5141
 5081TIP3    H236803   5.622   1.176   1.924 -0.5230  1.0020  2.1612
 5082TIP3   OH236804   4.229   3.479   0.915 -0.2164  0.2178  0.1628
 5082TIP3    H136805   4.281   3.414   0.962  0.8889  0.5862 -0.5111
 5082TIP3    H236806   4.246   3.561   0.961 -0.3714  0.2958  0.0796
 5083TIP3   OH236807   3.439   3.395   8.167 -0.1409 -0.2172 -0.5690
 5083TIP3    H136808   3.455   3.481   8.205  0.0452  0.6405 -2.5061
 5083TIP3    H236809   3.526   3.356   8.159 -0.2108 -0.5214  0.1789
 5084TIP3   OH236810   2.215   2.523   1.704 -0.1878  1.0000 -0.1852
 5084TIP3    H136811   2.293   2.483   1.665 -0.5251 -1.1933  1.2833
 5084TIP3    H236812   2.249   2.572   1.779 -0.3205 -1.1609  1.3371
 5085TIP3   OH236813   4.048   1.626   0.185 -0.3303  0.7935 -0.9441
 5085TIP3    H136814   4.102   1.589   0.255 -0.9245 -0.4818 -1.1300
 5085TIP3    H236815   4.092   1.707   0.160  0.7007  0.4981 -0.1191
 5086TIP3   OH236816   5.916   3.599   1.323 -0.2811  0.1122 -0.2939
 5086TIP3    H136817   5.875   3.605   1.410  0.5799  0.4780  0.0950
 5086TIP3    H236818   5.949   3.510   1.319 -2.2931 -0.6116 -1.1517
 5087TIP3   OH236819   5.758   2.882   1.788  0.1279  0.3322  0.0064
 5087TIP3    H136820   5.742   2.796   1.748  1.5449  0.0658 -0.0165
 5087TIP3    H236821   5.671   2.913   1.812 -0.6309 -0.1044 -2.0338
 5088TIP3   OH236822   0.356   2.747   1.826 -0.2362  0.0177 -0.3747
 5088TIP3    H136823   0.445   2.713   1.816 -0.8175 -1.1033 -2.1099
 5088TIP3    H236824   0.344   2.802   1.749 -0.2092  2.1538  1.1176
 5089TIP3   OH236825   6.055   4.060   2.217 -0.8097  0.6510  0.6696
 5089TIP3    H136826   6.120   4.052   2.287 -1.6626  0.0832  1.4034
 5089TIP3    H236827   5.991   3.991   2.236 -2.0627  1.7422  0.4245
 5090TIP3   OH236828   3.678   2.771   1.526  0.1974 -0.1189 -0.3115
 5090TIP3    H136829   3.692   2.700   1.464  0.3538 -0.0004 -0.4128
 5090TIP3    H236830   3.592   2.754   1.563  0.1565 -0.2578 -0.4710
 5091TIP3   OH236831   5.575   3.419   1.501  0.0322 -0.1174  0.1241
 5091TIP3    H136832   5.590   3.439   1.593 -0.4812 -1.4439  0.4949
 5091TIP3    H236833   5.564   3.505   1.460  0.1730  0.4742  1.3078
 5092TIP3   OH236834   4.134   3.266   1.565  0.7486  0.1734  0.3201
 5092TIP3    H136835   4.154   3.355   1.537 -0.4269  0.4425  0.3270
 5092TIP3    H236836   4.083   3.228   1.494 -0.9540  0.3698  1.3877
 5093TIP3   OH236837   0.414   4.228   1.473 -0.2467 -0.3889  0.6340
 5093TIP3    H136838   0.386   4.314   1.440 -0.2783 -0.4101  0.6058
 5093TIP3    H236839   0.342   4.199   1.529 -0.3619 -0.5205  0.4228
 5094TIP3   OH236840   4.437   1.970   1.245 -0.2298  0.4798 -0.4122
 5094TIP3    H136841   4.455   1.980   1.152  2.0834 -1.9713 -0.2963
 5094TIP3    H236842   4.345   1.941   1.248 -0.7650  1.9376 -1.7981
 5095TIP3   OH236843   6.413   2.694   1.936  0.4866 -0.2851  0.9065
 5095TIP3    H136844   6.389   2.723   2.024  0.1331  0.4267  0.5757
 5095TIP3    H236845   6.355   2.620   1.918  0.0238  0.0683  0.9564
 5096TIP3   OH236846   4.253   1.600   7.445 -0.3598 -0.2028  0.6605
 5096TIP3    H136847   4.202   1.606   7.525  0.4946 -0.5865  1.2393
 5096TIP3    H236848   4.287   1.511   7.444 -2.9235 -1.2310 -1.7349
 5097TIP3   OH236849   5.593   3.623   1.308 -0.3654 -0.4163 -0.5692
 5097TIP3    H136850   5.539   3.693   1.345 -0.6901 -0.3260 -1.2174
 5097TIP3    H236851   5.639   3.664   1.235 -1.6634 -1.2396 -1.8723
 5098TIP3   OH236852   6.438   3.576   1.445 -0.0525 -0.0426 -0.2267
 5098TIP3    H136853   6.461   3.485   1.428 -0.2112  0.0416 -0.8839
 5098TIP3    H236854   6.365   3.594   1.386 -0.7457  0.1840  0.6803
 5099TIP3   OH236855   6.856   2.264   1.268 -0.0853 -0.4457  0.3448
 5099TIP3    H136856   6.781   2.273   1.208  1.0127  2.9003 -0.6748
 5099TIP3    H236857   6.933   2.270   1.211  0.9692 -0.3325  1.7501
 5100TIP3   OH236858   0.989   2.874   7.096  0.0214 -0.0292  0.2138
 5100TIP3    H136859   1.071   2.872   7.147  1.4826  0.0632 -2.0725
 5100TIP3    H236860   1.012   2.920   7.015 -2.2879 -0.0943 -0.5072
 5101TIP3   OH236861   4.177   7.027   1.618  0.3283 -0.2898 -0.0288
 5101TIP3    H136862   4.203   6.961   1.682 -2.2261 -0.8325  0.5053
 5101TIP3    H236863   4.242   7.096   1.627 -0.0112 -0.3082  3.2644
 5102TIP3   OH236864   7.106   2.326   1.643  0.2575  0.1955 -0.3989
 5102TIP3    H136865   7.104   2.414   1.606  1.5613 -0.1399 -1.3222
 5102TIP3    H236866   7.065   2.334   1.729 -0.6634  1.4678 -0.9520
 5103TIP3   OH236867   6.135   2.636   1.826  0.0352  0.4138 -0.4135
 5103TIP3    H136868   6.092   2.568   1.879 -1.2158  0.2392 -1.6115
 5103TIP3    H236869   6.167   2.699   1.889  0.0683 -0.6484  0.6546
 5104TIP3   OH236870   7.153   2.637   1.185  0.1344 -0.0358  0.4720
 5104TIP3    H136871   7.244   2.622   1.211  0.0929 -3.4867 -0.9972
 5104TIP3    H236872   7.101   2.613   1.262  0.4322  1.7107  1.2329
 5105TIP3   OH236873   3.693   0.986   0.570 -0.3100 -0.4442  0.5091
 5105TIP3    H136874   3.690   1.066   0.623 -0.4819  1.0606 -1.6966
 5105TIP3    H236875   3.612   0.940   0.592 -0.1794 -0.0669  1.8513
 5106TIP3   OH236876   5.081   3.808   1.891 -0.0235  0.0551  0.4147
 5106TIP3    H136877   5.010   3.747   1.873  0.3182 -0.4366  0.7043
 5106TIP3    H236878   5.047   3.865   1.959 -0.5370  0.5312 -0.2379
 5107TIP3   OH236879   3.710   2.634   0.961  0.7758  0.3442  0.2247
 5107TIP3    H136880   3.780   2.699   0.953  1.1332 -0.0712 -0.0125
 5107TIP3    H236881   3.743   2.557   0.914  0.4200 -0.0625  0.6418
 5108TIP3   OH236882   2.827   2.140   7.190 -0.1145  0.1309 -0.5294
 5108TIP3    H136883   2.836   2.234   7.174 -0.9161  0.3225  0.0851
 5108TIP3    H236884   2.752   2.133   7.250  0.4943 -0.8325  0.1397
 5109TIP3   OH236885   2.633   2.315   1.350  0.0055  0.2858  0.3408
 5109TIP3    H136886   2.711   2.318   1.405 -0.2726  0.7574  0.7103
 5109TIP3    H236887   2.601   2.406   1.347  0.1393  0.3058 -0.7685
 5110TIP3   OH236888   6.914   3.145   1.593 -0.3008 -0.1545 -0.2093
 5110TIP3    H136889   6.907   3.171   1.685 -0.6136  0.9249 -0.5281
 5110TIP3    H236890   6.841   3.085   1.579 -1.1635  0.8680 -0.1370
 5111TIP3   OH236891   4.029   1.344   6.470 -0.1911  0.2990  0.3794
 5111TIP3    H136892   3.950   1.304   6.435 -0.8799  1.2969  0.7910
 5111TIP3    H236893   4.000   1.393   6.547  0.9952 -0.2241  1.1806
 5112TIP3   OH236894   1.711   5.288   1.628  0.1476 -0.6023 -0.2689
 5112TIP3    H136895   1.634   5.319   1.675  0.8988  1.4244 -0.3270
 5112TIP3    H236896   1.706   5.330   1.542  2.6060  1.6314  0.6018
 5113TIP3   OH236897   3.258   4.414   1.474  0.4609 -0.3661  0.5446
 5113TIP3    H136898   3.327   4.479   1.461  0.3542 -0.2830  0.3897
 5113TIP3    H236899   3.212   4.442   1.553  0.2595 -0.1164  0.3379
 5114TIP3   OH236900   5.693   1.942   2.375 -0.4170 -0.0056  0.2997
 5114TIP3    H136901   5.653   1.968   2.292 -0.0892 -1.5646 -0.3755
 5114TIP3    H236902   5.720   2.024   2.416 -3.3295  1.0169  0.2824
 5115TIP3   OH236903   2.760   3.800   0.595 -0.1822  0.4049  0.3498
 5115TIP3    H136904   2.693   3.797   0.663  0.3051  0.8208  0.8646
 5115TIP3    H236905   2.765   3.892   0.571  2.2612  0.8904  2.4460
 5116TIP3   OH236906   3.949   5.492   0.033 -0.3837  0.3106  0.0269
 5116TIP3    H136907   4.040   5.468   0.018 -0.9025 -1.4789 -0.3786
 5116TIP3    H236908   3.904   5.409   0.048 -1.4248  1.3783  3.2570
 5117TIP3   OH236909   3.714   5.779   1.772 -0.6640  0.0285  0.2764
 5117TIP3    H136910   3.687   5.688   1.761  1.1348 -0.2964 -1.7347
 5117TIP3    H236911   3.711   5.816   1.684  0.6240  1.3202  0.7510
 5118TIP3   OH236912   4.227   4.136   1.870  0.1116  0.8278  0.2333
 5118TIP3    H136913   4.304   4.095   1.910 -0.9653  0.6732  2.1687
 5118TIP3    H236914   4.253   4.228   1.859  1.3286  0.3456 -1.0872
 5119TIP3   OH236915   4.284   3.685   1.068  0.1223 -0.0736 -0.0822
 5119TIP3    H136916   4.229   3.723   1.136 -1.3178  1.1548 -1.8719
 5119TIP3    H236917   4.371   3.678   1.108 -0.0128  3.3324  0.9793
 5120TIP3   OH236918   4.000   2.618   1.321  0.3772  0.1983 -0.0134
 5120TIP3    H136919   4.078   2.563   1.314 -0.0897 -0.3762 -0.7985
 5120TIP3    H236920   3.957   2.590   1.402 -0.4713 -1.4003 -1.0052
 5121TIP3   OH236921   3.206   1.813   8.182 -0.3048 -0.1887 -0.3953
 5121TIP3    H136922   3.261   1.760   8.125  0.5205  0.0286  0.1979
 5121TIP3    H236923   3.234   1.791   8.271 -0.0073  1.1805 -0.1422
 5122TIP3   OH236924   5.311   2.110   1.968  0.0231 -0.2386 -0.5956
 5122TIP3    H136925   5.285   2.099   2.059  2.3428 -2.5818 -0.1542
 5122TIP3    H236926   5.372   2.184   1.968  0.6227 -0.7258 -0.0906
 5123TIP3   OH236927   6.559   0.398   1.665  0.2302  0.3892 -0.5940
 5123TIP3    H136928   6.633   0.353   1.707  1.3720  1.1144 -1.7681
 5123TIP3    H236929   6.574   0.490   1.684  1.3054  0.8365 -3.3375
 5124TIP3   OH236930   2.888   2.322   1.490  0.0746 -0.0773 -0.6632
 5124TIP3    H136931   2.945   2.390   1.454 -0.7609 -0.3870 -2.6378
 5124TIP3    H236932   2.948   2.256   1.524  0.8898  1.8354  1.6839
 5125TIP3   OH236933   4.798   0.598   1.444 -0.5825 -0.0967  0.0422
 5125TIP3    H136934   4.883   0.587   1.487 -0.1536  0.2774 -0.7143
 5125TIP3    H236935   4.759   0.511   1.447  0.5054 -0.6328 -1.0454
 5126TIP3   OH236936   0.221   6.613   0.900 -0.3589  0.5825  0.0647
 5126TIP3    H136937   0.157   6.682   0.883 -0.5064 -0.0651 -2.2558
 5126TIP3    H236938   0.301   6.645   0.860 -0.3992 -0.5298 -0.9192
 5127TIP3   OH236939   5.591   6.566   7.010  0.2246  0.7617  0.3267
 5127TIP3    H136940   5.674   6.519   7.014  0.1370  0.7918  2.7593
 5127TIP3    H236941   5.610   6.644   6.957  1.1995 -0.2943 -0.9008
 5128TIP3   OH236942   5.834   1.657   1.864 -0.6246  0.2560  0.6534
 5128TIP3    H136943   5.921   1.637   1.899 -1.4874 -1.7032  1.7544
 5128TIP3    H236944   5.810   1.739   1.906  0.6144  0.7267  0.4694
 5129TIP3   OH236945   5.838   1.011   6.945 -0.0144  0.5898  0.7701
 5129TIP3    H136946   5.792   1.008   7.029 -0.3749 -0.3670  0.5371
 5129TIP3    H236947   5.784   0.959   6.886  1.5940 -0.9296  0.6076
 5130TIP3   OH236948   3.117   5.223   6.869  0.1652 -0.2651  0.3262
 5130TIP3    H136949   3.175   5.267   6.806  0.3293  2.5406  2.3517
 5130TIP3    H236950   3.060   5.169   6.814  0.0580  2.3761 -2.3198
 5131TIP3   OH236951   4.273   1.051   1.804 -0.1566 -0.7006  0.0184
 5131TIP3    H136952   4.205   0.990   1.833  0.0205 -0.4908  0.8886
 5131TIP3    H236953   4.334   1.056   1.878  0.0224  0.2462 -0.1868
 5132TIP3   OH236954   6.604   0.839   0.823  0.2148  0.1079  0.2973
 5132TIP3    H136955   6.521   0.797   0.846  1.0180 -3.1255 -2.4003
 5132TIP3    H236956   6.660   0.824   0.899 -0.9217  0.2887  1.1890
 5133TIP3   OH236957   3.076   4.257   0.807  0.3537 -0.5634 -0.0003
 5133TIP3    H136958   3.127   4.249   0.887  1.9148  2.2577 -0.6765
 5133TIP3    H236959   3.109   4.336   0.764 -2.4646 -0.3669 -1.9796
 5134TIP3   OH236960   5.001   0.126   1.940  0.3614 -0.0603 -0.2551
 5134TIP3    H136961   4.910   0.113   1.912  0.2935 -1.8300  0.7407
 5134TIP3    H236962   5.039   0.038   1.941  1.1490  0.2563  2.4904
 5135TIP3   OH236963   2.696   2.696   1.393 -0.2153  0.3137  0.1520
 5135TIP3    H136964   2.756   2.660   1.458  0.6741  0.5063 -0.5505
 5135TIP3    H236965   2.675   2.783   1.427  1.5709  1.0776 -0.6338
 5136TIP3   OH236966   1.427   3.309   7.678 -0.0401  0.2930  0.3335
 5136TIP3    H136967   1.383   3.323   7.595 -1.8661 -0.8194  1.0683
 5136TIP3    H236968   1.493   3.243   7.660 -0.5490 -0.0710 -0.2093
 5137TIP3   OH236969   5.911   3.810   1.769  0.0921 -0.5845 -0.9903
 5137TIP3    H136970   5.993   3.857   1.754 -0.4294  0.6192 -0.1423
 5137TIP3    H236971   5.907   3.798   1.864 -0.1701 -1.6387 -1.1338
 5138TIP3   OH236972   5.902   5.248   1.106  0.3251 -0.1841  0.0493
 5138TIP3    H136973   5.894   5.297   1.188  0.2412 -0.6469  0.3170
 5138TIP3    H236974   5.891   5.315   1.038  1.2345  0.3375  0.4081
 5139TIP3   OH236975   6.674   1.683   0.706 -0.2155 -0.0107  0.7648
 5139TIP3    H136976   6.727   1.752   0.666 -0.8606  0.9228  1.4847
 5139TIP3    H236977   6.639   1.634   0.631  0.0891  0.5690  0.2332
 5140TIP3   OH236978   0.031   3.668   1.877 -0.2936 -0.2962 -0.0281
 5140TIP3    H136979   0.052   3.759   1.898  1.0989 -0.0920 -2.2194
 5140TIP3    H236980  -0.057   3.655   1.912 -0.2396  1.6741  0.8989
 5141TIP3   OH236981   4.875   2.904   1.887  0.0846  0.4961 -0.1319
 5141TIP3    H136982   4.888   2.972   1.953 -1.3858  0.4985  0.1702
 5141TIP3    H236983   4.840   2.950   1.811 -0.2627  0.1799 -0.1661
 5142TIP3   OH236984   6.938   3.202   1.305 -0.1337  0.6551 -0.1480
 5142TIP3    H136985   6.891   3.189   1.387 -1.3164  0.8846 -0.7699
 5142TIP3    H236986   6.992   3.280   1.320  2.9384 -1.7215  1.8133
 5143TIP3   OH236987   6.201   3.660   1.281 -0.0533 -0.2400  0.4524
 5143TIP3    H136988   6.108   3.636   1.280 -0.3857  0.9645  1.1458
 5143TIP3    H236989   6.200   3.756   1.281  1.1347 -0.1801  3.5667
 5144TIP3   OH236990   6.277   4.562   1.499 -0.0864 -0.0527  0.6300
 5144TIP3    H136991   6.280   4.474   1.538 -1.1481  0.3919  1.7492
 5144TIP3    H236992   6.354   4.606   1.534  1.4765 -1.0785 -1.3516
 5145TIP3   OH236993   6.813   4.387   1.922 -0.2454  0.4207  0.0484
 5145TIP3    H136994   6.718   4.395   1.931 -0.1653  1.0056  0.3311
 5145TIP3    H236995   6.842   4.348   2.004 -0.3704 -0.8385 -0.4810
 5146TIP3   OH236996   0.051   1.735   0.534  0.5201  0.2530  0.2271
 5146TIP3    H136997   0.114   1.770   0.471  2.2224 -0.7733  1.3060
 5146TIP3    H236998   0.038   1.644   0.507  0.5630  0.0726  0.8003
 5147TIP3   OH236999   6.044   2.885   1.995 -0.5894  0.8985  0.0415
 5147TIP3    H137000   6.012   2.795   1.981  1.2079  0.5755 -2.4226
 5147TIP3    H237001   6.069   2.888   2.087 -1.1024 -1.0088  0.2653
 5148TIP3   OH237002   0.234   1.869   1.673  0.4302 -0.4037 -0.3607
 5148TIP3    H137003   0.155   1.877   1.725  0.0847 -1.7300 -0.6782
 5148TIP3    H237004   0.305   1.869   1.737  0.1780  0.6959 -0.0700
 5149TIP3   OH237005   4.681   0.368   1.907 -0.1287  0.2370  0.0263
 5149TIP3    H137006   4.691   0.282   1.868  0.3471 -0.2431  1.1882
 5149TIP3    H237007   4.751   0.421   1.869 -0.6181  0.2136 -0.9281
 5150TIP3   OH237008   3.315   2.235   8.202 -0.2616  0.5385  0.5605
 5150TIP3    H137009   3.227   2.198   8.194  0.0524 -0.5096  1.7738
 5150TIP3    H237010   3.304   2.313   8.256 -0.6353  1.1091 -0.3430
 5151TIP3   OH237011   0.249   3.302   2.339  0.2857  0.1486  0.2216
 5151TIP3    H137012   0.238   3.385   2.386 -0.8901 -0.7541  1.5938
 5151TIP3    H237013   0.339   3.276   2.356  0.5668  0.9844  0.0471
 5152TIP3   OH237014   0.217   2.771   0.445 -0.1070  0.3794 -0.4128
 5152TIP3    H137015   0.163   2.724   0.508 -0.7733  1.3787 -0.2286
 5152TIP3    H237016   0.208   2.863   0.469  1.9997  0.5449 -0.1173
 5153TIP3   OH237017   0.198   3.470   1.897  0.3702  0.7669  0.3338
 5153TIP3    H137018   0.264   3.500   1.959 -0.1886 -1.5226  2.1089
 5153TIP3    H237019   0.135   3.542   1.891  1.8216  2.0566  0.3434
 5154TIP3   OH237020   6.837   0.500   0.150 -0.0327 -0.1928  0.3059
 5154TIP3    H137021   6.805   0.577   0.103 -0.3889  0.8564  2.1924
 5154TIP3    H237022   6.881   0.447   0.083  1.0705  2.1134 -0.8742
 5155TIP3   OH237023   0.737   2.404   1.557  0.1348  0.3769  0.0182
 5155TIP3    H137024   0.786   2.427   1.636  1.0380 -0.3874 -0.3106
 5155TIP3    H237025   0.651   2.444   1.569  0.4670  0.7619  1.1204
 5156TIP3   OH237026   5.270   6.091   1.503 -0.4443 -0.6230  0.5975
 5156TIP3    H137027   5.327   6.066   1.575  1.9417 -0.1212 -1.0391
 5156TIP3    H237028   5.220   6.012   1.482  1.2272 -1.7182  0.6814
 5157TIP3   OH237029   6.793   4.602   1.343 -0.8677 -0.1485 -0.2884
 5157TIP3    H137030   6.876   4.593   1.296 -2.2174  0.4129 -2.8650
 5157TIP3    H237031   6.746   4.521   1.325 -0.8526 -0.5309  1.2882
 5158TIP3   OH237032   1.343   2.894   1.679  0.3404  0.1288 -0.3716
 5158TIP3    H137033   1.301   2.905   1.764 -2.1348  1.2214 -1.6879
 5158TIP3    H237034   1.424   2.847   1.698 -0.1996  0.3144  2.5717
 5159TIP3   OH237035   0.293   1.772   0.705 -0.2364 -0.5156  0.5374
 5159TIP3    H137036   0.295   1.738   0.795  0.1438 -0.8068  0.4198
 5159TIP3    H237037   0.201   1.770   0.681 -0.5873  1.2965  1.5751
 5160TIP3   OH237038   6.392   1.226   8.229  0.3120 -0.4843 -0.2130
 5160TIP3    H137039   6.340   1.147   8.239 -2.0443  1.1815  0.9492
 5160TIP3    H237040   6.460   1.219   8.296  1.7651 -2.7283 -1.8307
 5161TIP3   OH237041   0.804   4.869   0.421 -0.1388  0.0773 -0.4466
 5161TIP3    H137042   0.812   4.883   0.515 -1.9597 -0.4937 -0.1952
 5161TIP3    H237043   0.799   4.957   0.384  2.4799  0.3576 -0.2152
 5162TIP3   OH237044   1.631   4.367   1.874 -0.0481  0.1580  0.5773
 5162TIP3    H137045   1.652   4.294   1.932  3.0132  1.0061  0.6689
 5162TIP3    H237046   1.547   4.345   1.835 -0.0507 -2.5085  2.0296
 5163TIP3   OH237047   2.182   2.142   1.928  0.6961  0.0762  0.0922
 5163TIP3    H137048   2.222   2.076   1.985  1.0073  0.1886  0.0080
 5163TIP3    H237049   2.138   2.202   1.987  2.0654  0.8953  0.3100
 5164TIP3   OH237050   0.622   2.318   0.939  0.0738 -0.2157  0.3555
 5164TIP3    H137051   0.548   2.377   0.922 -1.0464 -1.8225 -0.5688
 5164TIP3    H237052   0.696   2.376   0.957 -1.4111  1.4232  1.2621
 5165TIP3   OH237053   1.528   4.253   8.458 -0.0606 -1.2544  0.1832
 5165TIP3    H137054   1.454   4.223   8.405  1.2981 -1.8194 -1.4428
 5165TIP3    H237055   1.575   4.313   8.401  0.5063 -0.5570  1.3653
 5166TIP3   OH237056   6.523   1.840   1.024  0.4616  0.1903 -0.4028
 5166TIP3    H137057   6.484   1.889   0.952 -0.6293  0.4471  0.3504
 5166TIP3    H237058   6.589   1.898   1.060  1.0580  0.0350 -1.2334
 5167TIP3   OH237059   0.128   5.174   1.325 -0.0046  0.4241  0.0155
 5167TIP3    H137060   0.077   5.120   1.385  1.2527 -0.8568 -0.0257
 5167TIP3    H237061   0.219   5.161   1.353  0.4812  0.9331 -1.2783
 5168TIP3   OH237062   4.893   0.127   1.270 -0.5873 -0.5653 -0.2973
 5168TIP3    H137063   4.807   0.164   1.290  0.1344  1.0780 -0.1318
 5168TIP3    H237064   4.944   0.142   1.350  0.2884 -0.1806 -0.9286
 5169TIP3   OH237065   6.579   5.243   0.149 -0.6738 -0.3037  0.2884
 5169TIP3    H137066   6.650   5.263   0.210 -0.4132 -0.6168  0.0905
 5169TIP3    H237067   6.592   5.303   0.076  0.5914 -1.7240 -0.6824
 5170TIP3   OH237068   3.083   2.091   8.141 -0.1237  0.2942  0.0174
 5170TIP3    H137069   3.001   2.112   8.096  0.8271  0.6727 -1.5933
 5170TIP3    H237070   3.100   1.999   8.118  0.1346  0.3558 -0.0450
 5171TIP3   OH237071   0.857   4.160   0.664  0.0202  0.4824  0.1918
 5171TIP3    H137072   0.809   4.190   0.742  0.9441  0.4185  0.7967
 5171TIP3    H237073   0.891   4.241   0.625 -0.7959  0.5498 -0.3819
 5172TIP3   OH237074   0.772   2.713   2.100  0.0810 -0.0392  0.2992
 5172TIP3    H137075   0.795   2.766   2.176 -0.6255 -0.1351  0.5881
 5172TIP3    H237076   0.805   2.625   2.120 -0.3208 -0.1212  0.6058
 5173TIP3   OH237077   6.716   2.601   1.957  0.3078 -0.6769  0.2916
 5173TIP3    H137078   6.762   2.631   2.035  0.7368  0.6936 -0.4855
 5173TIP3    H237079   6.632   2.648   1.959  0.4625 -0.3717 -0.2539
 5174TIP3   OH237080   5.785   4.060   1.673  0.1472  0.0980 -0.1105
 5174TIP3    H137081   5.735   4.021   1.602 -0.3032 -0.3189  0.4345
 5174TIP3    H237082   5.810   3.987   1.729  4.3913 -0.2072 -2.1950
 5175TIP3   OH237083   1.114   4.822   6.952 -0.0087  0.1111  0.0854
 5175TIP3    H137084   1.100   4.902   7.002  1.8596 -0.6320  1.8656
 5175TIP3    H237085   1.163   4.850   6.875 -1.1395  0.9545 -0.3500
 5176TIP3   OH237086   7.134   2.408   0.545  0.1750  0.5774  0.8795
 5176TIP3    H137087   7.200   2.427   0.477  0.8236 -0.4321  1.2101
 5176TIP3    H237088   7.133   2.486   0.600  0.9034  0.7127  0.7082
 5177TIP3   OH237089   1.018   2.602   0.477 -0.2891 -0.1778 -0.5573
 5177TIP3    H137090   1.070   2.613   0.397  0.8563  1.1418  0.3316
 5177TIP3    H237091   0.987   2.691   0.496  1.9245  0.0937  2.0664
 5178TIP3   OH237092   5.943   5.603   8.173  0.6797  0.2420 -0.6378
 5178TIP3    H137093   5.988   5.684   8.147  2.9794 -0.6089  0.5477
 5178TIP3    H237094   5.856   5.632   8.200  0.9902  2.1421 -1.5680
 5179TIP3   OH237095   5.955   6.796   1.167  0.2777  0.0963  0.0742
 5179TIP3    H137096   5.940   6.701   1.170  1.3770 -0.0609  2.1058
 5179TIP3    H237097   6.051   6.804   1.170  0.1455  1.2933  1.3133
 5180TIP3   OH237098   6.978   2.998   0.886  0.0009  0.1455  0.3292
 5180TIP3    H137099   6.969   2.907   0.913  2.0766  0.6556  2.8346
 5180TIP3    H237100   6.933   3.048   0.954 -0.0227  1.1013 -0.3772
 5181TIP3   OH237101   7.064   5.822   1.454 -0.4054  0.4609 -0.2608
 5181TIP3    H137102   7.053   5.728   1.439  0.4258  0.0985  1.3027
 5181TIP3    H237103   7.157   5.831   1.474 -0.6628  1.4996  0.4603
 5182TIP3   OH237104   0.107   4.189   0.872 -0.3844  0.7911 -0.2581
 5182TIP3    H137105   0.167   4.116   0.888 -0.4606  1.1542  1.8433
 5182TIP3    H237106   0.027   4.148   0.841 -0.1712  0.0287  0.1930
 5183TIP3   OH237107   6.776   3.433   1.139 -0.1388  0.0631 -0.2004
 5183TIP3    H137108   6.799   3.436   1.232 -1.6225 -0.7629  0.2257
 5183TIP3    H237109   6.717   3.508   1.127 -1.7615 -1.1237  0.0865
 5184TIP3   OH237110   6.194   3.869   1.828  0.3037 -0.5898  0.1554
 5184TIP3    H137111   6.262   3.809   1.797 -0.0869 -1.2837  0.6149
 5184TIP3    H237112   6.179   3.843   1.919 -0.6488 -0.5021  0.0271
 5185TIP3   OH237113   0.256   2.389   1.937  0.1414 -0.6674 -0.1322
 5185TIP3    H137114   0.254   2.382   1.842  1.9622  1.0507 -0.3320
 5185TIP3    H237115   0.177   2.439   1.959 -0.1138 -0.7898 -0.7758
 5186TIP3   OH237116   6.040   2.957   1.719 -0.1703  0.7123 -0.2952
 5186TIP3    H137117   5.949   2.972   1.692 -0.5184 -1.8842 -0.6294
 5186TIP3    H237118   6.035   2.942   1.813  0.2360  2.9860  0.1192
 5187TIP3   OH237119   2.477   6.229   7.907  0.1036  0.3292  0.1507
 5187TIP3    H137120   2.430   6.154   7.942  0.3171  0.5874  1.0112
 5187TIP3    H237121   2.409   6.287   7.873 -0.1162  0.0982  0.2036
 5188TIP3   OH237122   0.528   2.397   1.920  0.0508 -0.3893 -0.2848
 5188TIP3    H137123   0.555   2.319   1.968 -0.6629  0.5259  1.6264
 5188TIP3    H237124   0.432   2.394   1.921  0.0155  0.6582  0.0594
 5189TIP3   OH237125   6.989   0.875   0.752 -0.3216  0.0563 -0.7858
 5189TIP3    H137126   6.962   0.798   0.802  2.5616 -0.0107  0.7709
 5189TIP3    H237127   6.951   0.949   0.799  0.3858 -0.1539  0.1081
 5190TIP3   OH237128   1.699   2.235   1.585  0.5148 -0.0401 -0.5506
 5190TIP3    H137129   1.694   2.145   1.616 -0.9998  0.2900  0.1976
 5190TIP3    H237130   1.786   2.265   1.614  0.0777 -0.5083  1.3166
 5191TIP3   OH237131   6.263   0.503   8.083 -0.5546 -1.0280 -0.0825
 5191TIP3    H137132   6.358   0.511   8.093 -0.3960 -0.3250 -2.0182
 5191TIP3    H237133   6.248   0.409   8.068 -0.3346 -1.3739  1.7858
 5192TIP3   OH237134   0.600   1.465   6.611  0.2524  0.2739 -0.1544
 5192TIP3    H137135   0.566   1.543   6.567  1.7187  0.6038 -0.7453
 5192TIP3    H237136   0.676   1.497   6.660 -1.0370 -0.1819  2.2208
 5193TIP3   OH237137   5.105   7.211   0.918  0.2567 -0.1500 -0.3128
 5193TIP3    H137138   5.172   7.257   0.866  1.7262 -1.0514  0.7285
 5193TIP3    H237139   5.154   7.176   0.993 -1.7928  0.9775  1.5899
 5194TIP3   OH237140   5.762   0.237   1.726  0.4691  0.8461  0.0727
 5194TIP3    H137141   5.682   0.248   1.777  0.3617 -1.1740  0.3695
 5194TIP3    H237142   5.810   0.319   1.739 -0.0001  0.7633  2.6148
 5195TIP3   OH237143   6.975   2.578   0.969 -0.0152 -0.1816  0.4135
 5195TIP3    H137144   7.008   2.626   1.045 -2.6541  1.8849  0.3208
 5195TIP3    H237145   7.031   2.606   0.897  0.3337  0.5045  0.9441
 5196TIP3   OH237146   6.226   2.267   1.499  0.6169 -0.2167  0.1109
 5196TIP3    H137147   6.225   2.347   1.447  0.3110 -0.5735 -0.4382
 5196TIP3    H237148   6.161   2.210   1.457 -1.6214  0.4868  2.4606
 5197TIP3   OH237149   5.353   1.652   1.514  0.2631  0.2887 -0.0856
 5197TIP3    H137150   5.447   1.638   1.526  0.5456  0.6882 -1.6687
 5197TIP3    H237151   5.325   1.698   1.593  1.5144  0.6798  0.1451
 5198TIP3   OH237152   6.466   1.085   1.168  0.1404  0.0444 -0.4090
 5198TIP3    H137153   6.466   0.997   1.131  0.6568  0.0247 -0.3675
 5198TIP3    H237154   6.381   1.122   1.143 -1.4970 -1.6556  2.5066
 5199TIP3   OH237155   5.450   0.852   1.135  0.6383  0.4306  0.3349
 5199TIP3    H137156   5.438   0.923   1.197 -0.9575  0.0124  0.5206
 5199TIP3    H237157   5.377   0.860   1.073  1.1007 -0.3334 -0.3274
 5200TIP3   OH237158   4.562   4.353   1.295  0.4826  0.5936  0.4070
 5200TIP3    H137159   4.485   4.304   1.264 -0.1892  1.7857  0.1654
 5200TIP3    H237160   4.528   4.409   1.365  1.1679  0.9878  0.4307
 5201TIP3   OH237161   6.789   4.077   1.727  0.0529  0.1699 -0.7245
 5201TIP3    H137162   6.721   4.106   1.787  0.6920  0.1811  0.0138
 5201TIP3    H237163   6.833   4.005   1.774  0.8244  0.4533 -0.9949
 5202TIP3   OH237164   5.911   0.460   1.776  0.1091 -0.0307  0.0864
 5202TIP3    H137165   5.877   0.546   1.803 -0.8174 -1.0395  2.2368
 5202TIP3    H237166   5.964   0.431   1.849  1.2900 -0.8501 -1.0768
 5203TIP3   OH237167   4.754   2.063   1.467 -0.7411  0.1016 -0.0184
 5203TIP3    H137168   4.837   2.067   1.514 -0.3073  0.2232 -0.7806
 5203TIP3    H237169   4.769   2.116   1.389 -1.9684  1.2357  0.4918
 5204TIP3   OH237170   5.730   0.410   0.633  0.1856  0.1471 -0.1901
 5204TIP3    H137171   5.640   0.423   0.664 -0.0174 -1.2079 -0.1954
 5204TIP3    H237172   5.776   0.372   0.708  0.2871 -0.9088 -0.7779
 5205TIP3   OH237173   5.431   1.822   2.388 -0.3446  0.0249  0.0557
 5205TIP3    H137174   5.477   1.773   2.321  2.4220  2.2618  0.2453
 5205TIP3    H237175   5.489   1.820   2.464 -1.1484  1.7303  0.7538
 5206TIP3   OH237176   6.562   1.314   8.034 -0.2597  0.3724  0.1914
 5206TIP3    H137177   6.484   1.314   8.090  1.9570  2.7221  3.4312
 5206TIP3    H237178   6.541   1.376   7.964 -1.6079  0.3363  0.5461
 5207TIP3   OH237179   0.776   3.117   2.131 -0.1365 -0.3809  0.1089
 5207TIP3    H137180   0.861   3.074   2.140 -0.1529 -0.5383 -0.4587
 5207TIP3    H237181   0.718   3.068   2.189 -0.0320 -0.7919 -0.1343
 5208TIP3   OH237182   6.557   2.636   1.592 -0.0336  0.3430  0.4805
 5208TIP3    H137183   6.508   2.718   1.601 -0.9050 -0.2467  1.2548
 5208TIP3    H237184   6.520   2.579   1.659  2.2356  0.1109  1.6023
 5209TIP3   OH237185   5.154   0.783   1.019  0.2324  0.3469 -0.1433
 5209TIP3    H137186   5.092   0.719   0.986 -0.3933  1.1845 -0.6144
 5209TIP3    H237187   5.117   0.868   0.995  2.6004  0.8286 -2.3631
 5210TIP3   OH237188   3.536   2.296   1.546  0.5744 -0.4009  0.5842
 5210TIP3    H137189   3.627   2.311   1.518  0.7722 -1.5880  0.5360
 5210TIP3    H237190   3.541   2.291   1.641  0.7030 -1.3102  0.5345
 5211TIP3   OH237191   1.502   4.492   2.197  0.3823  0.1386 -0.1459
 5211TIP3    H137192   1.492   4.550   2.272 -0.1955  0.0426 -0.1432
 5211TIP3    H237193   1.484   4.547   2.121 -0.8512 -0.1901 -0.1038
 5212TIP3   OH237194   6.307   6.908   1.399 -0.1846 -0.0950  0.4013
 5212TIP3    H137195   6.231   6.954   1.434  0.1402  0.9198 -0.2068
 5212TIP3    H237196   6.378   6.931   1.459 -0.1340 -0.2356  0.3960
 5213TIP3   OH237197   6.307   1.167   0.785 -0.2734  0.4110  0.2258
 5213TIP3    H137198   6.264   1.089   0.750  1.4936 -0.2216 -0.5820
 5213TIP3    H237199   6.277   1.172   0.876 -1.7922 -0.1784 -0.2218
 5214TIP3   OH237200   0.961   0.518   8.242 -0.1731  0.0359 -0.5458
 5214TIP3    H137201   0.876   0.561   8.244 -0.6884 -0.9756 -0.2471
 5214TIP3    H237202   0.960   0.467   8.161  0.1938  0.1205 -0.6034
 5215TIP3   OH237203   2.235   2.351   8.376 -0.8979 -0.3358  0.1061
 5215TIP3    H137204   2.187   2.311   8.303 -2.7270  0.6892  0.7131
 5215TIP3    H237205   2.170   2.359   8.446 -0.0213  1.7020  0.7167
 5216TIP3   OH237206   0.652   1.076   1.132  0.2740 -0.3491 -0.8551
 5216TIP3    H137207   0.573   1.102   1.085 -1.1547 -1.3933  0.8886
 5216TIP3    H237208   0.653   1.130   1.211 -0.1835 -2.2176  0.4619
 5217TIP3   OH237209   4.931   1.648   1.653  0.3371 -0.0685 -0.0974
 5217TIP3    H137210   4.876   1.713   1.695 -1.6250  0.9212 -3.9193
 5217TIP3    H237211   4.871   1.579   1.626  1.8491 -1.7341  0.6593
 5218TIP3   OH237212   4.856   1.196   1.655 -0.0311 -0.4574 -0.2956
 5218TIP3    H137213   4.843   1.291   1.653 -0.0546 -0.4525  0.0474
 5218TIP3    H237214   4.951   1.185   1.663  0.0939 -0.4807 -1.7285
 5219TIP3   OH237215   6.136   5.173   1.785 -0.3544 -0.0530 -0.0792
 5219TIP3    H137216   6.188   5.220   1.719 -0.7685  1.0291  0.3606
 5219TIP3    H237217   6.129   5.234   1.858 -2.2965 -0.1697 -0.1432
 5220TIP3   OH237218   6.065   2.392   1.933 -0.0514 -0.2873 -0.3126
 5220TIP3    H137219   6.135   2.360   1.990 -0.2824 -1.2079 -0.5431
 5220TIP3    H237220   6.000   2.428   1.993  0.7028  0.7396 -0.1040
 5221TIP3   OH237221   7.019   3.142   2.644  0.9020 -0.2004 -0.4265
 5221TIP3    H137222   6.989   3.193   2.569  0.9307  1.1403  0.4745
 5221TIP3    H237223   6.942   3.137   2.701  1.0722 -0.6878 -0.2335
 5222TIP3   OH237224   0.274   1.461   7.241  0.4354  0.5336 -0.4103
 5222TIP3    H137225   0.285   1.367   7.232  4.6215  0.8448  0.5881
 5222TIP3    H237226   0.204   1.483   7.180 -1.9452 -3.4424  0.7321
 5223TIP3   OH237227   4.192   3.200   0.174 -0.3731 -0.0789  0.5119
 5223TIP3    H137228   4.183   3.108   0.201 -3.3793  0.3361  1.0927
 5223TIP3    H237229   4.199   3.248   0.256  0.3220  0.2823  0.2369
 5224TIP3   OH237230   5.977   1.458   1.493  0.2181 -0.1116 -0.0826
 5224TIP3    H137231   5.905   1.516   1.517  0.0623  0.3924 -1.6759
 5224TIP3    H237232   5.939   1.370   1.495 -1.1500  0.3313 -3.2153
 5225TIP3   OH237233   0.058   5.787   1.504  0.0747  0.1921 -0.3096
 5225TIP3    H137234   0.108   5.831   1.572 -0.5745 -0.5800  0.6793
 5225TIP3    H237235   0.118   5.721   1.468  1.0096  1.7572 -1.7152
 5226TIP3   OH237236   6.929   3.197   1.858 -0.5035 -0.0175 -0.1320
 5226TIP3    H137237   6.896   3.264   1.917  0.5776 -0.2792  0.7802
 5226TIP3    H237238   6.892   3.115   1.893  1.3171 -0.3480  1.0722
 5227TIP3   OH237239   7.190   6.333   1.072 -0.5650 -0.5969  0.2119
 5227TIP3    H137240   7.209   6.420   1.039 -2.6345  0.0668  0.7060
 5227TIP3    H237241   7.223   6.334   1.162  0.6025 -0.7802 -0.2020
 5228TIP3   OH237242   7.085   2.359   1.082  0.1145 -0.6830 -0.0494
 5228TIP3    H137243   7.173   2.394   1.089 -0.8203  1.3837  1.7946
 5228TIP3    H237244   7.038   2.421   1.026 -1.1156  0.1913  1.9055
 5229TIP3   OH237245   1.322   4.230   0.826 -0.1774  0.0403  0.1773
 5229TIP3    H137246   1.365   4.304   0.869 -0.4152  0.3530 -0.1204
 5229TIP3    H237247   1.295   4.173   0.898 -1.3846  0.9975  0.5080
 5230TIP3   OH237248   7.240   3.428   1.615 -0.0971 -0.7122  0.4369
 5230TIP3    H137249   7.269   3.419   1.706 -0.3513 -1.1525  0.4775
 5230TIP3    H237250   7.152   3.464   1.621  0.4261  0.6183  0.3129
 5231TIP3   OH237251   6.377   2.053   1.615  0.1530  0.0789  0.0326
 5231TIP3    H137252   6.465   2.031   1.584 -0.4646 -1.0537 -0.9614
 5231TIP3    H237253   6.341   2.110   1.548  0.6935  1.8614  1.2206
 5232TIP3   OH237254   0.129   4.886   1.575  0.2528 -0.3376  0.4853
 5232TIP3    H137255   0.204   4.841   1.613 -0.8598 -1.6479  1.1680
 5232TIP3    H237256   0.105   4.952   1.640 -0.8028 -1.6652  1.4597
 5233TIP3   OH237257   5.629   5.142   0.208 -0.3336 -0.2700 -0.1477
 5233TIP3    H137258   5.634   5.119   0.301 -1.0752  3.1375  0.8012
 5233TIP3    H237259   5.553   5.093   0.176  0.5305 -2.2751  0.7493
 5234TIP3   OH237260   5.949   4.853   0.872  0.2989  0.2702  0.3837
 5234TIP3    H137261   6.021   4.833   0.931 -1.0428  0.9946  2.3290
 5234TIP3    H237262   5.872   4.812   0.914 -0.2512 -1.5548 -2.2490
 5235TIP3   OH237263   6.240   4.931   1.832 -0.0192 -0.0064 -0.3101
 5235TIP3    H137264   6.206   5.017   1.809 -0.2116 -0.1742 -0.6716
 5235TIP3    H237265   6.202   4.872   1.766 -0.5595 -0.4983  0.4290
 5236TIP3   OH237266   0.046   0.336   1.092  0.0986  0.0220  0.0773
 5236TIP3    H137267   0.049   0.242   1.110 -0.1228  0.1376  0.7619
 5236TIP3    H237268  -0.011   0.346   1.017  0.8277 -0.4694 -0.5440
 5237TIP3   OH237269   1.149   0.776   1.960  0.2435  0.2369  0.7594
 5237TIP3    H137270   1.122   0.772   2.052  0.9618 -0.7367  0.9442
 5237TIP3    H237271   1.067   0.786   1.911 -0.0605  1.7044  1.5498
 5238TIP3   OH237272   0.823   3.712   1.729  0.0781 -0.0661 -0.8321
 5238TIP3    H137273   0.891   3.714   1.661  1.3238  1.3046  0.3968
 5238TIP3    H237274   0.775   3.794   1.717  0.0582  0.0010 -0.3130
 5239TIP3   OH237275   6.677   2.137   1.633  0.2199 -0.1926 -0.2802
 5239TIP3    H137276   6.761   2.120   1.589 -0.4288 -2.9082 -0.5497
 5239TIP3    H237277   6.654   2.226   1.606  2.2392  0.0174 -1.4653
 5240TIP3   OH237278   4.990   1.172   7.325 -0.0473 -0.4971 -0.5056
 5240TIP3    H137279   4.949   1.156   7.410  1.4031 -0.0314  0.2928
 5240TIP3    H237280   4.954   1.256   7.296 -0.1289 -0.3918 -0.0944
 5241TIP3   OH237281   0.491   2.127   1.687  0.1030  0.2961 -0.3731
 5241TIP3    H137282   0.452   2.073   1.756 -0.4158 -0.4103 -1.2053
 5241TIP3    H237283   0.576   2.085   1.670  0.4600  0.7734  0.1764
 5242TIP3   OH237284   6.644   2.899   6.178  1.4093 -0.3346  0.6404
 5242TIP3    H137285   6.596   2.827   6.218  0.1017  0.3422  0.2915
 5242TIP3    H237286   6.698   2.857   6.111 -1.2381 -0.7391 -1.3235
 5243TIP3   OH237287   6.036   0.798   0.896 -0.3435 -0.4248 -0.4580
 5243TIP3    H137288   6.014   0.878   0.848 -1.9568 -0.4219  0.2479
 5243TIP3    H237289   5.972   0.734   0.865  0.5555 -1.2816 -0.5719
 5244TIP3   OH237290   6.909   2.170   1.513  0.1543  0.7223  0.0706
 5244TIP3    H137291   6.894   2.210   1.428  1.1253 -0.4203 -0.6398
 5244TIP3    H237292   6.965   2.232   1.559 -3.1100  2.9948  1.1852
 5245TIP3   OH237293   1.259   3.405   1.295 -0.2719  0.4113 -0.2729
 5245TIP3    H137294   1.216   3.320   1.306 -1.5548  1.0642 -0.1696
 5245TIP3    H237295   1.252   3.447   1.381  3.9140 -0.9669  0.8535
 5246TIP3   OH237296   7.212   2.726   6.255 -0.3155  0.2784  0.5940
 5246TIP3    H137297   7.289   2.674   6.277  0.1996  0.7120 -0.1608
 5246TIP3    H237298   7.247   2.813   6.235 -1.0942  0.7299  1.1449
 5247TIP3   OH237299   6.868   4.434   2.235  0.3261 -0.4442  0.2908
 5247TIP3    H137300   6.834   4.505   2.180 -0.5414 -0.6805  0.5242
 5247TIP3    H237301   6.940   4.475   2.284  0.9117 -0.1537 -0.7839
 5248TIP3   OH237302   6.701   3.457   1.609  0.2235 -0.1061  0.4091
 5248TIP3    H137303   6.731   3.501   1.688  1.8447  0.3938 -0.4640
 5248TIP3    H237304   6.635   3.516   1.573  1.2121  0.8449  0.1205
 5249TIP3   OH237305   5.008   1.305   2.412 -0.6236 -0.3045  0.6588
 5249TIP3    H137306   4.977   1.370   2.475  1.2063  0.1242  1.1614
 5249TIP3    H237307   4.939   1.239   2.410 -2.0734  1.1639  0.8690
 5250TIP3   OH237308   5.479   5.382   0.784  0.5005 -0.0519  0.0687
 5250TIP3    H137309   5.474   5.292   0.751 -2.0708 -0.1177  0.5057
 5250TIP3    H237310   5.484   5.372   0.880 -0.3461  0.2718  0.1498
 5251TIP3   OH237311   5.110   5.172   7.452 -0.5742 -0.0125 -0.8499
 5251TIP3    H137312   5.044   5.134   7.509 -0.3333  1.0480  0.1601
 5251TIP3    H237313   5.163   5.098   7.422 -0.8726 -0.6028  0.0887
 5252TIP3   OH237314   0.566   1.765   0.612 -0.6963  0.4037 -0.9997
 5252TIP3    H137315   0.473   1.764   0.633 -0.1686  2.5005  1.7004
 5252TIP3    H237316   0.578   1.846   0.563 -0.0260  0.9824  0.1057
 5253TIP3   OH237317   6.671   2.319   1.915  0.0755  0.3000  0.3928
 5253TIP3    H137318   6.680   2.269   1.834 -1.4328 -0.0725  0.4421
 5253TIP3    H237319   6.706   2.406   1.894 -0.4465  0.2517 -0.7218
 5254TIP3   OH237320   0.914   4.097   6.275  0.3909  0.0378 -0.5966
 5254TIP3    H137321   0.868   4.114   6.192 -0.3415 -2.1296 -0.6679
 5254TIP3    H237322   0.977   4.168   6.282 -1.0794  1.5092 -1.8994
 5255TIP3   OH237323   5.218   2.042   1.720 -0.1797 -0.3174  0.3662
 5255TIP3    H137324   5.277   2.084   1.658  0.2400  1.7073  2.0744
 5255TIP3    H237325   5.244   2.077   1.805 -1.9659 -1.6007  1.4760
 5256TIP3   OH237326   5.905   1.047   7.464 -0.1598 -0.2609 -0.1175
 5256TIP3    H137327   5.947   1.096   7.393 -1.4590  0.6052 -0.3000
 5256TIP3    H237328   5.954   1.072   7.543 -0.4765  0.9076 -0.2910
 5257TIP3   OH237329   6.461   2.579   1.319  0.3238  0.1227 -0.0649
 5257TIP3    H137330   6.486   2.599   1.409 -0.3928  1.5422 -0.1609
 5257TIP3    H237331   6.366   2.571   1.322  0.5116 -2.5357 -0.2064
 5258TIP3   OH237332   0.304   3.280   0.857  0.2627 -0.2566 -0.1234
 5258TIP3    H137333   0.385   3.329   0.867 -0.5890  1.0543  0.6180
 5258TIP3    H237334   0.262   3.319   0.780 -0.9510  1.0162  1.1308
 5259TIP3   OH237335   6.575   3.206   2.095  0.2295 -0.3040  0.5137
 5259TIP3    H137336   6.591   3.124   2.050 -0.4580 -0.1428 -0.0409
 5259TIP3    H237337   6.505   3.186   2.158  1.7444 -0.7228  2.0827
 5260TIP3   OH237338   4.373   1.326   0.786 -0.2645  0.2634 -0.0398
 5260TIP3    H137339   4.465   1.301   0.786 -0.2248  0.4097  0.4427
 5260TIP3    H237340   4.360   1.371   0.869 -1.3287 -1.8229  0.9590
 5261TIP3   OH237341   6.966   2.628   1.823  0.1886  0.2111 -0.1323
 5261TIP3    H137342   6.936   2.682   1.750  1.3268  2.1421  0.7871
 5261TIP3    H237343   6.889   2.616   1.878 -0.3154  0.0184 -0.8806
 5262TIP3   OH237344   1.182   3.109   0.737  0.2161 -0.1059 -0.1702
 5262TIP3    H137345   1.230   3.156   0.806 -0.3211  0.0952  0.0694
 5262TIP3    H237346   1.090   3.121   0.760  0.0041  0.5392 -1.2984
 5263TIP3   OH237347   0.959   3.369   1.576 -0.0684  0.0696 -0.2183
 5263TIP3    H137348   0.939   3.444   1.520 -1.0292  0.5405  0.7140
 5263TIP3    H237349   0.927   3.293   1.527 -0.1872  0.3951 -0.6494
 5264TIP3   OH237350   5.613   6.525   1.084  0.3670 -0.5421 -0.3627
 5264TIP3    H137351   5.527   6.566   1.075  1.2209  0.8337 -2.7366
 5264TIP3    H237352   5.595   6.432   1.088 -1.2648 -0.2383 -0.3595
 5265TIP3   OH237353   0.761   2.065   1.585  0.2838  0.3049  0.0148
 5265TIP3    H137354   0.783   2.104   1.670  0.9986 -2.2653  1.0538
 5265TIP3    H237355   0.800   2.125   1.521  1.1294  1.4356  1.5436
 5266TIP3   OH237356   1.751   2.417   0.094  0.4130  0.2892 -0.2992
 5266TIP3    H137357   1.673   2.398   0.043 -0.4313  0.0556  1.0542
 5266TIP3    H237358   1.744   2.510   0.116 -0.4323 -0.1581  1.3804
 5267TIP3   OH237359   6.414   2.215   2.410 -0.0853  0.3603  0.0625
 5267TIP3    H137360   6.482   2.151   2.433 -0.9390 -0.0190  1.5612
 5267TIP3    H237361   6.458   2.275   2.350  1.0083 -1.0648 -0.6013
 5268TIP3   OH237362   6.993   2.419   2.178  0.2840  0.1342  0.6482
 5268TIP3    H137363   6.933   2.344   2.183  0.1158  0.2168 -0.1855
 5268TIP3    H237364   7.063   2.396   2.239  0.0806 -0.5646  0.6315
 5269TIP3   OH237365   4.714   0.808   8.454  0.2487 -0.7746  0.6008
 5269TIP3    H137366   4.727   0.758   8.535  0.4306 -0.8659  0.5151
 5269TIP3    H237367   4.666   0.886   8.482  0.6313 -0.6313  0.8542
 5270TIP3   OH237368   6.493   2.547   2.227  0.1087 -0.5821 -0.5031
 5270TIP3    H137369   6.412   2.510   2.191  0.7545 -1.4811 -1.0796
 5270TIP3    H237370   6.549   2.470   2.241 -0.1326 -0.2749  2.4954
 5271TIP3   OH237371   7.001   1.230   2.023 -0.3763 -0.5870  0.2473
 5271TIP3    H137372   7.053   1.195   2.095  0.1461  2.6564  1.4976
 5271TIP3    H237373   7.053   1.211   1.945  0.7469 -0.9387  1.0698
 5272TIP3   OH237374   0.964   2.654   1.646  0.4508  0.0074 -0.4404
 5272TIP3    H137375   0.979   2.683   1.736  2.5314 -1.2037 -0.3572
 5272TIP3    H237376   1.020   2.577   1.636 -1.0412 -0.8859 -2.2490
 5273TIP3   OH237377   7.298   7.126   2.018 -0.2910  0.1033 -0.2701
 5273TIP3    H137378   7.326   7.067   1.948 -2.0421 -1.2620  0.1147
 5273TIP3    H237379   7.222   7.172   1.982 -0.5748  0.1414  0.3674
 5274TIP3   OH237380   0.275   2.569   1.018  0.2928  0.1396 -0.1583
 5274TIP3    H137381   0.270   2.473   1.026 -0.2280  0.2310  0.6403
 5274TIP3    H237382   0.216   2.602   1.086 -0.7038  1.0058 -1.4111
 5275TIP3   OH237383   0.271   1.356   0.951  0.3646  0.4656  0.3386
 5275TIP3    H137384   0.303   1.418   1.017 -1.2073  0.4465  1.1384
 5275TIP3    H237385   0.243   1.412   0.878  2.4012  0.4691 -0.4769
 5276TIP3   OH237386   5.061   3.043   1.623  0.6991 -0.5359 -0.2871
 5276TIP3    H137387   5.112   3.098   1.563  0.0095 -1.5298 -1.8055
 5276TIP3    H237388   4.976   3.086   1.630  0.9012 -0.2274  0.2575
 5277TIP3   OH237389   0.960   4.636   0.045  0.2624  0.1222  0.0502
 5277TIP3    H137390   0.984   4.543   0.046 -1.5333 -0.3722 -0.2610
 5277TIP3    H237391   1.043   4.682   0.046  1.2528 -1.5100 -2.7306
 5278TIP3   OH237392   5.508   2.986   1.843 -0.4832 -0.2566 -0.5549
 5278TIP3    H137393   5.416   2.994   1.820 -0.8402 -0.9591  0.5883
 5278TIP3    H237394   5.510   2.995   1.939  0.4842 -1.4105 -0.4556
 5279TIP3   OH237395   2.526   4.555   1.279  0.2161 -0.5363  0.0770
 5279TIP3    H137396   2.593   4.602   1.228  0.4164 -0.2420  0.6099
 5279TIP3    H237397   2.552   4.568   1.370  0.1454 -1.4906  0.2358
 5280TIP3   OH237398   5.387   2.376   1.918 -0.3737  0.3489  0.1230
 5280TIP3    H137399   5.456   2.430   1.878 -2.0188  2.0625 -0.4841
 5280TIP3    H237400   5.325   2.440   1.954 -0.5457 -1.1835  2.6091
 5281TIP3   OH237401   7.293   6.116   0.213  0.8460  1.2110  0.1496
 5281TIP3    H137402   7.309   6.148   0.124  2.4427  0.8390  0.2806
 5281TIP3    H237403   7.251   6.030   0.201  0.1692  1.5959 -0.2318
 5282TIP3   OH237404   0.169   3.908   0.886  1.2360  0.1226  0.9413
 5282TIP3    H137405   0.137   3.818   0.891  1.7045 -0.1197 -0.3001
 5282TIP3    H237406   0.262   3.899   0.867  1.2817  0.8640  0.7992
 5283TIP3   OH237407   6.591   1.097   8.410  0.0003  0.5092  0.1121
 5283TIP3    H137408   6.508   1.050   8.421 -0.0727 -0.2224 -2.9772
 5283TIP3    H237409   6.636   1.087   8.493 -1.7755 -1.5654  0.8605
 5284TIP3   OH237410   4.859   0.124   0.440 -0.0743 -0.5557 -0.0931
 5284TIP3    H137411   4.857   0.037   0.400  1.2854 -1.1948  1.1585
 5284TIP3    H237412   4.900   0.109   0.526 -0.0802  1.2711  0.2372
 5285TIP3   OH237413   2.858   2.122   0.329  0.0936 -0.1585 -0.0562
 5285TIP3    H137414   2.805   2.117   0.408  0.3984  0.7903  0.2232
 5285TIP3    H237415   2.800   2.159   0.263 -0.1462 -0.9033 -0.2702
 5286TIP3   OH237416   6.916   3.213   2.399 -0.0363 -0.5209  0.0306
 5286TIP3    H137417   6.861   3.141   2.368 -2.1383  0.3302  1.7093
 5286TIP3    H237418   6.891   3.288   2.344  0.3740 -0.4470 -0.0590
 5287TIP3   OH237419   0.527   1.344   6.888  0.2232 -0.4080 -0.3141
 5287TIP3    H137420   0.441   1.303   6.877  1.1771 -2.2139 -1.4018
 5287TIP3    H237421   0.552   1.370   6.799  0.6158  0.5153  0.0616
 5288TIP3   OH237422   7.266   2.308   2.196  0.3497  0.1742  0.0021
 5288TIP3    H137423   7.356   2.275   2.202  0.4251  0.4206  0.2265
 5288TIP3    H237424   7.212   2.236   2.229  0.5237  0.3239  0.6212
 5289TIP3   OH237425   0.794   1.283   0.027  0.4642 -0.2367 -0.0921
 5289TIP3    H137426   0.704   1.256   0.046  0.6660 -0.6753  0.2290
 5289TIP3    H237427   0.810   1.356   0.088 -0.0332  0.5357 -0.8729
 5290TIP3   OH237428   0.783   2.112   1.243 -0.4042 -0.0000 -0.3034
 5290TIP3    H137429   0.696   2.149   1.259 -0.7196 -1.8626  2.4956
 5290TIP3    H237430   0.767   2.031   1.195 -0.3537 -1.1396  1.5640
 5291TIP3   OH237431   5.033   0.866   0.722  0.0397  0.0879  0.0667
 5291TIP3    H137432   5.067   0.778   0.710 -0.7298 -0.5357  2.1946
 5291TIP3    H237433   4.939   0.858   0.706  0.2071  0.9013 -1.4424
 5292TIP3   OH237434   6.671   1.550   1.528  0.3626 -0.0888 -0.2622
 5292TIP3    H137435   6.654   1.644   1.529 -0.4227 -0.2231 -0.7478
 5292TIP3    H237436   6.719   1.534   1.610 -0.4369  0.5580  0.3457
 5293TIP3   OH237437   0.306   3.598   1.486 -0.1987  0.1130  0.0959
 5293TIP3    H137438   0.229   3.556   1.447 -0.7368  0.7351  0.4861
 5293TIP3    H237439   0.374   3.531   1.481 -1.2565 -1.0869  1.3954
 5294TIP3   OH237440   5.301   1.827   1.959  0.0381  0.2759  0.3504
 5294TIP3    H137441   5.263   1.804   1.874  1.3092  0.6611 -0.3335
 5294TIP3    H237442   5.287   1.922   1.966  0.8656  0.4212  0.0907
 5295TIP3   OH237443   6.733   4.662   2.131  0.0966 -0.3429  0.1171
 5295TIP3    H137444   6.701   4.713   2.206 -1.5009 -1.0666 -0.0463
 5295TIP3    H237445   6.657   4.655   2.073  1.4551  0.6638 -1.8566
 5296TIP3   OH237446   6.118   4.761   1.582  0.0255 -0.0406 -0.3188
 5296TIP3    H137447   6.143   4.669   1.572  0.4638 -0.0002  0.3916
 5296TIP3    H237448   6.024   4.758   1.600  0.2438 -0.4146  0.7907
 5297TIP3   OH237449   0.958   6.047   0.632 -0.1294  0.0004  0.2252
 5297TIP3    H137450   0.952   6.025   0.539 -1.5367 -3.0658  0.9434
 5297TIP3    H237451   0.877   6.094   0.651  0.3148  0.9255 -0.1612
 5298TIP3   OH237452   2.483   4.717   0.889  0.1608 -0.1206  0.3863
 5298TIP3    H137453   2.505   4.649   0.952  0.5989 -1.8696 -1.5960
 5298TIP3    H237454   2.564   4.766   0.877  0.0063  0.3849  1.3598
 5299TIP3   OH237455   6.914   3.837   1.427 -0.2659  0.0271  0.1903
 5299TIP3    H137456   6.915   3.744   1.407  0.3183  0.2609 -0.9094
 5299TIP3    H237457   6.826   3.866   1.402 -0.7742 -0.4028  1.4238
 5300TIP3   OH237458   5.803   3.910   2.187 -0.0975 -0.5633  0.1514
 5300TIP3    H137459   5.788   3.900   2.281 -0.6444 -0.2265  0.1018
 5300TIP3    H237460   5.739   3.852   2.146  0.0117 -0.5662 -0.0160
 5301TIP3   OH237461   6.731   5.568   1.587  0.4355  0.0678  0.0426
 5301TIP3    H137462   6.773   5.644   1.626 -0.1652 -0.3417  1.5138
 5301TIP3    H237463   6.799   5.501   1.584  0.5385  0.1680  0.1892
 5302TIP3   OH237464   0.189   4.685   0.113 -0.0358  0.2562  1.0507
 5302TIP3    H137465   0.226   4.644   0.191  1.7992 -0.3938 -0.1170
 5302TIP3    H237466   0.217   4.629   0.041  1.2418  2.6971 -0.4217
 5303TIP3   OH237467   0.495   3.614   1.754 -0.2430 -0.2692 -0.0968
 5303TIP3    H137468   0.447   3.532   1.763 -1.2676  0.2145 -1.0279
 5303TIP3    H237469   0.559   3.597   1.685  1.6207 -1.2138  1.8048
 5304TIP3   OH237470   4.810   4.639   2.234  0.4861 -0.4872 -0.0703
 5304TIP3    H137471   4.715   4.631   2.220  0.2044  0.0229  1.4480
 5304TIP3    H237472   4.841   4.549   2.239  0.0834 -0.6596 -0.6373
 5305TIP3   OH237473   7.048   1.718   6.973 -0.2973 -0.2955  0.1534
 5305TIP3    H137474   7.131   1.720   7.022  0.3066  1.9711 -0.8741
 5305TIP3    H237475   7.000   1.794   7.005 -0.5095  0.3796 -1.7360
 5306TIP3   OH237476   6.659   3.673   1.283  0.0671 -0.4808  0.4973
 5306TIP3    H137477   6.642   3.767   1.289  0.0622 -0.2165 -2.9142
 5306TIP3    H237478   6.573   3.632   1.289 -0.1890 -0.1088 -0.6351
 5307TIP3   OH237479   1.213   1.383   8.447 -0.0268  0.0155  0.4906
 5307TIP3    H137480   1.208   1.478   8.457  0.6297  0.1279 -0.1802
 5307TIP3    H237481   1.130   1.359   8.405  0.6310  0.5467 -1.1363
 5308TIP3   OH237482   1.249   2.015   1.509  0.7029 -0.2398  0.4517
 5308TIP3    H137483   1.237   2.099   1.552  1.1728 -0.4349  0.9697
 5308TIP3    H237484   1.161   1.991   1.478  0.6066  0.5397  0.1003
 5309TIP3   OH237485   4.797   0.861   7.353  0.2746  0.0818  0.8376
 5309TIP3    H137486   4.776   0.775   7.389 -1.8552 -0.0482 -0.5719
 5309TIP3    H237487   4.864   0.843   7.287  2.5695  0.0401  3.1015
 5310TIP3   OH237488   6.179   6.916   0.780  0.0687  0.5366 -0.1971
 5310TIP3    H137489   6.165   6.930   0.686  1.5921 -1.1005 -0.7064
 5310TIP3    H237490   6.203   7.001   0.814 -4.5330  2.0865 -0.4679
 5311TIP3   OH237491   0.841   7.262   1.280 -0.0650 -0.1944 -0.5181
 5311TIP3    H137492   0.752   7.284   1.253 -0.6250 -1.3170  0.3747
 5311TIP3    H237493   0.872   7.341   1.324 -0.1591  0.6408 -1.8920
 5312TIP3   OH237494   6.937   1.151   7.932  0.4644  0.3416  0.2209
 5312TIP3    H137495   6.936   1.095   8.010 -2.1518  0.9726  0.7049
 5312TIP3    H237496   7.012   1.209   7.944 -0.1388  0.6881  2.4817
 5313TIP3   OH237497   7.076   1.357   1.735 -0.2443 -0.0174 -0.6813
 5313TIP3    H137498   7.169   1.335   1.750 -0.3871  0.1928  0.5191
 5313TIP3    H237499   7.030   1.276   1.755 -0.2155 -0.5455 -2.6443
 5314TIP3   OH237500   3.987   6.632   7.833 -0.0626 -0.1367  0.2220
 5314TIP3    H137501   3.921   6.699   7.850  0.0109 -0.3378  1.3355
 5314TIP3    H237502   3.987   6.622   7.738 -1.9548 -0.4536  0.2337
 5315TIP3   OH237503   7.245   0.623   6.729  0.5730  0.0921 -0.0275
 5315TIP3    H137504   7.193   0.696   6.695 -1.5731 -1.1029  0.6657
 5315TIP3    H237505   7.231   0.552   6.666  0.5289 -0.5670  0.7211
 5316TIP3   OH237506   4.953   2.161   1.713 -0.3416 -0.2656 -0.4856
 5316TIP3    H137507   4.950   2.249   1.751  0.3776 -0.8492  0.9593
 5316TIP3    H237508   5.039   2.127   1.739 -0.9043 -1.6510 -0.4356
 5317TIP3   OH237509   5.642   4.838   1.232  0.0693 -0.2801  0.2778
 5317TIP3    H137510   5.672   4.926   1.211 -1.9587  0.3546 -0.0430
 5317TIP3    H237511   5.564   4.851   1.286 -0.7869 -1.8569 -0.5275
 5318TIP3   OH237512   0.308   2.017   1.250  0.3372 -0.3569  0.2716
 5318TIP3    H137513   0.252   2.002   1.174  0.1205 -0.3020  0.4190
 5318TIP3    H237514   0.384   2.065   1.216  0.3404 -0.5168  0.0544
 5319TIP3   OH237515   6.584   1.559   1.248 -0.1076  0.4050 -0.1089
 5319TIP3    H137516   6.581   1.530   1.339 -0.1580 -0.6552 -0.4479
 5319TIP3    H237517   6.669   1.601   1.239 -0.1196  0.5538  0.4374
 5320TIP3   OH237518   0.394   5.987   8.269  0.1362  0.0680  0.2221
 5320TIP3    H137519   0.424   6.076   8.249 -1.9548  1.3744  2.6704
 5320TIP3    H237520   0.436   5.933   8.202  3.5887  2.5036  0.2605
 5321TIP3   OH237521   1.183   2.420   1.590  0.2623 -0.8484  0.5787
 5321TIP3    H137522   1.232   2.349   1.632 -0.2288 -1.2053  0.5502
 5321TIP3    H237523   1.249   2.473   1.547  0.9651  0.3830  3.0765
 5322TIP3   OH237524   1.211   4.369   1.592 -0.1914 -0.9791 -0.0255
 5322TIP3    H137525   1.201   4.323   1.509  0.9001  0.0018 -0.7095
 5322TIP3    H237526   1.121   4.381   1.624 -0.7785  0.6407 -2.1839
 5323TIP3   OH237527   1.081   2.690   8.472 -0.3368 -0.3139 -0.7029
 5323TIP3    H137528   1.134   2.638   8.411  0.2411 -1.1770  0.5032
 5323TIP3    H237529   1.057   2.768   8.423  1.8088 -0.0565 -1.3744
 5324TIP3   OH237530   1.878   5.201   2.100  0.0678 -0.2638  0.4073
 5324TIP3    H137531   1.835   5.272   2.148 -1.3347 -0.6151 -0.3048
 5324TIP3    H237532   1.933   5.157   2.165 -1.2900 -0.3273  1.5328
 5325TIP3   OH237533   2.388   4.882   0.505  0.0360 -0.0274  0.2452
 5325TIP3    H137534   2.433   4.806   0.543  0.8702  0.9381  1.2126
 5325TIP3    H237535   2.320   4.903   0.569 -1.1876 -0.8792 -0.7488
 5326TIP3   OH237536   2.823   4.252   0.146  0.0055  0.1771  0.5446
 5326TIP3    H137537   2.837   4.281   0.236 -0.8841  0.4990  0.5873
 5326TIP3    H237538   2.880   4.176   0.135 -0.7003 -0.5150  1.7170
 5327TIP3   OH237539   3.460   6.015   6.633  0.0228  0.3836  0.6816
 5327TIP3    H137540   3.456   5.919   6.632  0.9388  0.3428  0.2081
 5327TIP3    H237541   3.372   6.042   6.659 -0.2943 -0.5801  0.6555
 5328TIP3   OH237542   7.058   6.216   1.678 -0.0517  0.0212 -0.1206
 5328TIP3    H137543   7.044   6.183   1.767  0.7977 -0.2281 -0.0756
 5328TIP3    H237544   7.133   6.167   1.646 -0.0196  0.4959 -0.7814
 5329TIP3   OH237545   6.721   6.404   1.239  0.5823  0.0475  0.3100
 5329TIP3    H137546   6.692   6.495   1.249 -1.0846 -0.4608  0.2532
 5329TIP3    H237547   6.650   6.352   1.276  1.0550 -1.2739 -0.6178
 5330TIP3   OH237548   7.282   4.187   1.924  0.7336  0.0797  0.1111
 5330TIP3    H137549   7.259   4.238   2.002  2.0312  0.3012  0.3539
 5330TIP3    H237550   7.197   4.165   1.885  0.0324 -0.4548  1.8370
 5331TIP3   OH237551   0.638   3.324   0.955 -0.4360 -0.3126  0.5922
 5331TIP3    H137552   0.584   3.245   0.949 -1.1358  0.2226 -0.2875
 5331TIP3    H237553   0.726   3.291   0.970 -0.6795 -1.2769  0.0049
 5332TIP3   OH237554   1.909   6.299   0.177 -0.3162 -0.7114  0.3805
 5332TIP3    H137555   1.826   6.338   0.205 -0.5139 -0.6041 -0.3317
 5332TIP3    H237556   1.895   6.279   0.084  0.7081 -0.0433  0.0827
 5333TIP3   OH237557   1.965   6.286   1.576  0.0259 -0.2666 -0.2881
 5333TIP3    H137558   1.926   6.296   1.489  1.4166 -0.3515 -0.9470
 5333TIP3    H237559   1.956   6.193   1.597  1.4597 -0.6315 -1.2260
 5334TIP3   OH237560   1.734   4.202   0.997 -0.1494 -0.1014  0.3049
 5334TIP3    H137561   1.819   4.164   1.022  0.2297 -0.1546 -1.0431
 5334TIP3    H237562   1.688   4.131   0.953 -0.1056  0.5058 -0.7339
 5335TIP3   OH237563   1.729   2.400   8.189 -0.4652  0.0355  0.9952
 5335TIP3    H137564   1.761   2.310   8.194 -1.0626 -0.1387  1.7939
 5335TIP3    H237565   1.796   2.452   8.234  0.2746  0.0998 -0.1712
 5336TIP3   OH237566   0.558   2.333   7.344 -0.2724 -0.0958  0.0312
 5336TIP3    H137567   0.489   2.351   7.407  1.2552 -0.3696  1.8132
 5336TIP3    H237568   0.522   2.362   7.260 -1.9649  1.1699  1.1667
 5337TIP3   OH237569   6.906   5.057   0.675 -0.2672  0.5405  0.4512
 5337TIP3    H137570   6.954   5.071   0.594 -0.2406 -1.5930  0.0704
 5337TIP3    H237571   6.913   5.141   0.722  0.9568  1.3197 -1.0802
 5338TIP3   OH237572   0.039   6.187   1.500  0.3128 -0.1394  0.0066
 5338TIP3    H137573   0.064   6.162   1.411 -0.0659  0.0356 -0.1484
 5338TIP3    H237574   0.030   6.103   1.546  0.7092 -0.2208 -0.0645
 5339TIP3   OH237575   2.498   6.862   1.320 -0.1417 -0.9671  0.2410
 5339TIP3    H137576   2.575   6.834   1.271  0.5909  1.0004  0.2371
 5339TIP3    H237577   2.444   6.782   1.328  1.3126 -2.0727 -0.7884
 5340TIP3   OH237578   1.658   6.589   2.412  0.3621 -0.7375  0.3802
 5340TIP3    H137579   1.717   6.623   2.480  0.0475 -0.4074  0.4905
 5340TIP3    H237580   1.577   6.568   2.459  0.4299 -1.3013  0.2485
 5341TIP3   OH237581   1.991   2.863   1.399  0.0467 -0.3798 -0.0872
 5341TIP3    H137582   2.032   2.932   1.451  1.5123 -0.5352 -1.0088
 5341TIP3    H237583   1.986   2.788   1.458 -0.2674  0.0856  0.4868
 5342TIP3   OH237584   6.179   4.638   1.240 -0.4393  0.8359  0.6445
 5342TIP3    H137585   6.083   4.633   1.242 -0.4023 -1.1506 -0.9798
 5342TIP3    H237586   6.206   4.601   1.324 -1.0914  1.4451  1.1334
 5343TIP3   OH237587   7.212   5.147   1.978  0.0492 -0.0353 -0.1179
 5343TIP3    H137588   7.174   5.075   1.928  1.3945 -2.1004  1.8057
 5343TIP3    H237589   7.136   5.198   2.007 -0.9316 -1.0180 -0.9090
 5344TIP3   OH237590   6.988   4.285   1.743 -1.0187 -0.1689 -0.2176
 5344TIP3    H137591   6.934   4.217   1.701 -0.6830 -0.0804 -0.7936
 5344TIP3    H237592   6.932   4.320   1.812 -1.5851 -0.2994 -0.6051
 5345TIP3   OH237593   2.464   7.247   0.228  0.2293 -0.0648  0.6472
 5345TIP3    H137594   2.517   7.168   0.220  0.4327  0.2563 -1.3755
 5345TIP3    H237595   2.377   7.215   0.252  0.3990 -0.8763  0.1872
 5346TIP3   OH237596   0.255   4.190   1.913 -0.0911  0.8187  0.1447
 5346TIP3    H137597   0.272   4.096   1.904  1.8582  1.0213  1.4548
 5346TIP3    H237598   0.160   4.197   1.914 -0.2793 -0.9960 -1.4487
 5347TIP3   OH237599   1.082   2.150   1.172  0.1818  0.0374 -0.3619
 5347TIP3    H137600   1.007   2.135   1.229  0.1735 -0.7448 -0.5841
 5347TIP3    H237601   1.102   2.243   1.184 -2.2320  0.7982 -2.0489
 5348TIP3   OH237602   0.610   5.922   1.869  0.4108  0.1521  0.1066
 5348TIP3    H137603   0.617   5.978   1.947 -0.5820 -0.5584  0.7232
 5348TIP3    H237604   0.671   5.850   1.887 -1.4766 -1.1852  1.2605
 5349TIP3   OH237605   0.628   4.845   7.622  0.2682 -0.6215  0.3132
 5349TIP3    H137606   0.563   4.829   7.553  1.1940 -2.3935 -0.1793
 5349TIP3    H237607   0.615   4.937   7.645 -2.0337 -0.7783 -0.1681
 5350TIP3   OH237608   2.303   4.491   0.429 -0.0765 -1.1695  0.4376
 5350TIP3    H137609   2.273   4.502   0.519 -1.3990 -4.6019  0.4810
 5350TIP3    H237610   2.398   4.505   0.433 -0.4049  0.9992  1.8877
 5351TIP3   OH237611   1.761   6.127   2.065 -0.0629 -0.3073  0.5383
 5351TIP3    H137612   1.748   6.196   1.999  0.6136 -1.7652 -1.1490
 5351TIP3    H237613   1.851   6.098   2.052 -0.1585 -1.1003  1.6471
 5352TIP3   OH237614   0.724   4.875   1.800 -0.2448  0.6599 -0.0771
 5352TIP3    H137615   0.698   4.873   1.893 -1.3911 -1.0020 -0.4079
 5352TIP3    H237616   0.815   4.845   1.801 -0.6051 -0.4752  0.4283
 5353TIP3   OH237617   2.703   5.329   1.479 -0.1540  0.4705 -0.2346
 5353TIP3    H137618   2.749   5.299   1.558 -0.3053 -1.4808 -0.8499
 5353TIP3    H237619   2.769   5.378   1.430  0.8236 -0.8705 -0.3059
 5354TIP3   OH237620   2.098   5.494   0.195  0.0836  0.0004 -0.5139
 5354TIP3    H137621   2.128   5.437   0.124 -0.1393 -1.1102  0.2868
 5354TIP3    H237622   2.092   5.437   0.272 -4.2453  0.0763 -0.6420
 5355TIP3   OH237623   2.461   6.505   2.314 -0.2001  0.0153 -0.4197
 5355TIP3    H137624   2.485   6.588   2.356  0.6356  0.7631 -2.3236
 5355TIP3    H237625   2.478   6.520   2.221 -0.7505 -2.0586 -0.8640
 5356TIP3   OH237626   2.075   3.808   8.499  0.1662  0.7181 -0.1876
 5356TIP3    H137627   2.016   3.756   8.445  0.1512 -0.0114  0.5200
 5356TIP3    H237628   2.017   3.860   8.555  0.1544  2.4227 -1.7162
 5357TIP3   OH237629   0.915   4.802   8.252 -0.1028  0.3611  0.2154
 5357TIP3    H137630   0.894   4.709   8.241  0.5514  0.1236  0.9562
 5357TIP3    H237631   0.975   4.805   8.327 -0.6796  1.4554  0.6480
 5358TIP3   OH237632   1.236   5.988   1.879  0.4725  0.2118  0.6022
 5358TIP3    H137633   1.199   5.983   1.967  2.1766 -1.9396  1.2315
 5358TIP3    H237634   1.223   5.901   1.842 -0.6530  1.2267 -1.4858
 5359TIP3   OH237635   0.928   5.204   2.584  0.0774  0.1001 -0.0146
 5359TIP3    H137636   0.906   5.237   2.671  0.0405 -0.9002  0.3625
 5359TIP3    H237637   0.868   5.251   2.525 -1.6527 -1.0499  0.7677
 5360TIP3   OH237638   1.443   5.772   1.985  0.9644  0.6520  0.0587
 5360TIP3    H137639   1.397   5.711   2.042 -0.3480  1.1905 -0.3956
 5360TIP3    H237640   1.493   5.828   2.045 -0.4053  1.2137  0.7058
 5361TIP3   OH237641   1.916   5.818   8.444 -0.1809 -0.0535  0.2616
 5361TIP3    H137642   1.982   5.841   8.379  0.2984 -0.6724  0.5265
 5361TIP3    H237643   1.913   5.893   8.503 -0.9873  0.7302 -0.7709
 5362TIP3   OH237644   0.902   6.866   2.627 -0.3291  0.0619 -0.2813
 5362TIP3    H137645   0.902   6.861   2.722  0.1813  2.1229 -0.1430
 5362TIP3    H237646   0.960   6.795   2.599 -2.0107 -1.8158  0.8195
 5363TIP3   OH237647   7.189   4.159   1.051  0.3681  0.5503 -0.1238
 5363TIP3    H137648   7.281   4.166   1.029 -0.0558 -1.2344 -2.6891
 5363TIP3    H237649   7.185   4.090   1.117  0.9435  1.3019  0.7113
 5364TIP3   OH237650   0.139   6.367   0.856  0.1412  0.0401  0.2397
 5364TIP3    H137651   0.089   6.364   0.774  0.5920  0.4901 -0.0543
 5364TIP3    H237652   0.183   6.452   0.854  0.3052 -0.0272  0.8627
 5365TIP3   OH237653   2.519   2.041   0.632  0.1108  0.4061  0.0900
 5365TIP3    H137654   2.605   2.071   0.601  1.0183 -1.4555  0.7236
 5365TIP3    H237655   2.539   1.980   0.703 -1.7817  0.7390  0.9242
 5366TIP3   OH237656   2.325   4.547   0.705 -0.3069  0.0909  0.1053
 5366TIP3    H137657   2.277   4.519   0.783  0.3792 -0.6003  0.2996
 5366TIP3    H237658   2.412   4.569   0.738  0.8876 -2.9198 -0.8168
 5367TIP3   OH237659   3.316   4.907   6.965  0.3934 -0.3117  0.3328
 5367TIP3    H137660   3.255   4.841   6.997  2.0812 -1.9040  0.4013
 5367TIP3    H237661   3.325   4.889   6.871  0.8583 -0.1812  0.3495
 5368TIP3   OH237662   0.681   3.961   0.732 -0.0110  0.4224  0.0050
 5368TIP3    H137663   0.587   3.978   0.732  0.1492  1.3398 -0.2780
 5368TIP3    H237664   0.719   4.034   0.684  0.9358  0.5346  0.8956
 5369TIP3   OH237665   2.091   5.928   2.651 -1.2644  0.1520  0.0638
 5369TIP3    H137666   2.069   5.870   2.578 -1.2002  0.6185 -0.3262
 5369TIP3    H237667   2.075   5.875   2.729  3.4329 -2.1169 -0.3270
 5370TIP3   OH237668   1.365   6.502   1.195 -0.0799 -0.7623  0.2098
 5370TIP3    H137669   1.362   6.543   1.109  2.1388  0.8642  0.8518
 5370TIP3    H237670   1.434   6.549   1.242 -0.1485 -2.6659  2.3378
 5371TIP3   OH237671   2.117   4.755   1.587  0.2075 -0.1359  0.4425
 5371TIP3    H137672   2.198   4.777   1.541 -0.0612 -1.1115 -0.5056
 5371TIP3    H237673   2.071   4.838   1.596  0.8085  0.2468  0.0071
 5372TIP3   OH237674   0.571   6.282   0.868 -0.0892  0.3828  0.1954
 5372TIP3    H137675   0.547   6.249   0.955  1.9555 -0.3306  0.5111
 5372TIP3    H237676   0.576   6.377   0.880 -3.7754  0.6855 -0.1669
 5373TIP3   OH237677   1.119   5.329   2.274 -0.1660 -0.7551 -0.0413
 5373TIP3    H137678   1.206   5.299   2.250 -0.0964 -1.2923  0.8481
 5373TIP3    H237679   1.084   5.259   2.330 -0.7222 -0.0345  0.5236
 5374TIP3   OH237680   1.953   4.091   1.369  0.0687 -0.2368 -0.1734
 5374TIP3    H137681   1.996   4.059   1.449 -2.6879  1.3522  2.0377
 5374TIP3    H237682   2.020   4.083   1.301  2.3763 -2.0007  2.1973
 5375TIP3   OH237683   1.151   6.273   0.702  0.0704  0.2313 -0.1582
 5375TIP3    H137684   1.213   6.208   0.736  1.5659  1.5244 -0.3902
 5375TIP3    H237685   1.084   6.220   0.659  1.6888 -1.1613 -1.0514
 5376TIP3   OH237686   1.569   3.224   1.203 -0.1744 -0.0261 -0.0469
 5376TIP3    H137687   1.652   3.235   1.249  0.4234  0.6563 -1.2375
 5376TIP3    H237688   1.503   3.259   1.263  0.4042 -0.5350  0.8919
 5377TIP3   OH237689   0.618   5.509   1.720 -0.5989 -0.2697 -0.0037
 5377TIP3    H137690   0.676   5.515   1.796 -0.0913 -1.4020 -0.2916
 5377TIP3    H237691   0.615   5.598   1.685  0.6782 -0.1248  0.2406
 5378TIP3   OH237692   1.510   2.974   0.740 -0.3535  0.0119 -0.4463
 5378TIP3    H137693   1.535   2.913   0.810  0.6102  2.2342  1.2087
 5378TIP3    H237694   1.580   3.039   0.738 -2.2069  2.0881 -0.9216
 5379TIP3   OH237695   2.351   3.050   0.158 -0.5559 -0.0811 -0.1961
 5379TIP3    H137696   2.382   3.064   0.248  1.5990  0.0641 -0.9271
 5379TIP3    H237697   2.335   2.956   0.152  0.0378 -0.2004  0.1063
 5380TIP3   OH237698   2.669   4.592   1.766 -0.0789  0.9607 -0.3893
 5380TIP3    H137699   2.735   4.524   1.753  0.1287  0.9502  0.6641
 5380TIP3    H237700   2.717   4.666   1.802 -0.8302  0.4428  1.8079
 5381TIP3   OH237701   2.836   5.034   7.065  0.2140  0.2886  0.0879
 5381TIP3    H137702   2.879   5.001   7.144 -3.1991 -1.3278  1.3627
 5381TIP3    H237703   2.864   4.974   6.996  0.7896 -0.1329  0.6818
 5382TIP3   OH237704   2.695   2.987   0.668 -0.2847 -0.1767 -0.2177
 5382TIP3    H137705   2.789   2.980   0.682 -0.2708  0.2980 -0.0424
 5382TIP3    H237706   2.684   2.986   0.573 -0.0263  0.6271 -0.2653
 5383TIP3   OH237707   1.703   2.659   7.342  0.1301 -0.7602 -0.5248
 5383TIP3    H137708   1.652   2.591   7.387  0.2562 -0.2058  0.4487
 5383TIP3    H237709   1.653   2.677   7.262 -1.9321  0.7390  1.0539
 5384TIP3   OH237710   7.005   5.273   2.208  0.8407  0.2295  0.6431
 5384TIP3    H137711   7.002   5.185   2.244 -0.3134  0.1213  0.2913
 5384TIP3    H237712   7.098   5.296   2.209  1.2002 -1.1574  0.3363
 5385TIP3   OH237713   2.135   4.321   8.477 -0.7623  0.0249 -0.3643
 5385TIP3    H137714   2.068   4.352   8.538  0.6319 -0.3069  1.3678
 5385TIP3    H237715   2.095   4.331   8.390 -4.2891 -3.1432  0.7726
 5386TIP3   OH237716   0.615   2.657   1.827  0.3290 -0.6063 -0.6175
 5386TIP3    H137717   0.594   2.572   1.864 -0.4260 -0.4021 -0.5618
 5386TIP3    H237718   0.652   2.707   1.900  0.9181 -0.9418 -0.6916
 5387TIP3   OH237719   1.209   6.663   8.222  0.0493 -0.0567 -0.2986
 5387TIP3    H137720   1.181   6.577   8.253  0.5607  0.0386  0.4615
 5387TIP3    H237721   1.245   6.647   8.135  1.3501 -0.8490  0.3576
 5388TIP3   OH237722   6.993   3.581   1.749 -0.3382  0.0807  0.3095
 5388TIP3    H137723   7.042   3.647   1.700 -0.9856  0.4551  0.1557
 5388TIP3    H237724   6.901   3.606   1.738 -0.8253 -2.5420 -2.2735
 5389TIP3   OH237725   3.386   4.708   0.295  0.8500  0.4154 -0.4645
 5389TIP3    H137726   3.456   4.660   0.339  1.5145 -0.0901 -2.0387
 5389TIP3    H237727   3.431   4.764   0.232 -0.1109  0.8209 -0.7977
 5390TIP3   OH237728   0.208   3.972   1.448  0.0254 -0.2946 -0.1795
 5390TIP3    H137729   0.201   4.066   1.463 -2.9308 -0.4586 -0.1986
 5390TIP3    H237730   0.210   3.934   1.535 -0.0245 -0.2648 -0.1652
 5391TIP3   OH237731   0.258   2.465   0.505  0.5313  0.2561 -0.4977
 5391TIP3    H137732   0.250   2.403   0.577 -0.4154  0.2901 -0.5649
 5391TIP3    H237733   0.241   2.413   0.426 -0.4879  0.6243 -0.5389
 5392TIP3   OH237734   2.614   3.939   0.370  0.0941 -0.1431  0.1057
 5392TIP3    H137735   2.686   3.993   0.402 -0.1248  0.6695 -0.7513
 5392TIP3    H237736   2.648   3.900   0.289 -0.2677 -0.1274 -0.0534
 5393TIP3   OH237737   0.522   6.536   0.955  0.3275  0.1835 -0.4479
 5393TIP3    H137738   0.479   6.605   0.904  0.0433 -0.3455 -0.9311
 5393TIP3    H237739   0.492   6.550   1.045 -0.7294 -0.0847 -0.7574
 5394TIP3   OH237740   0.579   1.967   0.062 -0.6392 -0.4569 -0.3773
 5394TIP3    H137741   0.510   2.021   0.023  0.5529  0.5335 -1.1438
 5394TIP3    H237742   0.536   1.883   0.081 -1.6830 -0.3845 -2.2781
 5395TIP3   OH237743   7.168   5.430   1.786  0.0311 -0.7038  0.0947
 5395TIP3    H137744   7.094   5.486   1.762  0.6318  0.4429  0.9339
 5395TIP3    H237745   7.166   5.427   1.881  0.0940 -2.0021  0.0614
 5396TIP3   OH237746   0.943   4.816   7.961 -0.3282 -0.6073 -0.1298
 5396TIP3    H137747   0.849   4.807   7.946 -0.3028 -1.9255  0.4717
 5396TIP3    H237748   0.978   4.847   7.877 -1.2170 -0.6609 -0.5173
 5397TIP3   OH237749   0.479   3.977   0.432  0.0696 -0.7214 -0.4363
 5397TIP3    H137750   0.505   3.952   0.343  0.3713  0.9915 -0.8610
 5397TIP3    H237751   0.495   4.072   0.435 -2.6719 -0.2444  0.4991
 5398TIP3   OH237752   0.814   5.472   2.303 -0.4289  0.0451 -0.5845
 5398TIP3    H137753   0.752   5.501   2.236 -0.2966 -1.1795 -1.2515
 5398TIP3    H237754   0.820   5.377   2.291  1.3168  0.0975 -0.3356
 5399TIP3   OH237755   5.643   2.607   1.836 -0.8874  0.5102 -0.2381
 5399TIP3    H137756   5.610   2.636   1.750  0.3000  1.9533 -0.2241
 5399TIP3    H237757   5.735   2.584   1.820 -0.9639 -0.2748  0.4293
 5400TIP3   OH237758   1.206   4.430   2.300  0.3392  0.6302 -0.0709
 5400TIP3    H137759   1.146   4.383   2.359  0.8992 -0.9403 -0.7173
 5400TIP3    H237760   1.291   4.424   2.343  0.5531  0.3863 -0.5198
 5401TIP3   OH237761   0.104   2.526   1.522 -0.2896 -0.3748  0.1839
 5401TIP3    H137762   0.042   2.585   1.564 -0.1228 -0.0521 -0.0199
 5401TIP3    H237763   0.128   2.463   1.590 -0.7533 -0.4300  0.2951
 5402TIP3   OH237764   1.512   5.006   1.570 -0.7749 -0.1063 -0.1261
 5402TIP3    H137765   1.580   5.049   1.517 -0.6812 -0.5996 -0.4093
 5402TIP3    H237766   1.542   4.916   1.580 -1.9786 -0.6734 -1.3168
 5403TIP3   OH237767   2.057   0.239   0.423 -0.1251 -0.1052 -0.2770
 5403TIP3    H137768   2.135   0.214   0.472 -0.3496 -0.3934 -0.0649
 5403TIP3    H237769   1.999   0.164   0.431  0.3765 -0.7018 -2.1166
 5404TIP3   OH237770   2.704   5.486   1.905  0.4040  0.1549 -0.0864
 5404TIP3    H137771   2.759   5.419   1.945  1.6048 -0.2949 -2.4302
 5404TIP3    H237772   2.759   5.565   1.905 -0.2799  0.6408  0.8447
 5405TIP3   OH237773   1.687   5.253   7.511  0.4849 -0.3057 -0.1805
 5405TIP3    H137774   1.744   5.330   7.512 -0.6747  0.5712  0.2056
 5405TIP3    H237775   1.747   5.179   7.503  1.6067  0.6509 -0.9213
 5406TIP3   OH237776   1.358   3.520   0.794  0.5436  0.0819 -0.4212
 5406TIP3    H137777   1.326   3.484   0.877  1.2511 -0.0401 -0.1963
 5406TIP3    H237778   1.306   3.598   0.780  1.0085  0.5810  0.5856
 5407TIP3   OH237779   1.699   1.662   2.413 -0.0227 -0.0516 -0.0906
 5407TIP3    H137780   1.760   1.712   2.468  0.0817  0.9352 -1.1007
 5407TIP3    H237781   1.622   1.650   2.468  1.5428 -2.4707  1.7072
 5408TIP3   OH237782   0.818   4.524   1.762 -0.1638 -0.1110 -0.1456
 5408TIP3    H137783   0.878   4.599   1.761 -2.0771  1.4513 -2.2867
 5408TIP3    H237784   0.838   4.475   1.682 -2.1669  0.8197 -1.2610
 5409TIP3   OH237785   2.537   3.282   0.222 -0.7119 -0.1082  0.2273
 5409TIP3    H137786   2.512   3.223   0.294 -2.0791  2.0812  1.5878
 5409TIP3    H237787   2.601   3.342   0.261  1.0811 -0.9764 -1.2928
 5410TIP3   OH237788   6.066   5.310   2.006 -0.1135  0.9492 -0.6965
 5410TIP3    H137789   5.992   5.288   2.061  1.7465 -0.3902  1.3372
 5410TIP3    H237790   6.122   5.365   2.061  1.4421  0.1692 -1.4684
 5411TIP3   OH237791   0.826   4.224   2.024  0.4133  0.1637 -0.4183
 5411TIP3    H137792   0.764   4.186   1.962  1.3119 -1.3895 -0.3812
 5411TIP3    H237793   0.773   4.282   2.078 -1.2382 -1.9520  0.3039
 5412TIP3   OH237794   0.275   4.870   1.117 -0.0046 -0.5012 -0.0660
 5412TIP3    H137795   0.359   4.838   1.084 -0.1924 -0.3896 -0.6542
 5412TIP3    H237796   0.229   4.901   1.039 -0.4187 -0.1633  0.3133
 5413TIP3   OH237797   3.310   5.881   1.453 -0.4415 -0.0537  0.1667
 5413TIP3    H137798   3.313   5.870   1.548 -0.2070 -1.0237  0.0570
 5413TIP3    H237799   3.382   5.826   1.421 -0.1242  0.7608 -0.5241
 5414TIP3   OH237800   2.603   7.132   2.146  0.0935  0.5678 -0.0159
 5414TIP3    H137801   2.623   7.219   2.180  1.1998 -0.3801  1.8567
 5414TIP3    H237802   2.553   7.089   2.216  0.3101 -0.5896 -0.5538
 5415TIP3   OH237803   1.471   5.238   8.078 -0.2280  0.9916 -0.2180
 5415TIP3    H137804   1.560   5.221   8.048 -0.9564 -1.8900 -0.8426
 5415TIP3    H237805   1.414   5.193   8.016 -1.9953  0.1612  1.9012
 5416TIP3   OH237806   1.663   6.168   0.768  0.1918 -0.1981  0.3019
 5416TIP3    H137807   1.630   6.205   0.850 -0.7790  0.0248 -0.1836
 5416TIP3    H237808   1.739   6.223   0.746  1.5134 -1.3132  1.9205
 5417TIP3   OH237809   1.341   5.235   2.006  0.3154 -0.3336  0.3993
 5417TIP3    H137810   1.383   5.225   2.091  0.3667  2.5230  0.7603
 5417TIP3    H237811   1.285   5.157   1.998  1.3875 -1.3571  2.3798
 5418TIP3   OH237812   6.282   6.166   0.471  0.0706  0.4453 -0.2050
 5418TIP3    H137813   6.199   6.164   0.424  0.7482  0.3229 -1.4140
 5418TIP3    H237814   6.261   6.130   0.557 -1.1261  0.4001 -0.5005
 5419TIP3   OH237815   0.843   6.802   1.508 -0.2612  0.5573  0.0454
 5419TIP3    H137816   0.844   6.853   1.427 -0.5905 -0.2304 -0.4569
 5419TIP3    H237817   0.932   6.770   1.519  0.3286  2.5169  1.1821
 5420TIP3   OH237818   3.228   5.024   0.457  0.0834 -0.2684  0.3945
 5420TIP3    H137819   3.251   5.112   0.489  1.5920  0.0401 -1.4566
 5420TIP3    H237820   3.296   4.967   0.491  0.6366 -0.2532 -0.6737
 5421TIP3   OH237821   0.209   1.108   8.422 -0.8340 -0.4204  0.3235
 5421TIP3    H137822   0.287   1.057   8.443 -0.2248  0.4273  0.1406
 5421TIP3    H237823   0.173   1.132   8.507  0.2579  0.9258  0.4182
 5422TIP3   OH237824   0.661   5.384   8.040 -0.1456  0.5172 -0.7205
 5422TIP3    H137825   0.598   5.451   8.067 -0.9914 -0.5134 -0.1030
 5422TIP3    H237826   0.646   5.374   7.946 -1.1356  0.0567 -0.5241
 5423TIP3   OH237827   1.079   1.043   1.032  0.2087 -0.0143 -0.3089
 5423TIP3    H137828   1.053   1.085   1.114 -0.1194  0.2548 -0.5457
 5423TIP3    H237829   0.998   1.040   0.980  0.5178  0.2682 -0.8174
 5424TIP3   OH237830   1.697   5.416   2.400  0.0042 -0.4299 -0.1743
 5424TIP3    H137831   1.700   5.334   2.448 -0.5112 -0.0102  0.5885
 5424TIP3    H237832   1.785   5.451   2.406  0.2584 -0.9954 -0.6186
 5425TIP3   OH237833   1.014   5.064   0.968  0.1297  0.8164 -0.3432
 5425TIP3    H137834   1.011   4.970   0.986 -1.4144  0.3595 -2.7402
 5425TIP3    H237835   1.100   5.078   0.930  0.5534  0.4823  0.4612
 5426TIP3   OH237836   1.047   5.029   1.254 -0.0850 -0.1936 -0.4880
 5426TIP3    H137837   0.987   5.061   1.322 -0.2135  2.1451 -1.6738
 5426TIP3    H237838   1.034   5.089   1.180  4.0539  0.6414 -0.6179
 5427TIP3   OH237839   2.516   4.085   0.735  0.2563 -0.5146 -0.2522
 5427TIP3    H137840   2.481   3.996   0.730  0.1405 -0.3676 -2.3274
 5427TIP3    H237841   2.450   4.140   0.693  0.6642  0.4616  0.3566
 5428TIP3   OH237842   0.328   5.292   0.567  0.4570 -0.1932  0.2096
 5428TIP3    H137843   0.343   5.277   0.473 -1.0424 -1.7552  0.1922
 5428TIP3    H237844   0.397   5.242   0.610  0.2520 -0.6885 -0.0346
 5429TIP3   OH237845   0.539   4.787   1.037 -0.4087 -0.2092 -0.1321
 5429TIP3    H137846   0.566   4.719   0.975  0.2153  0.5279 -0.6875
 5429TIP3    H237847   0.566   4.754   1.122 -0.6786 -0.9406 -0.3289
 5430TIP3   OH237848   5.875   5.467   0.938  0.4960  0.3178 -0.4679
 5430TIP3    H137849   5.826   5.529   0.883  1.5416  0.0578 -1.7297
 5430TIP3    H237850   5.963   5.506   0.944  0.4707  0.1954  0.8039
 5431TIP3   OH237851   1.321   2.358   1.975  0.0898  0.1239 -0.0921
 5431TIP3    H137852   1.397   2.314   1.938 -0.7429 -1.2522 -0.1926
 5431TIP3    H237853   1.358   2.429   2.028  1.4197 -0.2521 -0.4990
 5432TIP3   OH237854   1.220   4.832   0.748 -1.1191  0.5700  0.3890
 5432TIP3    H137855   1.272   4.790   0.679 -2.2470  0.6579 -0.5258
 5432TIP3    H237856   1.234   4.777   0.826  0.1474  0.4617  0.0866
 5433TIP3   OH237857   1.284   5.898   7.743 -0.2495  0.6713  0.8722
 5433TIP3    H137858   1.198   5.904   7.784  0.5479  0.4517  2.5915
 5433TIP3    H237859   1.339   5.959   7.792  0.6551  0.5890 -0.0232
 5434TIP3   OH237860   0.506   5.058   0.544  0.4501 -0.0067 -0.0165
 5434TIP3    H137861   0.480   5.084   0.456  0.4916  1.1854  0.3236
 5434TIP3    H237862   0.473   4.968   0.553 -1.4695  0.6395 -0.4451
 5435TIP3   OH237863   3.009   6.144   7.063  0.4221  0.2692  0.4294
 5435TIP3    H137864   3.003   6.054   7.031 -0.9183  1.1029 -1.8704
 5435TIP3    H237865   2.933   6.154   7.120  0.8943 -0.2113  1.1532
 5436TIP3   OH237866   0.682   4.197   1.474 -0.3776 -0.3049  0.0718
 5436TIP3    H137867   0.731   4.252   1.536 -2.7079  0.8381  0.9652
 5436TIP3    H237868   0.601   4.246   1.458 -0.6530 -1.5100 -2.4192
 5437TIP3   OH237869   1.103   6.759   7.929  0.2018 -0.2382 -0.0666
 5437TIP3    H137870   1.172   6.795   7.874  0.0444 -0.2030 -0.2407
 5437TIP3    H237871   1.051   6.836   7.955 -0.5702 -0.4293 -1.0387
 5438TIP3   OH237872   6.506   5.543   1.188  0.4468 -0.1633  0.1139
 5438TIP3    H137873   6.435   5.492   1.149  1.2642 -0.5664 -0.8538
 5438TIP3    H237874   6.467   5.580   1.268 -0.6691 -0.8659 -0.0889
 5439TIP3   OH237875   2.410   4.440   2.257 -0.0598 -0.3854 -0.2552
 5439TIP3    H137876   2.467   4.497   2.205 -0.2545  0.2446  0.2126
 5439TIP3    H237877   2.439   4.351   2.236  1.0860 -0.0719 -0.0334
 5440TIP3   OH237878   1.410   6.436   7.079 -0.0742  0.3142  0.7639
 5440TIP3    H137879   1.500   6.410   7.099  0.8744  0.9164 -2.4422
 5440TIP3    H237880   1.390   6.393   6.997 -1.2570  3.3176 -0.6160
 5441TIP3   OH237881   0.532   0.538   0.452 -0.4928 -0.7670 -0.3272
 5441TIP3    H137882   0.625   0.544   0.433 -0.5968 -0.3738 -0.7235
 5441TIP3    H237883   0.523   0.461   0.509  0.1592 -0.3923  0.2876
 5442TIP3   OH237884   1.287   5.180   1.320  0.0950 -0.2078  0.2989
 5442TIP3    H137885   1.356   5.115   1.324  0.5481  0.2742  0.3769
 5442TIP3    H237886   1.217   5.138   1.270  1.0011 -0.1688 -1.0286
 5443TIP3   OH237887   1.793   4.619   0.122 -0.6771  0.0313 -0.3981
 5443TIP3    H137888   1.830   4.551   0.178 -1.9376 -0.9005 -0.6589
 5443TIP3    H237889   1.773   4.573   0.040 -0.5711  0.9595 -0.9497
 5444TIP3   OH237890   6.187   3.930   1.214  0.7863 -0.0346  0.0930
 5444TIP3    H137891   6.176   4.011   1.264  0.3241  0.0701 -0.1774
 5444TIP3    H237892   6.098   3.906   1.189  1.0921  0.3027 -1.3198
 5445TIP3   OH237893   0.593   6.570   7.821  0.1392  0.1428  0.3805
 5445TIP3    H137894   0.588   6.536   7.732 -2.2998  0.2681  0.4209
 5445TIP3    H237895   0.616   6.662   7.811  2.0257 -0.3515  0.0201
 5446TIP3   OH237896   0.387   4.789   0.563 -0.1746 -0.2057  0.0358
 5446TIP3    H137897   0.456   4.773   0.627  0.5365  2.3579  0.0009
 5446TIP3    H237898   0.423   4.758   0.480  0.5131  0.1470  0.2016
 5447TIP3   OH237899   0.032   5.616   2.475 -0.8290 -0.4517 -0.1731
 5447TIP3    H137900   0.094   5.652   2.538 -0.3692  0.3007 -1.0506
 5447TIP3    H237901   0.083   5.551   2.426 -0.8850 -0.2159 -0.5401
 5448TIP3   OH237902   0.866   6.361   7.717 -0.5484  0.4516  0.7570
 5448TIP3    H137903   0.902   6.274   7.699 -0.0423  1.0760 -1.3890
 5448TIP3    H237904   0.934   6.407   7.765 -0.2809  0.1182  0.6925
 5449TIP3   OH237905   2.013   4.560   2.208 -0.0606 -0.0445 -0.1365
 5449TIP3    H137906   1.980   4.649   2.219 -0.1712 -0.4384  2.9458
 5449TIP3    H237907   1.938   4.504   2.227  0.2529 -0.8241 -1.1665
 5450TIP3   OH237908   2.012   6.905   7.518  0.5657 -0.4963 -0.4050
 5450TIP3    H137909   1.959   6.827   7.529 -0.9200  0.3832 -1.1547
 5450TIP3    H237910   2.008   6.924   7.424  0.8379  0.5197 -0.2219
 5451TIP3   OH237911   0.019   3.794   1.346  0.3061  0.4147  0.0932
 5451TIP3    H137912   0.093   3.808   1.405 -1.0599  0.5519  1.8196
 5451TIP3    H237913   0.051   3.730   1.282  2.3967  1.6306 -0.1127
 5452TIP3   OH237914   1.566   0.052   8.242 -0.7405  0.2541 -0.5770
 5452TIP3    H137915   1.633   0.113   8.211 -0.5749  0.0593 -0.6041
 5452TIP3    H237916   1.490   0.107   8.258 -0.7489  0.3988 -1.0886
 5453TIP3   OH237917   1.399   5.481   2.355  0.2140  0.2040  0.1488
 5453TIP3    H137918   1.393   5.386   2.361 -1.9708  0.3407  0.6690
 5453TIP3    H237919   1.491   5.501   2.372  0.2820 -1.6625  2.2135
 5454TIP3   OH237920   2.927   3.401   1.457 -0.1632 -0.0910  0.0986
 5454TIP3    H137921   2.908   3.472   1.395 -3.4346 -1.4789 -0.5897
 5454TIP3    H237922   2.979   3.338   1.405  2.0100  1.3206  0.4719
 5455TIP3   OH237923   0.081   6.874   0.815 -0.7968  0.1617 -0.5544
 5455TIP3    H137924   0.099   6.851   0.724  0.3622  2.1052 -0.8553
 5455TIP3    H237925  -0.007   6.912   0.813 -1.2748 -0.9323 -0.6394
 5456TIP3   OH237926   7.136   3.510   0.792 -0.8354 -0.2286 -0.3995
 5456TIP3    H137927   7.071   3.450   0.829 -0.1278 -0.5292  0.3803
 5456TIP3    H237928   7.205   3.513   0.857 -0.6419  1.0783 -0.6543
 5457TIP3   OH237929   0.641   4.577   2.002 -0.1158  0.0328  0.6614
 5457TIP3    H137930   0.666   4.539   1.918 -0.2702 -1.0462  1.0929
 5457TIP3    H237931   0.637   4.502   2.062 -0.8463  0.6701  1.4261
 5458TIP3   OH237932   1.583   3.963   0.916  0.4403 -0.3690 -0.0866
 5458TIP3    H137933   1.550   3.926   0.834  0.0605 -1.5395  0.5776
 5458TIP3    H237934   1.539   3.912   0.985  2.8875 -1.3454  0.8264
 5459TIP3   OH237935   0.608   5.649   1.289  0.6138  0.0807  0.3218
 5459TIP3    H137936   0.579   5.704   1.217  0.4482  1.4601  1.4329
 5459TIP3    H237937   0.622   5.563   1.249 -0.2462  0.6261 -1.1867
 5460TIP3   OH237938   1.670   3.703   7.986 -0.1905  0.3448 -0.1570
 5460TIP3    H137939   1.576   3.716   7.996 -0.1224  1.2548 -0.6566
 5460TIP3    H237940   1.709   3.742   8.064 -0.2966 -1.1592  0.6776
 5461TIP3   OH237941   0.881   5.448   0.055  0.2220  0.3617  0.5375
 5461TIP3    H137942   0.931   5.468  -0.024 -0.5744 -0.1065 -0.0967
 5461TIP3    H237943   0.812   5.389   0.025  1.0201 -1.2882  1.9342
 5462TIP3   OH237944   0.974   2.766   1.893  0.3165 -0.1536 -0.5390
 5462TIP3    H137945   0.930   2.839   1.848  0.8370  1.3729  1.3567
 5462TIP3    H237946   0.913   2.740   1.962  0.9554 -0.2365  0.0003
 5463TIP3   OH237947   0.662   3.369   2.113  0.1072 -0.5204 -0.0463
 5463TIP3    H137948   0.700   3.281   2.121  0.5227 -0.3366  0.0177
 5463TIP3    H237949   0.693   3.401   2.029  1.7925  0.4345  0.9169
 5464TIP3   OH237950   5.922   4.190   1.385 -0.4082  0.4630  0.1469
 5464TIP3    H137951   5.981   4.174   1.458  1.2462  0.8353 -1.0765
 5464TIP3    H237952   5.974   4.170   1.307 -1.7299  1.2798 -0.9795
 5465TIP3   OH237953   0.695   4.958   2.047  0.3104 -0.2215 -0.3032
 5465TIP3    H137954   0.789   4.959   2.063  0.3674  0.3390 -0.6725
 5465TIP3    H237955   0.656   4.970   2.133  0.6207  2.7764 -0.5478
 5466TIP3   OH237956   1.408   3.258   1.839 -0.0521 -0.2893  0.0020
 5466TIP3    H137957   1.332   3.285   1.788 -0.0491 -1.0109 -0.3974
 5466TIP3    H237958   1.460   3.205   1.778  0.0941 -0.9201  0.6645
 5467TIP3   OH237959   0.440   5.127   1.480  0.4512  0.1628  0.1464
 5467TIP3    H137960   0.453   5.063   1.549 -2.0923 -0.6636 -0.0745
 5467TIP3    H237961   0.414   5.207   1.525  0.0054 -0.0244  0.2236
 5468TIP3   OH237962   0.480   4.830   8.473 -0.4415 -0.5914  0.2046
 5468TIP3    H137963   0.425   4.753   8.481 -1.6843  0.4603  1.9410
 5468TIP3    H237964   0.564   4.804   8.511 -0.7732 -1.1439  0.5561
 5469TIP3   OH237965   1.232   3.844   2.509 -0.1124  0.0381 -0.0717
 5469TIP3    H137966   1.295   3.784   2.549  0.2265  0.3708 -0.1040
 5469TIP3    H237967   1.194   3.794   2.437 -0.9995 -0.6963  0.8887
 5470TIP3   OH237968   0.164   4.217   1.616  0.0914  0.2052  0.2313
 5470TIP3    H137969   0.125   4.172   1.691  0.7724  0.0795  0.5159
 5470TIP3    H237970   0.108   4.293   1.601 -1.2154 -0.8701 -0.4183
 5471TIP3   OH237971   0.365   3.226   1.159  0.1025 -0.0586 -0.0470
 5471TIP3    H137972   0.360   3.291   1.089 -0.4546  1.4585  1.3570
 5471TIP3    H237973   0.275   3.221   1.193  0.7143  0.5120  1.6927
 5472TIP3   OH237974   1.913   3.064   2.012  0.0422  0.3000 -0.4719
 5472TIP3    H137975   1.836   3.061   1.955  0.6332  1.4864 -1.3625
 5472TIP3    H237976   1.887   3.120   2.085  0.4570  1.7256 -1.4023
 5473TIP3   OH237977   2.843   1.024   1.548 -0.2707  0.1742 -0.6335
 5473TIP3    H137978   2.768   1.076   1.519 -1.2406  0.5094  2.3366
 5473TIP3    H237979   2.918   1.081   1.534 -0.5023 -0.2064 -3.7365
 5474TIP3   OH237980   1.070   6.099   1.435  0.3019  0.1174 -0.1252
 5474TIP3    H137981   1.143   6.076   1.492 -0.1118  0.1199  0.4119
 5474TIP3    H237982   1.058   6.193   1.447 -0.3539 -0.0421  0.4512
 5475TIP3   OH237983   7.275   0.708   0.396 -0.4931  0.7607  0.0352
 5475TIP3    H137984   7.263   0.789   0.446  0.6398  1.3960 -0.6973
 5475TIP3    H237985   7.321   0.649   0.457 -2.0907  0.3469  0.8665
 5476TIP3   OH237986   0.663   4.125   1.841 -0.3137  0.0917  0.0792
 5476TIP3    H137987   0.676   4.057   1.775 -0.2321 -1.1994  1.4099
 5476TIP3    H237988   0.614   4.193   1.796  0.6642 -0.2996 -1.6174
 5477TIP3   OH237989   1.796   4.000   1.681  0.1001 -0.6956  0.1839
 5477TIP3    H137990   1.883   3.979   1.647  0.3353  0.4982  0.0183
 5477TIP3    H237991   1.802   3.984   1.775  1.4850  2.4065  0.6863
 5478TIP3   OH237992   2.650   5.829   1.955  0.6361  0.1568  0.2366
 5478TIP3    H137993   2.700   5.762   2.002 -0.2307 -0.7758 -0.1496
 5478TIP3    H237994   2.565   5.831   1.999 -0.6698 -1.6830 -2.0473
 5479TIP3   OH237995   0.473   2.565   1.541 -0.3404 -0.1925 -0.5623
 5479TIP3    H137996   0.425   2.647   1.532 -1.2845 -0.7634 -0.9477
 5479TIP3    H237997   0.406   2.501   1.564  0.4257 -0.8043 -0.0075
 5480TIP3   OH237998   7.178   5.599   8.051 -0.7059 -0.3044  0.3485
 5480TIP3    H137999   7.251   5.558   8.097 -1.6133 -1.8328  0.4431
 5480TIP3    H238000   7.167   5.683   8.096  1.5396  0.3270 -0.2341
 5481TIP3   OH238001   1.535   6.704   0.096  0.0976  0.4654  0.3467
 5481TIP3    H138002   1.533   6.799   0.087 -1.6211  0.4967  0.8259
 5481TIP3    H238003   1.445   6.680   0.119  0.6603 -1.2114  0.9064
 5482TIP3   OH238004   1.133   5.874   2.407 -0.0973  0.0580 -0.0060
 5482TIP3    H138005   1.077   5.796   2.405 -0.2284  0.1212  0.8603
 5482TIP3    H238006   1.204   5.850   2.467  0.0803  0.4563 -0.0586
 5483TIP3   OH238007   2.056   3.169   2.538  0.1279 -0.3583  0.0923
 5483TIP3    H138008   1.968   3.194   2.508 -0.2230 -1.4777  0.1715
 5483TIP3    H238009   2.078   3.093   2.485  0.4951 -0.8946  1.0150
 5484TIP3   OH238010   1.339   4.045   6.296  0.7224  0.3111 -0.3866
 5484TIP3    H138011   1.417   4.014   6.250  0.4783 -2.1030  0.7608
 5484TIP3    H238012   1.300   3.966   6.334  0.2916  2.0328  2.9901
 5485TIP3   OH238013   2.335   3.549   1.096  0.0397 -0.1276  0.2843
 5485TIP3    H138014   2.426   3.521   1.090  0.6306  1.7623 -0.1518
 5485TIP3    H238015   2.284   3.470   1.079  1.6007 -1.0931 -0.0189
 5486TIP3   OH238016   1.022   4.420   0.934 -1.1503  0.6795  0.1860
 5486TIP3    H138017   1.073   4.364   0.876 -1.1486  1.4941 -0.6004
 5486TIP3    H238018   0.941   4.371   0.949 -1.4907  0.8120 -1.1423
 5487TIP3   OH238019   0.541   4.532   1.300  0.4909 -0.2748  0.1285
 5487TIP3    H138020   0.447   4.521   1.312  0.3669  0.0190 -0.5285
 5487TIP3    H238021   0.579   4.510   1.385 -0.1767 -0.3141  0.4219
 5488TIP3   OH238022   1.820   3.962   1.955 -0.2823 -0.1589  0.2888
 5488TIP3    H138023   1.881   4.012   2.008  2.7988 -1.9119 -1.4519
 5488TIP3    H238024   1.811   3.878   2.001 -1.5351  0.1405  0.6136
 5489TIP3   OH238025   1.222   4.088   7.358  0.4180 -0.3712  0.2753
 5489TIP3    H138026   1.255   4.035   7.285 -0.7346  1.5327 -1.6879
 5489TIP3    H238027   1.159   4.031   7.402  2.0526 -1.9881  0.5810
 5490TIP3   OH238028   0.289   1.460   1.654 -0.4345  0.0013  0.0225
 5490TIP3    H138029   0.325   1.448   1.742  0.2886  2.5948  0.1193
 5490TIP3    H238030   0.359   1.431   1.595  0.0946  0.7659  0.2726
 5491TIP3   OH238031   0.402   4.708   2.072  0.3764 -0.2505  0.4703
 5491TIP3    H138032   0.489   4.685   2.040  1.2860  1.4659  1.6385
 5491TIP3    H238033   0.373   4.778   2.013 -1.1104 -2.1763 -1.1881
 5492TIP3   OH238034   1.790   4.410   2.175  0.1497 -0.3057  0.2218
 5492TIP3    H138035   1.698   4.434   2.188  0.2766  0.7338 -0.6985
 5492TIP3    H238036   1.786   4.322   2.137 -0.3680 -1.2836  2.4575
 5493TIP3   OH238037   7.038   4.929   1.910 -0.2432  0.0439 -0.2537
 5493TIP3    H138038   6.957   4.977   1.892 -1.5107 -0.6227  3.1539
 5493TIP3    H238039   7.008   4.846   1.949  1.9972 -1.9128 -2.5601
 5494TIP3   OH238040   1.889   2.511   1.378  0.2046 -0.0869  0.0885
 5494TIP3    H138041   1.930   2.482   1.460  2.2493  0.1462 -0.8453
 5494TIP3    H238042   1.962   2.532   1.320 -1.2166  3.0394 -0.6663
 5495TIP3   OH238043   2.347   4.499   8.499  0.3292  0.6021  0.6337
 5495TIP3    H138044   2.398   4.453   8.566 -1.1506 -1.9706  0.0354
 5495TIP3    H238045   2.291   4.432   8.461 -2.3020  3.0081  0.1034
 5496TIP3   OH238046   1.593   5.897   1.118 -0.4077 -0.3516  0.1072
 5496TIP3    H138047   1.517   5.949   1.143 -0.2443 -0.9260  1.8213
 5496TIP3    H238048   1.631   5.868   1.201  2.4940  1.0917 -0.6589
 5497TIP3   OH238049   4.511   5.018   7.725 -0.5445 -0.4764  0.6611
 5497TIP3    H138050   4.567   5.056   7.792 -0.8020 -0.6386  0.9734
 5497TIP3    H238051   4.433   5.074   7.725  0.2008  0.5695 -0.7376
 5498TIP3   OH238052   4.188   3.234   0.451  0.2758 -0.5892  0.3633
 5498TIP3    H138053   4.137   3.313   0.468 -0.0195 -0.3366 -1.6003
 5498TIP3    H238054   4.207   3.198   0.538 -2.5412 -0.2568  1.1448
 5499TIP3   OH238055   0.124   2.857   1.642 -0.1414  0.6981  0.1132
 5499TIP3    H138056   0.204   2.858   1.589  1.7075 -1.3311  2.6810
 5499TIP3    H238057   0.154   2.876   1.731 -2.2919 -1.4033  1.3621
 5500TIP3   OH238058   1.600   4.597   1.458 -0.1038 -0.1390 -0.3047
 5500TIP3    H138059   1.509   4.607   1.488  0.1332  0.4471  0.2304
 5500TIP3    H238060   1.637   4.530   1.516 -0.2850 -0.6207 -0.7382
 5501TIP3   OH238061   0.894   4.358   1.570  0.0102  0.0251  0.1102
 5501TIP3    H138062   0.910   4.358   1.475  0.6314  0.3505  0.2153
 5501TIP3    H238063   0.946   4.286   1.603  2.3090  1.8629  0.6204
 5502TIP3   OH238064   6.017   5.225   0.485  0.9589  0.4146 -0.7461
 5502TIP3    H138065   6.061   5.227   0.399  2.2409 -0.2754 -0.1235
 5502TIP3    H238066   6.076   5.273   0.543  0.2759  0.5545 -0.1647
 5503TIP3   OH238067   0.788   5.172   2.275 -0.0431  0.4812  0.0918
 5503TIP3    H138068   0.711   5.117   2.289  0.9012 -0.2314  2.7752
 5503TIP3    H238069   0.839   5.125   2.209 -1.0462  0.0569 -0.3883
 5504TIP3   OH238070   0.547   6.377   8.021 -0.5448  0.1413 -0.0415
 5504TIP3    H138071   0.624   6.371   8.076 -0.5142 -0.4649 -0.1484
 5504TIP3    H238072   0.560   6.457   7.969 -0.5405  0.6646  0.7619
 5505TIP3   OH238073   1.693   5.437   2.130  0.7414 -0.0829  0.3584
 5505TIP3    H138074   1.655   5.422   2.216 -0.2634  0.1913 -0.0342
 5505TIP3    H238075   1.720   5.529   2.131  0.4708 -0.0041  0.2757
 5506TIP3   OH238076   2.063   2.413   0.569  1.0704  0.0312  0.4326
 5506TIP3    H138077   2.065   2.356   0.646 -0.7558 -0.7749 -0.1055
 5506TIP3    H238078   2.119   2.369   0.506 -0.7596 -1.4601 -0.1690
 5507TIP3   OH238079   7.029   5.949   1.868  0.1307  0.2322  0.1429
 5507TIP3    H138080   7.011   6.020   1.930 -2.3593  0.8084 -1.1556
 5507TIP3    H238081   7.052   5.875   1.923  0.0844  1.3174  1.6636
 5508TIP3   OH238082   1.673   6.360   2.242 -0.4158  0.8070  0.7467
 5508TIP3    H138083   1.715   6.304   2.307  0.7532  0.7816 -0.0103
 5508TIP3    H238084   1.662   6.444   2.285  2.7973  1.6096  0.1605
 5509TIP3   OH238085   1.004   3.774   1.547 -0.1356 -0.1465  0.0284
 5509TIP3    H138086   1.092   3.740   1.562 -0.0115  0.6480  1.1705
 5509TIP3    H238087   1.018   3.861   1.509 -0.3903  0.6377  1.6717
 5510TIP3   OH238088   1.711   5.613   1.807  0.4491 -0.2839 -0.8268
 5510TIP3    H138089   1.742   5.567   1.885  1.7621  1.3297 -0.3586
 5510TIP3    H238090   1.755   5.698   1.811 -1.9567  1.0525 -1.6267
 5511TIP3   OH238091   0.445   7.210   1.931  0.6625 -0.5062 -0.3458
 5511TIP3    H138092   0.490   7.134   1.895  1.2600 -0.0244 -0.6068
 5511TIP3    H238093   0.455   7.201   2.026 -0.3999 -1.4528 -0.3120
 5512TIP3   OH238094   0.745   1.641   6.991 -0.4195 -0.0568 -0.4056
 5512TIP3    H138095   0.655   1.609   6.994 -0.5541  0.2514 -1.1024
 5512TIP3    H238096   0.737   1.734   6.972 -0.0073  0.3279  1.2614
 5513TIP3   OH238097   1.523   4.605   8.468 -0.2426  0.2315  0.0221
 5513TIP3    H138098   1.606   4.580   8.428 -0.1766  0.0453  0.2719
 5513TIP3    H238099   1.478   4.655   8.400 -0.6244 -1.0584 -0.6989
 5514TIP3   OH238100   2.373   6.333   1.875 -0.5818  0.4814 -0.2923
 5514TIP3    H138101   2.373   6.323   1.970  0.1680  0.0916 -0.3358
 5514TIP3    H238102   2.285   6.368   1.855 -0.8231  0.3461  0.5099
 5515TIP3   OH238103   1.128   3.658   0.739  0.5332 -0.6443 -0.3235
 5515TIP3    H138104   1.083   3.737   0.770  1.2990 -0.3485  0.0357
 5515TIP3    H238105   1.088   3.641   0.653 -0.6167 -0.6805  0.2009
 5516TIP3   OH238106   1.262   3.321   2.481 -0.1410 -0.0982 -0.0768
 5516TIP3    H138107   1.280   3.415   2.479 -3.6015  0.5912 -1.6512
 5516TIP3    H238108   1.173   3.314   2.514 -0.3829 -2.7712 -1.1717
 5517TIP3   OH238109   2.606   4.660   6.894 -0.2818 -0.3028 -0.2531
 5517TIP3    H138110   2.664   4.679   6.967 -0.5036  0.0610 -0.1689
 5517TIP3    H238111   2.552   4.587   6.925 -0.7511  0.2164  0.1544
 5518TIP3   OH238112   1.226   3.087   0.435  0.0875  0.1640 -0.3870
 5518TIP3    H138113   1.247   3.098   0.528 -0.9944  0.7373 -0.1994
 5518TIP3    H238114   1.238   3.175   0.397  1.6896 -0.3171 -1.0444
 5519TIP3   OH238115   7.236   3.489   0.372 -0.2955  0.0966  0.5961
 5519TIP3    H138116   7.156   3.436   0.374  0.2138 -0.7646 -0.9323
 5519TIP3    H238117   7.228   3.547   0.447 -1.2140 -1.6644  1.9090
 5520TIP3   OH238118   1.212   4.486   1.148 -0.1350  0.1825  0.4701
 5520TIP3    H138119   1.131   4.473   1.098  0.1633 -0.3607  0.1261
 5520TIP3    H238120   1.192   4.558   1.208  0.4869  2.9622 -2.5523
 5521TIP3   OH238121   6.844   7.167   0.885 -0.2523  0.5966  0.4268
 5521TIP3    H138122   6.797   7.086   0.865  0.3100  0.1440  0.9292
 5521TIP3    H238123   6.936   7.143   0.881 -0.1020  0.7249  2.6147
 5522TIP3   OH238124   0.697   6.651   8.223  0.1686 -0.4706  0.1026
 5522TIP3    H138125   0.732   6.570   8.185 -0.4529 -0.8753  0.3903
 5522TIP3    H238126   0.742   6.721   8.174 -0.9881 -0.9822 -1.7436
 5523TIP3   OH238127   6.535   6.540   7.796 -0.1819 -0.6873  0.1499
 5523TIP3    H138128   6.582   6.609   7.748 -0.9056 -1.8198 -2.2369
 5523TIP3    H238129   6.462   6.585   7.838  1.8323  0.7476  2.2614
 5524TIP3   OH238130   1.438   1.255   7.967 -0.3819 -0.7545  0.3304
 5524TIP3    H138131   1.350   1.246   7.932 -0.4651 -2.3940  0.8678
 5524TIP3    H238132   1.427   1.306   8.048 -0.5541  0.7016 -0.6001
 5525TIP3   OH238133   0.144   7.001   0.298  0.6386  0.3030 -0.2815
 5525TIP3    H138134   0.095   6.971   0.221  0.1866  3.1972 -1.1701
 5525TIP3    H238135   0.120   6.939   0.367  2.1855 -3.2063 -2.7852
 5526TIP3   OH238136   6.948   6.938   0.096  0.2472  0.3684  0.3073
 5526TIP3    H138137   6.993   6.892   0.026  0.3814  1.1725 -0.1437
 5526TIP3    H238138   6.967   6.887   0.175 -0.2458 -0.7681 -0.2999
 5527TIP3   OH238139   1.043   5.857   7.938  0.6844 -0.1831 -0.3788
 5527TIP3    H138140   1.053   5.864   8.033  1.1989  1.6661 -0.5583
 5527TIP3    H238141   0.995   5.775   7.926 -2.0516  1.0173  1.6803
 5528TIP3   OH238142   5.866   4.903   1.662 -0.0068  0.8115  0.3418
 5528TIP3    H138143   5.774   4.927   1.650 -0.0060  0.5923 -0.0990
 5528TIP3    H238144   5.911   4.943   1.588  0.6489  3.0992  1.9025
 5529TIP3   OH238145   1.986   6.240   7.619  0.2411 -0.1183  0.9133
 5529TIP3    H138146   2.020   6.329   7.606  1.7675 -1.0339 -1.8159
 5529TIP3    H238147   1.917   6.231   7.553 -0.1206 -0.8801  1.3888
 5530TIP3   OH238148   0.930   5.715   1.355 -0.5132  0.9684 -0.4205
 5530TIP3    H138149   0.905   5.652   1.287 -1.0948 -0.3391  0.9798
 5530TIP3    H238150   0.847   5.756   1.382 -1.1086 -2.3765  3.2468
 5531TIP3   OH238151   0.983   5.232   0.724 -0.1538  0.8179 -0.7132
 5531TIP3    H138152   1.007   5.196   0.809 -1.8619 -0.3524 -0.7100
 5531TIP3    H238153   1.038   5.185   0.662 -0.8853 -0.3341 -0.5096
 5532TIP3   OH238154   2.487   4.889   1.799  0.2667 -0.0261 -0.2452
 5532TIP3    H138155   2.439   4.815   1.763  1.1738 -0.0647 -1.4372
 5532TIP3    H238156   2.446   4.966   1.760 -0.8790  0.1184  1.2413
 5533TIP3   OH238157   4.250   2.059   0.992  0.0471  0.2753 -0.3197
 5533TIP3    H138158   4.194   2.023   1.060  0.3969  0.3200 -0.0041
 5533TIP3    H238159   4.190   2.103   0.931 -0.3639 -0.7656 -0.6648
 5534TIP3   OH238160   1.377   5.463   0.700 -0.3897  0.9087  0.7359
 5534TIP3    H138161   1.440   5.523   0.660  0.9558  0.1508  1.6855
 5534TIP3    H238162   1.339   5.513   0.772 -0.6259  1.2546  0.3707
 5535TIP3   OH238163   3.536   5.517   7.658 -0.5694  0.1439 -0.0760
 5535TIP3    H138164   3.552   5.476   7.743 -1.2905  3.0768  1.5604
 5535TIP3    H238165   3.446   5.494   7.637 -0.8899  0.6463  0.7116
 5536TIP3   OH238166   7.220   6.860   7.149 -0.2814  0.3049  0.0665
 5536TIP3    H138167   7.136   6.907   7.154 -0.1893  0.4565  0.2103
 5536TIP3    H238168   7.218   6.800   7.223 -0.8413 -0.6581 -0.7135
 5537TIP3   OH238169   1.470   3.142   6.544  0.3322  0.7421 -0.0819
 5537TIP3    H138170   1.524   3.165   6.468 -0.4914 -3.1267 -1.9399
 5537TIP3    H238171   1.388   3.191   6.529  0.8482  1.4386 -0.7083
 5538TIP3   OH238172   1.470   3.668   1.409 -0.6109 -0.4656 -0.4764
 5538TIP3    H138173   1.562   3.659   1.434  0.0770  0.8824 -2.3991
 5538TIP3    H238174   1.462   3.619   1.326 -1.3425  0.3652 -0.9108
 5539TIP3   OH238175   2.884   5.687   1.865 -0.6698 -0.1402  0.5684
 5539TIP3    H138176   2.887   5.780   1.842 -1.8376  0.0940  1.3093
 5539TIP3    H238177   2.950   5.646   1.809 -1.1856  0.9014 -0.8189
 5540TIP3   OH238178   3.160   5.604   1.223 -0.1918  0.6857  0.4095
 5540TIP3    H138179   3.099   5.678   1.229  0.0428  0.7368  2.2294
 5540TIP3    H238180   3.169   5.573   1.312 -0.2366 -1.5309 -0.3392
 5541TIP3   OH238181   4.558   3.981   1.267  0.6369  1.1384 -0.4116
 5541TIP3    H138182   4.604   3.973   1.183 -1.4967  2.9213 -1.8261
 5541TIP3    H238183   4.619   4.028   1.324  2.3620 -0.6499 -0.7065
 5542TIP3   OH238184   3.776   4.055   2.121  0.0088  0.0969 -0.0248
 5542TIP3    H138185   3.698   4.100   2.153  1.5568  2.6807  0.2684
 5542TIP3    H238186   3.816   4.017   2.199  1.3857  2.5626  0.5010
 5543TIP3   OH238187   1.695   3.348   1.627  0.1011 -0.1388  0.4701
 5543TIP3    H138188   1.694   3.389   1.713 -1.1093  0.6798  0.0842
 5543TIP3    H238189   1.637   3.272   1.635  0.5825 -0.4987  0.5756
 5544TIP3   OH238190   3.671   4.992   0.224  0.0381 -0.1106  0.0907
 5544TIP3    H138191   3.731   4.995   0.299 -0.7311  0.8983  0.6888
 5544TIP3    H238192   3.615   5.069   0.236  0.0498  0.1764 -1.6517
 5545TIP3   OH238193   2.673   3.852   1.927  0.3920  0.0776 -0.3662
 5545TIP3    H138194   2.624   3.911   1.985  0.8184 -0.4062  0.4977
 5545TIP3    H238195   2.681   3.771   1.977  1.9213  0.0930 -0.5522
 5546TIP3   OH238196   0.373   5.258   0.937 -0.1339  0.7693 -0.1192
 5546TIP3    H138197   0.278   5.249   0.929 -0.1491 -0.0211  0.8357
 5546TIP3    H238198   0.391   5.246   1.030  0.8556  1.4084 -0.2127
 5547TIP3   OH238199   1.770   4.422   1.638  0.0599  0.4533 -0.3297
 5547TIP3    H138200   1.858   4.389   1.655 -0.2710 -0.4419 -0.3071
 5547TIP3    H238201   1.720   4.397   1.716  0.3157  2.9728  0.6898
 5548TIP3   OH238202   2.992   4.533   8.407  0.9022  0.8376  0.4450
 5548TIP3    H138203   2.976   4.445   8.373 -0.4693  1.0233  0.5774
 5548TIP3    H238204   3.045   4.519   8.486  0.5124  0.1116  0.5779
 5549TIP3   OH238205   1.208   4.586   7.013  0.4561  0.0228  0.4397
 5549TIP3    H138206   1.300   4.611   7.014  0.4220  0.1993 -0.3865
 5549TIP3    H238207   1.162   4.666   6.986  0.1979 -0.4933 -0.6365
 5550TIP3   OH238208   1.185   5.640   0.479  0.2411  0.6057  0.1358
 5550TIP3    H138209   1.209   5.548   0.468 -0.6908  0.1674  1.7276
 5550TIP3    H238210   1.234   5.686   0.410  1.1740 -0.9959 -0.2801
 5551TIP3   OH238211   2.805   3.635   7.660  0.7615 -0.3276  0.4192
 5551TIP3    H138212   2.781   3.624   7.568 -1.6599 -2.0243  1.1773
 5551TIP3    H238213   2.893   3.673   7.658  0.1422  1.0995 -2.5705
 5552TIP3   OH238214   1.880   4.889   1.461  0.3465  0.0882  0.6428
 5552TIP3    H138215   1.935   4.903   1.384  0.9072 -1.0090  0.8428
 5552TIP3    H238216   1.917   4.948   1.527 -0.2351  1.1529  0.0476
 5553TIP3   OH238217   1.927   3.159   1.705 -0.8616 -0.3897 -0.1307
 5553TIP3    H138218   1.951   3.225   1.770  1.3090 -1.2711 -0.0027
 5553TIP3    H238219   1.842   3.127   1.733 -1.4135  1.5146  0.4618
 5554TIP3   OH238220   1.719   5.491   0.288 -0.0537  0.2457  0.6097
 5554TIP3    H138221   1.770   5.551   0.343 -1.0179  1.0048  0.7010
 5554TIP3    H238222   1.749   5.508   0.199  1.1729 -0.6469  0.8411
 5555TIP3   OH238223   5.297   5.510   0.613  0.0909 -0.7719  0.6137
 5555TIP3    H138224   5.356   5.571   0.569  0.5287 -1.1742  0.6324
 5555TIP3    H238225   5.348   5.475   0.686  0.2848 -2.0963 -0.1407
 5556TIP3   OH238226   3.264   6.382   6.744  0.8888 -0.1180 -0.4280
 5556TIP3    H138227   3.218   6.428   6.674 -0.8691 -1.2006 -0.0009
 5556TIP3    H238228   3.290   6.451   6.805  0.4646  0.5777 -1.0273
 5557TIP3   OH238229   0.796   4.224   0.923  0.5033  0.6388 -0.2775
 5557TIP3    H138230   0.843   4.156   0.971 -1.3301  0.4398  1.2949
 5557TIP3    H238231   0.747   4.271   0.990 -0.1385  1.9712 -1.6588
 5558TIP3   OH238232   4.295   3.749   1.383 -0.1700 -0.4957  0.2071
 5558TIP3    H138233   4.361   3.690   1.347  0.3358 -0.5212  1.1694
 5558TIP3    H238234   4.324   3.836   1.356 -1.0089 -0.6788 -1.3614
 5559TIP3   OH238235   3.671   5.332   2.104  0.1456  0.0800 -0.3302
 5559TIP3    H138236   3.662   5.367   2.193  1.7586  0.4214 -0.2784
 5559TIP3    H238237   3.699   5.407   2.052 -2.0460  0.1877 -1.4228
 5560TIP3   OH238238   1.353   5.329   1.092  0.9513 -0.0927  0.0220
 5560TIP3    H138239   1.298   5.379   1.032  1.2977 -1.0600 -1.1318
 5560TIP3    H238240   1.312   5.339   1.177 -0.7365 -0.3954 -0.7364
 5561TIP3   OH238241   4.057   6.992   7.578 -0.7331  0.4353  0.3342
 5561TIP3    H138242   4.081   7.007   7.670 -1.6401 -2.2363  1.0536
 5561TIP3    H238243   4.113   6.919   7.550 -1.8889 -0.1042 -0.6088
 5562TIP3   OH238244   0.151   4.342   1.184  0.2639  0.2063  0.1263
 5562TIP3    H138245   0.185   4.391   1.259 -0.0499 -0.6218  0.8161
 5562TIP3    H238246   0.186   4.254   1.194 -0.2184 -0.0549 -0.4096
 5563TIP3   OH238247   2.206   5.078   1.340  0.1889 -0.6438 -0.1192
 5563TIP3    H138248   2.169   4.993   1.316  1.5963 -1.7498  1.4634
 5563TIP3    H238249   2.145   5.142   1.304 -1.9564 -2.3645  0.3120
 5564TIP3   OH238250   3.555   4.807   7.422 -0.1873  0.2985 -0.6501
 5564TIP3    H138251   3.633   4.770   7.465  0.2384  0.4739 -1.2648
 5564TIP3    H238252   3.499   4.731   7.404  1.7133 -0.4127 -4.0290
 5565TIP3   OH238253   3.269   5.032   7.774 -0.1260 -0.6428 -0.3741
 5565TIP3    H138254   3.292   4.956   7.826 -0.9428 -0.9401 -0.4302
 5565TIP3    H238255   3.348   5.086   7.772 -0.3685 -0.1712  1.9506
 5566TIP3   OH238256   2.795   4.417   1.951  0.4467 -0.2049 -0.3451
 5566TIP3    H138257   2.747   4.416   2.034  1.5515 -3.9925  0.3945
 5566TIP3    H238258   2.858   4.488   1.961  0.1845 -0.2262  1.8828
 5567TIP3   OH238259   1.218   5.747   7.530 -0.1955 -0.1487  0.2385
 5567TIP3    H138260   1.243   5.809   7.598  0.1697 -0.6992  0.6138
 5567TIP3    H238261   1.128   5.722   7.552 -0.0177 -0.4563  0.6184
 5568TIP3   OH238262   1.247   7.004   7.857 -0.2019 -0.5672  0.3241
 5568TIP3    H138263   1.160   7.027   7.891 -0.3882 -0.5890 -0.1337
 5568TIP3    H238264   1.282   7.086   7.822 -0.9475 -0.9954 -1.4843
 5569TIP3   OH238265   2.783   5.477   8.498  0.4483  0.1971 -0.4431
 5569TIP3    H138266   2.775   5.560   8.544 -1.3488  0.6447 -1.5269
 5569TIP3    H238267   2.724   5.418   8.545  1.6474 -0.4570  0.2662
 5570TIP3   OH238268   1.504   0.084   1.764 -0.2530 -0.2016 -0.1826
 5570TIP3    H138269   1.589   0.086   1.808 -1.3901 -0.1607  2.0469
 5570TIP3    H238270   1.442   0.119   1.828 -2.0936 -0.9057 -1.5197
 5571TIP3   OH238271   2.415   4.895   6.920  0.2700  0.1378 -0.4428
 5571TIP3    H138272   2.465   4.814   6.907  0.2386  0.1188 -0.4485
 5571TIP3    H238273   2.481   4.962   6.937  0.2959  0.1079 -0.4229
 5572TIP3   OH238274   2.916   6.224   0.840 -0.2108  0.1102  0.8888
 5572TIP3    H138275   2.827   6.227   0.876 -0.2328  1.1639  0.7658
 5572TIP3    H238276   2.969   6.272   0.903  0.1802 -0.0577  0.6903
 5573TIP3   OH238277   3.881   3.348   1.268 -0.0916  0.2402 -0.2147
 5573TIP3    H138278   3.916   3.265   1.301 -0.2322  0.9845  1.8772
 5573TIP3    H238279   3.947   3.413   1.292 -1.4288  1.1941  0.9901
 5574TIP3   OH238280   1.262   5.110   0.849  0.1774 -0.1035  0.5081
 5574TIP3    H138281   1.328   5.137   0.912 -0.0978 -1.8703  1.5906
 5574TIP3    H238282   1.311   5.063   0.781  0.2162 -0.1693  0.5816
 5575TIP3   OH238283   3.321   2.340   0.245  0.1085  0.3765  0.0752
 5575TIP3    H138284   3.250   2.278   0.259 -1.0465  1.2618 -1.6088
 5575TIP3    H238285   3.290   2.421   0.285  0.7566  0.4199  0.5035
 5576TIP3   OH238286   0.459   4.433   0.681  0.1949  0.6545  0.3044
 5576TIP3    H138287   0.516   4.510   0.676 -0.7536  1.3298 -0.3087
 5576TIP3    H238288   0.391   4.449   0.615 -0.9604  0.0874  1.3270
 5577TIP3   OH238289   3.718   4.872   0.722  0.3268 -0.4541 -0.0933
 5577TIP3    H138290   3.784   4.931   0.758 -0.7449 -0.0595  1.2988
 5577TIP3    H238291   3.762   4.787   0.716  1.1754 -0.0354  0.1277
 5578TIP3   OH238292   1.081   6.403   0.416  0.0019  0.1890 -1.0710
 5578TIP3    H138293   1.176   6.419   0.419 -0.2236  1.3461  1.1456
 5578TIP3    H238294   1.052   6.447   0.336  0.8133  3.0774  0.1354
 5579TIP3   OH238295   1.043   5.596   2.404  0.2133  0.7148  0.1416
 5579TIP3    H138296   1.097   5.517   2.402  0.6430  1.0185 -0.5367
 5579TIP3    H238297   0.959   5.568   2.368  0.3555  0.5504 -0.0709
 5580TIP3   OH238298   3.753   4.675   1.863  0.4709 -0.2039 -0.1690
 5580TIP3    H138299   3.845   4.690   1.842  0.5552 -0.9115 -0.3190
 5580TIP3    H238300   3.756   4.618   1.940  0.1714  2.2130  1.6905
 5581TIP3   OH238301   1.438   4.372   2.465  0.1498  0.0658  0.2008
 5581TIP3    H138302   1.531   4.390   2.450  0.2137  0.0599  0.5742
 5581TIP3    H238303   1.437   4.320   2.545 -0.2465  0.9574  0.7796
 5582TIP3   OH238304   3.337   5.860   8.284  0.2740  0.2392  0.6227
 5582TIP3    H138305   3.366   5.908   8.362  1.7561 -2.6395  1.9343
 5582TIP3    H238306   3.401   5.789   8.274 -2.1370 -1.8339 -0.8544
 5583TIP3   OH238307   2.030   3.407   1.829  0.1735 -0.8655  0.8380
 5583TIP3    H138308   2.124   3.397   1.847  0.1851 -0.9755  0.7208
 5583TIP3    H238309   2.017   3.502   1.825  0.3996 -0.8571  0.2513
 5584TIP3   OH238310   3.774   5.707   0.465  0.0811  0.5176 -0.4180
 5584TIP3    H138311   3.738   5.794   0.480  0.6597  0.5518  0.8321
 5584TIP3    H238312   3.776   5.697   0.370 -0.7527  1.5452 -0.5389
 5585TIP3   OH238313   1.624   0.549   0.536  0.4547  0.8450  0.5728
 5585TIP3    H138314   1.714   0.581   0.537  0.7180  0.0857  0.9899
 5585TIP3    H238315   1.584   0.589   0.613  0.7625  0.2450  1.0503
 5586TIP3   OH238316   3.103   4.143   1.968  0.8564  0.4083  0.1969
 5586TIP3    H138317   3.164   4.128   1.896  1.8042  0.3349  0.9955
 5586TIP3    H238318   3.093   4.238   1.972 -2.6025  0.2741 -2.7794
 5587TIP3   OH238319   0.188   6.099   0.970 -0.6177 -0.4870  0.1898
 5587TIP3    H138320   0.141   6.118   1.051 -0.4306 -1.3272  0.5059
 5587TIP3    H238321   0.172   6.175   0.914 -1.9866 -0.5711  0.4510
 5588TIP3   OH238322   2.992   4.726   2.172 -0.2321  0.4697  0.1217
 5588TIP3    H138323   3.049   4.705   2.246 -1.1624 -0.7509  0.5175
 5588TIP3    H238324   3.020   4.812   2.144  1.3083  0.1988  0.7836
 5589TIP3   OH238325   2.756   2.608   1.826  0.0618 -0.1072 -0.0301
 5589TIP3    H138326   2.790   2.519   1.822 -1.4930 -0.7647  0.6025
 5589TIP3    H238327   2.759   2.640   1.736 -1.5453 -1.6583 -0.6564
 5590TIP3   OH238328   4.495   3.949   1.674  0.0994  0.1508 -0.5655
 5590TIP3    H138329   4.517   3.864   1.636 -1.9689 -0.6774  0.0196
 5590TIP3    H238330   4.399   3.950   1.675  0.1236  1.9721  0.6058
 5591TIP3   OH238331   2.632   5.883   0.671  0.6394  0.0528  0.0537
 5591TIP3    H138332   2.712   5.890   0.723  0.2132  0.9315  0.6024
 5591TIP3    H238333   2.616   5.972   0.639  0.0509 -0.1763 -0.3068
 5592TIP3   OH238334   2.095   3.250   8.343 -0.0260  0.3398  0.5018
 5592TIP3    H138335   2.007   3.264   8.378 -0.8739 -0.7740 -1.1090
 5592TIP3    H238336   2.084   3.256   8.248  2.0440  2.3354  0.3404
 5593TIP3   OH238337   3.356   3.780   1.528 -0.0538 -0.1738 -0.2470
 5593TIP3    H138338   3.312   3.864   1.511 -2.4735 -1.2531  0.3382
 5593TIP3    H238339   3.320   3.720   1.463  1.5689 -0.7992 -0.5873
 5594TIP3   OH238340   1.002   4.131   1.710  0.0212 -0.0838  0.4372
 5594TIP3    H138341   1.007   4.190   1.785 -1.3670  1.5631 -0.7302
 5594TIP3    H238342   1.054   4.055   1.736 -1.1155  0.0841  3.3877
 5595TIP3   OH238343   0.725   4.979   0.664 -0.7721  0.0155 -0.3421
 5595TIP3    H138344   0.643   5.011   0.625 -1.1093 -0.1202  0.2543
 5595TIP3    H238345   0.753   5.050   0.722  0.2093  0.6023 -1.5089
 5596TIP3   OH238346   1.086   3.070   1.664 -0.2801 -0.4718 -0.0420
 5596TIP3    H138347   1.176   3.038   1.673 -0.6666 -1.6811 -0.3342
 5596TIP3    H238348   1.052   3.023   1.587 -0.5932  1.2935 -0.9984
 5597TIP3   OH238349   2.024   3.939   0.392 -0.1108 -0.4948  0.0881
 5597TIP3    H138350   2.046   3.868   0.452  1.3496 -1.6205 -1.7052
 5597TIP3    H238351   2.098   3.999   0.397 -0.3906 -0.1467  0.0597
 5598TIP3   OH238352   1.387   3.575   7.535  0.5321  0.3907 -0.5021
 5598TIP3    H138353   1.360   3.494   7.490 -1.0867  0.2292  0.6943
 5598TIP3    H238354   1.391   3.550   7.627 -1.7105  2.0734  0.0980
 5599TIP3   OH238355   6.175   2.788   1.529  0.1013  0.2155 -0.0432
 5599TIP3    H138356   6.199   2.860   1.471 -2.4610  1.0108 -0.1788
 5599TIP3    H238357   6.137   2.830   1.606  0.4246 -0.9238  0.7568
 5600TIP3   OH238358   2.265   3.941   0.848 -0.6009 -0.3141 -0.0452
 5600TIP3    H138359   2.292   3.858   0.807 -3.1525 -1.0506 -0.2845
 5600TIP3    H238360   2.313   3.942   0.931  1.5029 -0.7401 -1.2214
 5601TIP3   OH238361   2.797   5.949   6.703  0.1606  0.2576  0.0288
 5601TIP3    H138362   2.816   6.040   6.724 -0.4807  0.6307 -0.9705
 5601TIP3    H238363   2.833   5.899   6.776  1.0072  1.2711  0.3086
 5602TIP3   OH238364   2.028   5.002   1.674  0.1609 -0.4290  0.2148
 5602TIP3    H138365   2.120   5.025   1.690  1.1054 -2.0844 -2.4260
 5602TIP3    H238366   1.978   5.060   1.732  2.8037  1.3563  0.8073
 5603TIP3   OH238367   3.683   4.817   1.226  0.0617  0.3948  0.3190
 5603TIP3    H138368   3.715   4.897   1.268  2.7732 -1.9622  3.0624
 5603TIP3    H238369   3.657   4.760   1.299  1.9923 -2.7060 -1.2824
 5604TIP3   OH238370   3.004   2.863   1.018 -0.3160 -0.1300 -0.2429
 5604TIP3    H138371   3.073   2.921   1.050  0.7536 -0.3976 -1.9799
 5604TIP3    H238372   2.939   2.862   1.088  0.7039  1.3791  0.7620
 5605TIP3   OH238373   2.348   4.547   2.565  0.4061 -0.1399  0.2245
 5605TIP3    H138374   2.415   4.479   2.562  0.3485 -0.1373 -1.2652
 5605TIP3    H238375   2.277   4.513   2.510 -1.2234 -0.5568  2.4658
 5606TIP3   OH238376   3.567   3.737   2.403 -0.5006  0.4186 -0.7945
 5606TIP3    H138377   3.553   3.674   2.474 -0.3839  0.3459 -0.8348
 5606TIP3    H238378   3.496   3.718   2.341  0.6007 -0.9165 -1.6782
 5607TIP3   OH238379   1.675   5.899   1.389  0.1080  0.0534  0.1331
 5607TIP3    H138380   1.635   5.893   1.476  0.9139 -2.4613  0.3725
 5607TIP3    H238381   1.769   5.894   1.405  0.3622  1.5717 -0.7624
 5608TIP3   OH238382   4.665   4.831   1.350 -0.3596  0.2511  0.0693
 5608TIP3    H138383   4.661   4.783   1.433  0.5604 -2.6080 -1.4780
 5608TIP3    H238384   4.710   4.771   1.290 -0.5236  2.4891 -2.3517
 5609TIP3   OH238385   1.288   5.713   0.235  0.5380 -0.2089  0.0088
 5609TIP3    H138386   1.287   5.632   0.183 -0.5015  0.0976 -0.4706
 5609TIP3    H238387   1.372   5.754   0.214  1.1352 -1.2410  0.3745
 5610TIP3   OH238388   1.384   7.048   0.147 -0.1764 -0.7556 -0.2527
 5610TIP3    H138389   1.289   7.063   0.150  0.3561  2.8038  1.8451
 5610TIP3    H238390   1.407   7.058   0.055 -1.2259  3.3701 -0.1640
 5611TIP3   OH238391   1.101   5.747   0.712 -0.0496  0.2951 -0.5537
 5611TIP3    H138392   1.074   5.828   0.670  1.3312  1.0398 -0.0535
 5611TIP3    H238393   1.122   5.687   0.640 -0.9282  0.4369 -0.9234
 5612TIP3   OH238394   2.439   3.115   0.399 -0.0835 -0.0768 -0.2067
 5612TIP3    H138395   2.407   3.110   0.489  0.0933 -0.5380 -0.1693
 5612TIP3    H238396   2.519   3.062   0.399 -0.4304 -0.6091 -0.7879
 5613TIP3   OH238397   1.152   3.896   8.305  0.7328 -0.1805 -0.3901
 5613TIP3    H138398   1.096   3.820   8.318  3.7450 -2.3550  0.5790
 5613TIP3    H238399   1.118   3.938   8.227 -2.3401 -1.2828  0.2971
 5614TIP3   OH238400   4.136   4.901   1.873  0.5331 -0.0374 -0.7635
 5614TIP3    H138401   4.054   4.869   1.909 -1.2349  1.2983 -3.4069
 5614TIP3    H238402   4.154   4.981   1.922 -0.5492  0.4379 -1.1087
 5615TIP3   OH238403   2.340   2.678   7.172 -0.8094  0.5163  0.1188
 5615TIP3    H138404   2.326   2.611   7.239  0.9293  1.1432  1.1302
 5615TIP3    H238405   2.327   2.761   7.218  0.6867  0.9588 -0.2310
 5616TIP3   OH238406   1.696   4.173   2.042  0.6412 -0.0954 -0.2063
 5616TIP3    H138407   1.743   4.102   1.999 -1.2683 -1.0534 -0.7941
 5616TIP3    H238408   1.672   4.137   2.128 -2.9584 -1.3647 -1.6250
 5617TIP3   OH238409   4.047   5.007   7.588 -0.7411  0.7782 -0.1298
 5617TIP3    H138410   4.116   4.941   7.591 -0.1957  1.3309 -0.4056
 5617TIP3    H238411   4.036   5.027   7.495 -1.8703  0.0741 -0.1536
 5618TIP3   OH238412   3.439   4.630   1.297  0.7012  0.0249  0.2402
 5618TIP3    H138413   3.409   4.702   1.242  0.5666 -0.2789 -0.0823
 5618TIP3    H238414   3.479   4.674   1.373 -0.9709  0.4254  0.9123
 5619TIP3   OH238415   0.986   6.069   7.778  0.0161  0.7534  0.5031
 5619TIP3    H138416   0.958   6.011   7.707 -1.1583  2.4717 -0.5038
 5619TIP3    H238417   1.002   6.011   7.852 -0.5556 -0.9002 -0.6346
 5620TIP3   OH238418   1.975   6.241   0.464 -0.0900  0.0061  0.4163
 5620TIP3    H138419   1.965   6.235   0.369  0.3495  1.0489  0.2977
 5620TIP3    H238420   1.928   6.165   0.498 -1.9506  0.7222 -0.5253
 5621TIP3   OH238421   2.023   4.160   1.073  0.3988  0.1134 -0.4753
 5621TIP3    H138422   2.031   4.145   0.979  0.3385 -0.8421 -0.3390
 5621TIP3    H238423   2.054   4.078   1.113  0.1551  0.4059  0.3265
 5622TIP3   OH238424   2.297   5.325   2.108 -0.1312 -0.3502  0.1893
 5622TIP3    H138425   2.355   5.257   2.140  0.7813  0.9524  1.3386
 5622TIP3    H238426   2.274   5.376   2.185 -0.1374  1.1504 -0.7775
 5623TIP3   OH238427   3.615   4.436   7.966  0.5077 -0.8381 -0.2292
 5623TIP3    H138428   3.689   4.495   7.983 -1.5650  1.5481  0.8361
 5623TIP3    H238429   3.618   4.422   7.871  0.3807  1.9739 -0.7120
 5624TIP3   OH238430   2.727   5.631   2.149 -0.2632  0.0707  0.0602
 5624TIP3    H138431   2.674   5.551   2.158  2.3794 -1.8495 -0.6149
 5624TIP3    H238432   2.783   5.631   2.226  1.4695 -0.1013 -1.1746
 5625TIP3   OH238433   3.039   4.003   0.864 -0.3075 -0.1652 -0.2899
 5625TIP3    H138434   3.032   4.091   0.900 -1.3446 -0.7468  0.9577
 5625TIP3    H238435   3.107   4.010   0.797 -0.8808  1.7408 -0.6973
 5626TIP3   OH238436   2.838   5.492   1.136  0.2919  0.3761 -0.4143
 5626TIP3    H138437   2.813   5.514   1.046 -1.1600  2.4676  0.4407
 5626TIP3    H238438   2.896   5.564   1.163  1.7789 -0.9212 -0.1015
 5627TIP3   OH238439   4.112   3.933   2.287 -0.3237 -0.3163  0.0976
 5627TIP3    H138440   4.125   3.847   2.327 -1.4015  0.1945  1.5924
 5627TIP3    H238441   4.129   3.919   2.194  0.5919 -1.8966  0.4842
 5628TIP3   OH238442   3.545   5.210   6.365  0.1293 -0.3774 -0.6904
 5628TIP3    H138443   3.540   5.243   6.276 -1.7319  1.3032  0.0032
 5628TIP3    H238444   3.595   5.277   6.412 -0.5214 -0.3391 -0.0538
 5629TIP3   OH238445   2.321   4.400   1.817  0.2386 -0.1169  0.7639
 5629TIP3    H138446   2.336   4.307   1.831  3.0290 -0.1026 -1.6496
 5629TIP3    H238447   2.306   4.408   1.722 -0.8326  1.7817  1.0614
 5630TIP3   OH238448   3.440   4.267   0.356  0.3734  0.4143 -0.2525
 5630TIP3    H138449   3.411   4.329   0.289 -0.7820  0.3906  0.2161
 5630TIP3    H238450   3.449   4.320   0.436 -1.0536 -0.0967  0.2564
 5631TIP3   OH238451   7.171   7.017   0.531  0.0220 -0.3423 -0.1133
 5631TIP3    H138452   7.076   7.004   0.533  0.1574 -1.2357  2.6015
 5631TIP3    H238453   7.185   7.099   0.579  0.6795 -0.5161 -0.0082
 5632TIP3   OH238454   2.391   3.846   1.093 -0.0061  0.3071  0.4274
 5632TIP3    H138455   2.402   3.751   1.096 -1.1076  0.1149 -0.7781
 5632TIP3    H238456   2.478   3.881   1.075  0.1220 -0.5991 -0.7738
 5633TIP3   OH238457   3.559   5.060   1.032  0.1552 -0.0412 -0.7723
 5633TIP3    H138458   3.643   5.046   1.076 -0.6577  0.0121  0.8414
 5633TIP3    H238459   3.569   5.145   0.989  1.2909 -0.5227 -1.4873
 5634TIP3   OH238460   4.504   5.090   1.654  0.1516 -0.3944 -0.4862
 5634TIP3    H138461   4.564   5.016   1.641 -2.5884 -2.5749 -1.2479
 5634TIP3    H238462   4.454   5.095   1.573 -0.6671  1.3896  0.1022
 5635TIP3   OH238463   3.734   5.440   0.204  0.5562  0.4321 -0.2301
 5635TIP3    H138464   3.709   5.429   0.112 -1.0054 -0.2046  0.2526
 5635TIP3    H238465   3.804   5.376   0.217  1.6209  1.3569 -1.2758
 5636TIP3   OH238466   2.116   3.927   1.174 -0.4289  0.1042 -0.2335
 5636TIP3    H138467   2.094   3.843   1.134 -0.5863  0.2812 -0.5133
 5636TIP3    H238468   2.212   3.932   1.168 -0.5685  0.8704 -2.0623
 5637TIP3   OH238469   5.061   7.224   0.105  0.6316  0.0369  0.6312
 5637TIP3    H138470   5.033   7.134   0.090  0.0059  0.4362 -0.7107
 5637TIP3    H238471   5.153   7.225   0.077  0.2965  0.0879 -0.4952
 5638TIP3   OH238472   0.610   6.873   8.438 -0.0561 -0.2119  0.0779
 5638TIP3    H138473   0.576   6.945   8.386 -0.4788 -0.1907  0.3814
 5638TIP3    H238474   0.675   6.832   8.382 -1.2533 -0.8382 -0.8770
 5639TIP3   OH238475   2.947   5.809   0.547 -0.4220 -0.1594  0.0508
 5639TIP3    H138476   2.910   5.722   0.533 -0.9154  0.0772 -0.1171
 5639TIP3    H238477   2.917   5.835   0.634 -0.3048 -0.1391  0.0860
 5640TIP3   OH238478   3.399   4.130   8.012  0.1264 -0.0335 -0.5409
 5640TIP3    H138479   3.385   4.065   8.080 -1.4110  0.0161 -0.7971
 5640TIP3    H238480   3.484   4.169   8.033  0.8052 -1.7191 -0.0676
 5641TIP3   OH238481   3.543   3.168   1.044 -0.1521 -0.0065  0.0067
 5641TIP3    H138482   3.469   3.181   0.986 -1.5937 -2.5529  1.1950
 5641TIP3    H238483   3.524   3.223   1.120 -0.7697 -0.5431  0.2446
 5642TIP3   OH238484   2.888   5.403   7.100 -0.3365  0.2421 -0.1399
 5642TIP3    H138485   2.889   5.324   7.046 -0.7544 -0.6725  1.1926
 5642TIP3    H238486   2.943   5.382   7.175 -2.6199  0.2480  1.5735
 5643TIP3   OH238487   4.545   4.804   8.129 -0.2983  0.1350 -0.3064
 5643TIP3    H138488   4.607   4.763   8.190 -0.6953  0.0679  0.0510
 5643TIP3    H238489   4.520   4.886   8.172 -1.6002 -0.5418  0.2397
 5644TIP3   OH238490   2.131   5.324   1.162 -0.8536 -0.0010  0.1691
 5644TIP3    H138491   2.172   5.371   1.234 -2.8399 -0.2410  1.4801
 5644TIP3    H238492   2.091   5.392   1.108 -0.3116  0.0947 -0.1174
 5645TIP3   OH238493   4.008   1.950   2.003  0.2050  0.7765 -0.8313
 5645TIP3    H138494   4.037   1.958   2.094  1.7424 -1.3220 -1.0948
 5645TIP3    H238495   3.914   1.968   2.006  0.0390 -0.3050  1.3269
 5646TIP3   OH238496   3.517   5.135   1.656 -0.2523 -0.5627 -0.1516
 5646TIP3    H138497   3.508   5.183   1.574 -0.8780  0.9050  0.7391
 5646TIP3    H238498   3.428   5.105   1.676  0.0471 -1.6553 -0.4391
 5647TIP3   OH238499   1.685   6.522   7.305 -0.0000 -0.1036  0.1422
 5647TIP3    H138500   1.705   6.614   7.324 -0.2431 -0.2272  1.0027
 5647TIP3    H238501   1.668   6.483   7.390 -0.9340 -0.7106 -0.3204
 5648TIP3   OH238502   6.863   3.539   1.405 -0.1692  0.0901  0.0965
 5648TIP3    H138503   6.795   3.581   1.352 -0.5794 -2.5792 -1.5907
 5648TIP3    H238504   6.816   3.506   1.482 -0.4892 -0.2540 -0.2413
 5649TIP3   OH238505   1.787   4.592   6.665 -0.4405  0.0318 -0.1819
 5649TIP3    H138506   1.787   4.666   6.725  0.1826 -0.7050  0.7348
 5649TIP3    H238507   1.860   4.610   6.605 -0.0345 -0.0394  0.2907
 5650TIP3   OH238508   2.822   4.065   0.476  0.2626 -0.4450  0.3069
 5650TIP3    H138509   2.816   4.107   0.562  0.0144  0.6982 -0.2671
 5650TIP3    H238510   2.913   4.075   0.450 -0.2397  1.5647 -0.7407
 5651TIP3   OH238511   1.940   6.318   7.880 -0.1371  0.4338  0.2397
 5651TIP3    H138512   1.941   6.278   7.794  0.5436 -1.6395  1.1938
 5651TIP3    H238513   2.031   6.343   7.897 -0.5884  2.6953 -0.4541
 5652TIP3   OH238514   1.721   5.193   0.984  0.1175 -0.0330 -0.0910
 5652TIP3    H138515   1.754   5.137   0.914  0.5711 -0.4950  0.4909
 5652TIP3    H238516   1.678   5.265   0.938 -0.2013 -0.6905 -0.8480
 5653TIP3   OH238517   2.256   6.358   2.472  0.3114 -0.0276 -0.4709
 5653TIP3    H138518   2.239   6.264   2.460 -0.3557  0.2819 -2.0246
 5653TIP3    H238519   2.348   6.369   2.450 -0.1104  0.0003 -2.3273
 5654TIP3   OH238520   1.414   2.859   0.482 -0.1467  0.2163  0.0820
 5654TIP3    H138521   1.459   2.877   0.565  0.0249 -0.5960  0.1696
 5654TIP3    H238522   1.336   2.914   0.485 -0.4361 -0.2349  1.0338
 5655TIP3   OH238523   1.914   4.829   8.482  0.0124  0.0423 -0.2316
 5655TIP3    H138524   1.986   4.771   8.508  1.5249  1.6975 -0.5904
 5655TIP3    H238525   1.849   4.819   8.552  2.0375  0.9954  1.8581
 5656TIP3   OH238526   2.703   5.661   1.433  0.2525 -0.7243  0.1520
 5656TIP3    H138527   2.733   5.694   1.348  0.9690 -0.5774  0.4605
 5656TIP3    H238528   2.769   5.692   1.495 -0.5290 -0.4016  0.8345
 5657TIP3   OH238529   1.258   5.456   1.886  0.0213 -0.5330  0.0777
 5657TIP3    H138530   1.268   5.512   1.963 -2.8839  0.6303 -0.3317
 5657TIP3    H238531   1.274   5.368   1.919  0.9372  0.1716  1.5572
 5658TIP3   OH238532   1.167   5.707   1.084 -0.3090  0.0382  0.0758
 5658TIP3    H138533   1.211   5.683   1.002 -0.3996  0.4158 -0.0818
 5658TIP3    H238534   1.216   5.782   1.117 -0.4999  0.1183  0.1777
 5659TIP3   OH238535   3.861   3.990   8.383  0.6253  0.5550  0.3434
 5659TIP3    H138536   3.791   4.047   8.351 -0.2575  0.0242  1.2916
 5659TIP3    H238537   3.934   4.050   8.400  0.2083  1.2002 -0.1011
 5660TIP3   OH238538   4.202   4.772   7.493  0.3570  0.1126  0.5679
 5660TIP3    H138539   4.153   4.835   7.440  2.6821  0.0123 -1.7676
 5660TIP3    H238540   4.175   4.686   7.460  0.0328 -0.0183  1.1692
 5661TIP3   OH238541   2.237   6.000   1.836  0.3357 -0.2809 -0.7414
 5661TIP3    H138542   2.316   6.020   1.784 -0.1299 -0.2312 -1.4385
 5661TIP3    H238543   2.271   5.979   1.923  1.0845  0.2710 -0.8887
 5662TIP3   OH238544   1.339   4.958   0.420  0.3572 -0.1374  0.0577
 5662TIP3    H138545   1.375   4.916   0.342 -0.8790  2.4531 -1.9652
 5662TIP3    H238546   1.416   4.987   0.469  1.1124 -0.7776 -0.7377
 5663TIP3   OH238547   3.089   4.293   1.305  0.7854 -0.0540 -0.1938
 5663TIP3    H138548   3.003   4.322   1.334  0.3144 -2.1110  0.5600
 5663TIP3    H238549   3.151   4.338   1.363  0.1787  0.6988 -0.1311
 5664TIP3   OH238550   6.892   7.042   0.481 -0.5588 -0.0903  0.2106
 5664TIP3    H138551   6.833   7.107   0.518 -2.5885 -2.5562  1.4573
 5664TIP3    H238552   6.835   6.972   0.450  1.5860 -1.5359 -0.6295
 5665TIP3   OH238553   0.246   5.847   1.733 -0.0325 -0.6507  0.2414
 5665TIP3    H138554   0.308   5.788   1.690 -1.2119 -1.2311 -0.7059
 5665TIP3    H238555   0.272   5.934   1.705  1.0556 -0.7978  0.7734
 5666TIP3   OH238556   3.337   4.496   8.086  0.0264 -0.3910  0.2664
 5666TIP3    H138557   3.350   4.452   8.170 -0.1464  1.4291  1.2755
 5666TIP3    H238558   3.423   4.498   8.046  0.8400  1.7996  1.9874
 5667TIP3   OH238559   1.072   6.626   1.553  0.2240 -0.5804  0.0763
 5667TIP3    H138560   1.115   6.609   1.637  0.7433 -0.4434 -0.1656
 5667TIP3    H238561   1.011   6.553   1.543 -3.1966  1.7576  2.7712
 5668TIP3   OH238562   3.209   4.226   1.060 -0.4040  0.1987  0.6088
 5668TIP3    H138563   3.153   4.235   1.137 -1.1055  3.1070 -0.2077
 5668TIP3    H238564   3.294   4.260   1.088 -0.9839  2.3705 -0.2397
 5669TIP3   OH238565   1.079   4.062   0.951 -0.0702  0.3293  0.3050
 5669TIP3    H138566   1.156   4.059   1.008 -0.6357  0.8381  1.1108
 5669TIP3    H238567   1.006   4.038   1.009 -0.3146 -1.7078 -0.8096
 5670TIP3   OH238568   1.086   4.752   1.186 -0.1235 -0.1973  0.2640
 5670TIP3    H138569   1.092   4.841   1.220  1.8424 -0.9785  2.0867
 5670TIP3    H238570   1.164   4.741   1.131  1.2177 -1.6750  2.3625
 5671TIP3   OH238571   2.413   6.102   0.914 -0.1582  0.2143  0.4280
 5671TIP3    H138572   2.428   6.020   0.961 -1.1983 -0.6424 -0.6965
 5671TIP3    H238573   2.321   6.098   0.888  0.6421  0.1833 -2.5346
 5672TIP3   OH238574   3.200   4.403   2.072 -0.1951 -1.0278  0.1434
 5672TIP3    H138575   3.258   4.479   2.071 -1.5700  0.0242  0.6396
 5672TIP3    H238576   3.255   4.333   2.108  1.0408 -0.2637 -0.2068
 5673TIP3   OH238577   2.174   4.448   2.393  0.2516 -0.8433  0.0169
 5673TIP3    H138578   2.124   4.488   2.321  1.9046  2.0198  0.3626
 5673TIP3    H238579   2.236   4.390   2.350 -0.0233 -0.5873 -0.7404
 5674TIP3   OH238580   2.311   4.670   1.768 -0.3440 -0.3344 -0.5963
 5674TIP3    H138581   2.287   4.584   1.802  1.4297 -0.9400 -0.7844
 5674TIP3    H238582   2.237   4.697   1.714 -0.3797 -2.3602 -1.6126
 5675TIP3   OH238583   2.868   3.162   1.884 -0.4820 -0.0548 -0.0689
 5675TIP3    H138584   2.871   3.084   1.940  1.2029 -0.5113 -0.7451
 5675TIP3    H238585   2.956   3.167   1.846 -0.1940  2.9135  0.9204
 5676TIP3   OH238586   2.892   5.069   1.954 -0.2515 -0.0303  0.7148
 5676TIP3    H138587   2.861   5.134   2.018 -1.3889 -2.2696  2.5045
 5676TIP3    H238588   2.972   5.035   1.992  0.8268  0.9176 -0.6594
 5677TIP3   OH238589   2.700   3.250   2.121 -0.1424  0.3945 -0.0967
 5677TIP3    H138590   2.737   3.320   2.174 -0.5147  1.0801 -0.7218
 5677TIP3    H238591   2.775   3.196   2.095 -0.0227 -0.2355  1.5172
 5678TIP3   OH238592   2.218   5.019   1.904  0.4313  0.0418 -0.3749
 5678TIP3    H138593   2.215   5.115   1.912  0.3988 -0.0130  0.2977
 5678TIP3    H238594   2.176   4.987   1.984  2.7708 -0.5621  0.6711
 5679TIP3   OH238595   2.601   6.710   0.939 -0.0648  0.2172  0.2054
 5679TIP3    H138596   2.615   6.767   1.015  0.1110 -0.7873  0.9464
 5679TIP3    H238597   2.509   6.724   0.915  0.0993  1.1357  0.1024
 5680TIP3   OH238598   0.853   4.266   7.391 -0.2293  0.0165 -0.5519
 5680TIP3    H138599   0.919   4.238   7.455 -0.4083 -1.2277 -0.9106
 5680TIP3    H238600   0.780   4.296   7.445 -0.9469 -2.3693 -0.1567
 5681TIP3   OH238601   0.175   4.965   0.193 -0.2536  0.3023  0.2248
 5681TIP3    H138602   0.269   4.972   0.207 -0.6587  0.4338  3.2791
 5681TIP3    H238603   0.160   4.873   0.171  0.5403  0.1856  0.1751
 5682TIP3   OH238604   1.961   4.482   0.939 -0.3496  0.2751 -0.0488
 5682TIP3    H138605   1.945   4.470   1.032  1.8572 -0.8871  0.1966
 5682TIP3    H238606   1.889   4.435   0.897 -1.0278  0.3156  1.0486
 5683TIP3   OH238607   5.367   4.250   1.792 -0.1479 -0.1155 -0.4163
 5683TIP3    H138608   5.296   4.187   1.803  1.4971 -1.8868  0.1872
 5683TIP3    H238609   5.438   4.217   1.846  1.2103  1.5790 -1.0991
 5684TIP3   OH238610   4.378   5.144   1.896  0.2113  0.1305  0.0433
 5684TIP3    H138611   4.377   5.064   1.950  1.3745  0.6829  0.9053
 5684TIP3    H238612   4.424   5.118   1.816 -0.6312 -0.4239 -0.2723
 5685TIP3   OH238613   3.733   4.259   1.885  0.5474 -0.0970 -0.3482
 5685TIP3    H138614   3.795   4.331   1.900  0.3668  0.5809 -2.6535
 5685TIP3    H238615   3.754   4.195   1.953  1.3332  1.7147  1.1716
 5686TIP3   OH238616   3.881   3.477   7.819  0.0789  0.4432  0.3197
 5686TIP3    H138617   3.835   3.561   7.807 -1.5099 -0.6762 -1.8115
 5686TIP3    H238618   3.904   3.450   7.730  0.8427 -1.2382  1.0202
 5687TIP3   OH238619   3.373   5.253   7.312 -0.3270 -0.0997  0.3504
 5687TIP3    H138620   3.395   5.170   7.355 -2.4398 -0.7927  0.1230
 5687TIP3    H238621   3.345   5.228   7.224  0.8502  1.0358 -0.3712
 5688TIP3   OH238622   1.821   5.627   0.802 -0.2892 -0.4526  0.3837
 5688TIP3    H138623   1.812   5.653   0.710  0.4010  0.1245  0.4768
 5688TIP3    H238624   1.731   5.624   0.835 -0.4169  1.4652  0.2615
 5689TIP3   OH238625   3.905   4.388   0.197 -0.7270 -0.1064  0.1722
 5689TIP3    H138626   3.954   4.463   0.166 -0.7144 -0.0395  0.3552
 5689TIP3    H238627   3.971   4.320   0.210 -0.8744 -0.5165 -1.0990
 5690TIP3   OH238628   0.527   6.495   6.947 -0.9662 -0.2521  0.8991
 5690TIP3    H138629   0.543   6.585   6.921 -2.5047 -0.1148  0.4084
 5690TIP3    H238630   0.462   6.501   7.018 -1.1253 -0.9766  0.8225
 5691TIP3   OH238631   4.583   5.428   1.822 -0.2253  0.1840  0.3883
 5691TIP3    H138632   4.526   5.421   1.898  0.2405  0.4044  0.7545
 5691TIP3    H238633   4.668   5.451   1.857  0.3828 -1.3128 -0.0437
 5692TIP3   OH238634   3.226   5.857   0.585  0.8193  0.4176  0.0430
 5692TIP3    H138635   3.242   5.791   0.652  2.7639  1.3771  0.5593
 5692TIP3    H238636   3.131   5.857   0.573  0.8591 -3.0906 -0.6210
 5693TIP3   OH238637   2.693   3.639   7.926 -0.6367 -0.4677 -0.0868
 5693TIP3    H138638   2.603   3.671   7.936 -0.7554  0.4518 -3.2998
 5693TIP3    H238639   2.717   3.664   7.836  3.4573  0.8676  1.2621
 5694TIP3   OH238640   2.387   5.045   1.532  0.0030  0.2603 -0.5693
 5694TIP3    H138641   2.319   5.040   1.466 -0.7439  0.2250  0.2000
 5694TIP3    H238642   2.456   4.987   1.500 -0.7848 -0.5458 -0.8165
 5695TIP3   OH238643   3.615   5.483   0.439  0.0470  0.6009  0.4003
 5695TIP3    H138644   3.653   5.570   0.455 -0.6139  0.8437  0.6983
 5695TIP3    H238645   3.661   5.450   0.362 -0.5374  1.7284 -0.4443
 5696TIP3   OH238646   5.314   5.321   7.815 -0.2436  0.1417 -0.6068
 5696TIP3    H138647   5.376   5.276   7.873 -0.0383 -0.9779 -1.6689
 5696TIP3    H238648   5.353   5.407   7.801 -0.2340  0.3801  0.8127
 5697TIP3   OH238649   4.977   4.729   8.300 -0.5124  0.4028  0.1902
 5697TIP3    H138650   4.964   4.823   8.291 -0.2646  0.3186 -1.1241
 5697TIP3    H238651   5.027   4.704   8.223  1.2231 -0.4724  1.5567
 5698TIP3   OH238652   3.718   4.010   0.712 -0.2022  0.0300 -0.1603
 5698TIP3    H138653   3.809   4.004   0.682 -0.1811  2.2653 -0.6062
 5698TIP3    H238654   3.666   3.998   0.632 -0.1909  3.0908 -0.6912
 5699TIP3   OH238655   2.470   4.317   2.509  0.3190  0.6843  0.0644
 5699TIP3    H138656   2.501   4.226   2.499 -1.4750  0.0045  0.5013
 5699TIP3    H238657   2.522   4.367   2.446  2.3719 -0.4015  0.8612
 5700TIP3   OH238658   1.206   3.385   1.663  0.3631 -0.2862  0.1069
 5700TIP3    H138659   1.113   3.371   1.643  1.2445 -2.7132 -2.6785
 5700TIP3    H238660   1.219   3.479   1.653 -1.3273 -0.2091 -1.7078
 5701TIP3   OH238661   3.338   3.398   2.503 -0.9629 -0.3925  0.3738
 5701TIP3    H138662   3.258   3.410   2.452 -0.4072 -0.9179 -0.6370
 5701TIP3    H238663   3.324   3.317   2.551 -1.5760  0.2146  1.2347
 5702TIP3   OH238664   2.867   2.929   8.392 -0.1559  0.1130 -0.2594
 5702TIP3    H138665   2.792   2.892   8.347 -1.1462  1.9240 -0.1590
 5702TIP3    H238666   2.943   2.889   8.350 -1.1208 -0.1873 -1.7521
 5703TIP3   OH238667   3.773   3.859   1.272 -0.4055  0.2535 -0.1935
 5703TIP3    H138668   3.841   3.820   1.328  1.2126  1.5393 -1.1910
 5703TIP3    H238669   3.734   3.927   1.327  0.5783  0.9207 -0.2953
 5704TIP3   OH238670   0.596   5.348   0.793 -0.2630  0.9843 -0.3356
 5704TIP3    H138671   0.653   5.311   0.861 -0.7770 -2.7486 -1.8108
 5704TIP3    H238672   0.507   5.323   0.822 -0.4821 -0.6308 -2.3109
 5705TIP3   OH238673   3.196   3.427   1.435 -0.0963  0.7736  0.2845
 5705TIP3    H138674   3.100   3.424   1.437 -0.1946  2.1755 -1.3285
 5705TIP3    H238675   3.220   3.477   1.514 -0.9590  4.3211 -1.5760
 5706TIP3   OH238676   1.278   2.482   8.493 -0.2602  0.5308 -0.2790
 5706TIP3    H138677   1.314   2.472   8.581  1.4486 -0.0787 -1.0230
 5706TIP3    H238678   1.336   2.545   8.451 -1.2908  1.0986 -0.8708
 5707TIP3   OH238679   2.481   3.456   0.821  0.1690  0.4458  0.3791
 5707TIP3    H138680   2.516   3.452   0.910  2.4571 -0.4090 -0.5202
 5707TIP3    H238681   2.483   3.365   0.791  1.1127  0.9730 -1.1720
 5708TIP3   OH238682   4.884   6.652   0.013 -0.4011 -0.0089  0.1881
 5708TIP3    H138683   4.972   6.681   0.036 -0.7927 -0.1082  1.9306
 5708TIP3    H238684   4.848   6.723  -0.040 -0.4708  1.6175  2.3422
 5709TIP3   OH238685   3.607   2.472   7.506  0.2452  0.4905 -0.6336
 5709TIP3    H138686   3.635   2.402   7.565 -2.7436  0.4180  0.7412
 5709TIP3    H238687   3.589   2.547   7.562  0.3435  1.3984 -1.7791
 5710TIP3   OH238688   2.333   5.638   1.923  0.0054  0.2284  0.0284
 5710TIP3    H138689   2.403   5.596   1.873  0.3235 -0.2394  0.8615
 5710TIP3    H238690   2.351   5.732   1.916 -0.1089  0.1750 -0.9641
 5711TIP3   OH238691   2.609   3.708   2.147  0.3741  0.8830  0.1726
 5711TIP3    H138692   2.529   3.759   2.135  1.2711  2.9973  2.7198
 5711TIP3    H238693   2.645   3.738   2.230  2.4563 -1.9252  0.3623
 5712TIP3   OH238694   4.120   6.094   1.882  0.2310  0.1010 -0.4015
 5712TIP3    H138695   4.163   6.095   1.968 -0.1289 -2.0930 -0.1793
 5712TIP3    H238696   4.190   6.076   1.820  0.2507  0.2585 -0.4258
 5713TIP3   OH238697   4.048   3.456   0.574  0.2373 -0.2372  0.3494
 5713TIP3    H138698   4.027   3.542   0.537 -1.6222 -0.2418  1.2929
 5713TIP3    H238699   4.009   3.458   0.662 -0.0047 -2.0970  0.3084
 5714TIP3   OH238700   2.952   4.509   1.085 -0.0908  0.1305 -0.6361
 5714TIP3    H138701   3.027   4.495   1.027 -1.1846  0.4008 -2.1489
 5714TIP3    H238702   2.911   4.423   1.092 -0.5353  0.2975 -1.1050
 5715TIP3   OH238703   3.291   6.084   0.834  0.2222 -0.3158 -0.0686
 5715TIP3    H138704   3.372   6.072   0.883  1.1942  0.0566 -1.5776
 5715TIP3    H238705   3.229   6.024   0.875  1.4697 -1.1519  0.5966
 5716TIP3   OH238706   1.901   6.392   2.064  0.7628  0.3117  0.3083
 5716TIP3    H138707   1.958   6.425   2.133 -0.0409 -0.5561  1.4041
 5716TIP3    H238708   1.823   6.360   2.109  0.5471 -0.9814 -0.9074
 5717TIP3   OH238709   2.557   4.364   8.332 -0.5797  0.2303  0.4943
 5717TIP3    H138710   2.515   4.279   8.322  0.7721 -0.5809  1.4276
 5717TIP3    H238711   2.597   4.382   8.247  0.7330 -0.9748  0.8359
 5718TIP3   OH238712   3.527   4.816   0.076  0.1106 -0.2538  1.0466
 5718TIP3    H138713   3.587   4.888   0.093  0.9767 -0.8217  0.4262
 5718TIP3    H238714   3.461   4.853   0.017  1.9305 -0.5956 -1.2922
 5719TIP3   OH238715   2.343   5.194   0.666  0.2481 -0.0723  0.1171
 5719TIP3    H138716   2.365   5.169   0.577 -0.9660 -0.1016 -0.1814
 5719TIP3    H238717   2.274   5.132   0.693  1.2787 -0.6763  1.4152
 5720TIP3   OH238718   1.752   3.169   0.465  0.1533 -0.4157  0.3550
 5720TIP3    H138719   1.696   3.194   0.538  1.5797  0.6315  1.1032
 5720TIP3    H238720   1.837   3.208   0.484  0.7239 -0.6420 -1.5500
 5721TIP3   OH238721   2.449   4.315   1.379 -0.5359  1.2520  0.1398
 5721TIP3    H138722   2.449   4.396   1.328 -0.6823  1.2084  0.0701
 5721TIP3    H238723   2.374   4.323   1.438 -0.5787  1.1479  0.1001
 5722TIP3   OH238724   2.742   4.854   1.873 -0.4633 -0.0853 -0.1764
 5722TIP3    H138725   2.653   4.865   1.839 -0.3765  1.2776 -0.0111
 5722TIP3    H238726   2.763   4.939   1.913 -0.1733 -1.3171  2.3861
 5723TIP3   OH238727   4.369   2.781   1.935  0.1120 -0.3079 -0.3156
 5723TIP3    H138728   4.278   2.751   1.925  0.7298 -1.9544 -1.2279
 5723TIP3    H238729   4.403   2.729   2.008  1.2913 -2.1928 -2.1237
 5724TIP3   OH238730   2.515   4.068   1.274 -0.6199  0.6343  0.6304
 5724TIP3    H138731   2.474   4.061   1.188  0.8220 -0.9075  0.0487
 5724TIP3    H238732   2.497   4.158   1.302 -3.6530  0.2509  0.0398
 5725TIP3   OH238733   5.602   5.637   0.528  0.2180  0.2288 -0.2579
 5725TIP3    H138734   5.641   5.550   0.537 -0.1726 -0.3930 -3.9081
 5725TIP3    H238735   5.553   5.650   0.609 -0.0307 -3.1013  0.1794
 5726TIP3   OH238736   1.554   2.169   7.856 -0.1109  0.0547  0.3674
 5726TIP3    H138737   1.631   2.122   7.888 -0.2077 -0.6243 -0.3825
 5726TIP3    H238738   1.489   2.100   7.841  0.3714  0.1831 -2.5821
 5727TIP3   OH238739   2.828   5.155   1.709 -0.1090  0.4477 -0.1346
 5727TIP3    H138740   2.838   5.147   1.804 -2.0180 -0.4669  0.0168
 5727TIP3    H238741   2.851   5.068   1.676 -2.4911 -0.1678 -0.2132
 5728TIP3   OH238742   3.241   2.970   0.549  0.5861  0.4811  0.2328
 5728TIP3    H138743   3.245   2.943   0.641  1.0802  0.2778  0.1569
 5728TIP3    H238744   3.226   3.064   0.552 -2.1212  0.0637  0.4921
 5729TIP3   OH238745   1.930   1.480   0.570  0.0116  0.4428 -0.0511
 5729TIP3    H138746   1.897   1.390   0.578  1.8753 -0.3365 -0.8054
 5729TIP3    H238747   1.980   1.494   0.650 -0.2116  0.7730  0.0276
 5730TIP3   OH238748   1.976   5.079   1.145 -0.0766 -0.0429  0.3769
 5730TIP3    H138749   2.007   5.114   1.061 -0.4091 -1.0805 -0.1960
 5730TIP3    H238750   1.982   5.153   1.206  3.2736 -0.1524  0.2507
 5731TIP3   OH238751   1.142   6.662   0.978 -0.2996  0.1240  0.5999
 5731TIP3    H138752   1.093   6.602   1.035 -0.3034 -2.7272 -2.2760
 5731TIP3    H238753   1.172   6.607   0.906  3.8151  2.6220  0.2578
 5732TIP3   OH238754   1.425   3.039   8.440  0.0677 -0.2465  0.0967
 5732TIP3    H138755   1.461   3.128   8.440  3.8029 -1.6690 -0.3809
 5732TIP3    H238756   1.423   3.014   8.532 -0.2644  0.0444  0.1704
 5733TIP3   OH238757   1.861   4.839   1.033  0.2725 -0.1864  0.2931
 5733TIP3    H138758   1.823   4.809   1.115 -1.9458  2.9470  0.4944
 5733TIP3    H238759   1.896   4.925   1.053  0.3630  0.3000 -1.8703
 5734TIP3   OH238760   3.769   6.307   1.064  0.5765  0.0104 -0.4475
 5734TIP3    H138761   3.700   6.351   1.014  0.0821  1.2143  1.2680
 5734TIP3    H238762   3.851   6.333   1.020  0.0494 -0.4328 -1.7321
 5735TIP3   OH238763   2.736   0.134   8.338 -0.2548  0.0086 -0.0961
 5735TIP3    H138764   2.670   0.183   8.289 -0.5350 -0.1045  0.1688
 5735TIP3    H238765   2.701   0.127   8.426 -0.3627 -0.9458 -0.2093
 5736TIP3   OH238766   2.065   4.101   0.793  0.1184 -0.0980  0.2019
 5736TIP3    H138767   1.992   4.041   0.809 -0.8179  0.8703 -0.4082
 5736TIP3    H238768   2.143   4.048   0.811 -0.6984 -1.4314 -0.0764
 5737TIP3   OH238769   2.796   5.232   1.053 -0.0241  0.1687  0.1816
 5737TIP3    H138770   2.756   5.184   1.125  0.4225 -0.2439  0.1639
 5737TIP3    H238771   2.792   5.324   1.079  1.2778 -0.0741  1.3282
 5738TIP3   OH238772   0.147   4.697   0.794  0.0146 -0.3147  0.4641
 5738TIP3    H138773   0.232   4.708   0.752 -0.2655 -1.3872 -0.3953
 5738TIP3    H238774   0.150   4.609   0.833 -0.2081  0.1598  1.5955
 5739TIP3   OH238775   4.027   6.484   1.250  0.6060  0.1831 -0.3367
 5739TIP3    H138776   4.048   6.399   1.290  0.7950  0.3922  0.0144
 5739TIP3    H238777   3.965   6.463   1.181  1.7001 -0.4043 -1.1489
 5740TIP3   OH238778   7.179   5.971   0.641 -0.0497 -0.1658 -0.1269
 5740TIP3    H138779   7.125   5.939   0.713  0.4917 -0.6797  0.0549
 5740TIP3    H238780   7.195   6.063   0.662 -0.1045 -0.2489  0.2798
 5741TIP3   OH238781   2.637   4.067   1.686 -0.4394 -0.0493  0.3913
 5741TIP3    H138782   2.659   4.026   1.603  1.4560  0.1533  0.7787
 5741TIP3    H238783   2.624   3.994   1.747 -2.2656 -0.2145 -0.1588
 5742TIP3   OH238784   1.190   3.868   0.093  0.3717  0.6444  0.1925
 5742TIP3    H138785   1.247   3.853   0.018 -0.4821  1.9207 -0.7266
 5742TIP3    H238786   1.101   3.870   0.056 -0.1033  0.6928  1.3150
 5743TIP3   OH238787   5.772   6.722   0.508 -0.2875 -0.4115 -0.6263
 5743TIP3    H138788   5.684   6.758   0.518 -0.6086 -1.1946 -0.5366
 5743TIP3    H238789   5.784   6.667   0.586  0.5988  0.3345 -0.2289
 5744TIP3   OH238790   4.427   2.924   1.317 -0.7089  0.0903 -0.4736
 5744TIP3    H138791   4.350   2.978   1.299 -0.4828  0.5828  0.0096
 5744TIP3    H238792   4.392   2.840   1.345 -1.0730  0.4264  0.0753
 5745TIP3   OH238793   3.063   4.546   1.668 -0.1122 -0.1976  0.3192
 5745TIP3    H138794   3.110   4.629   1.661 -0.4280 -0.0909 -0.6360
 5745TIP3    H238795   3.060   4.527   1.762  0.8045  0.3848  0.4692
 5746TIP3   OH238796   4.253   4.961   1.153 -0.0881  0.4950  0.0921
 5746TIP3    H138797   4.300   5.015   1.090  1.1459 -0.7128 -0.0581
 5746TIP3    H238798   4.231   4.882   1.105  1.4229 -0.7134  1.3147
 5747TIP3   OH238799   3.902   4.628   0.931  0.7278 -0.0064 -0.5529
 5747TIP3    H138800   3.931   4.574   0.857  5.0645 -1.4513  2.0161
 5747TIP3    H238801   3.842   4.572   0.979 -0.7634  0.3138 -2.0034
 5748TIP3   OH238802   3.097   3.491   7.575  0.6025  0.0293 -0.1985
 5748TIP3    H138803   3.071   3.502   7.666 -0.0809 -0.7996 -0.2853
 5748TIP3    H238804   3.128   3.401   7.568 -0.6958 -0.3828 -1.0769
 5749TIP3   OH238805   6.542   4.168   2.204 -0.0023 -0.1073  0.3703
 5749TIP3    H138806   6.633   4.194   2.214 -0.0812  0.9751 -1.5491
 5749TIP3    H238807   6.536   4.083   2.247  1.6932  0.1987  1.2527
 5750TIP3   OH238808   6.282   5.385   1.168 -0.2355 -0.4204 -0.1482
 5750TIP3    H138809   6.215   5.347   1.111  0.8164 -1.7031 -0.5789
 5750TIP3    H238810   6.314   5.310   1.219  1.8887 -0.1194 -1.0055
 5751TIP3   OH238811   2.519   3.734   8.243  0.6203  0.4867 -0.4018
 5751TIP3    H138812   2.445   3.789   8.267  0.8234  0.6012 -0.0329
 5751TIP3    H238813   2.520   3.665   8.309 -0.9614 -1.2201 -2.1138
 5752TIP3   OH238814   3.171   4.229   7.939  0.6555  0.2034 -0.1871
 5752TIP3    H138815   3.260   4.230   7.974  0.1201 -0.8051  1.2188
 5752TIP3    H238816   3.131   4.150   7.975 -0.5685  0.2166 -1.4519
 5753TIP3   OH238817   3.335   2.857   0.106  0.4715 -0.0303  0.3537
 5753TIP3    H138818   3.403   2.789   0.107 -0.7340 -1.2821 -0.1340
 5753TIP3    H238819   3.336   2.894   0.194  2.2591  0.4493  0.1319
 5754TIP3   OH238820   3.566   5.549   1.109  0.8021  0.2054  0.2026
 5754TIP3    H138821   3.551   5.455   1.120 -1.6192  0.4925 -0.3830
 5754TIP3    H238822   3.662   5.559   1.110  1.0546 -2.0342  1.9947
 5755TIP3   OH238823   5.051   5.592   0.736 -0.2897 -0.1141 -0.6026
 5755TIP3    H138824   5.125   5.557   0.686  0.9075  1.9248 -0.2725
 5755TIP3    H238825   5.077   5.583   0.828 -0.2221  1.1162 -0.5005
 5756TIP3   OH238826   3.897   3.358   2.176 -0.3063 -0.1247  0.3294
 5756TIP3    H138827   3.980   3.404   2.187 -0.7681  0.3950  1.6683
 5756TIP3    H238828   3.922   3.267   2.157  0.5615 -0.0485  1.1014
 5757TIP3   OH238829   4.055   5.741   8.425  0.0577 -0.5776  0.2979
 5757TIP3    H138830   4.137   5.717   8.381 -0.2864 -0.9396 -0.1452
 5757TIP3    H238831   4.026   5.661   8.467 -1.0815 -0.9474 -1.1621
 5758TIP3   OH238832   4.812   5.175   1.598 -0.2429 -0.1052  0.6378
 5758TIP3    H138833   4.824   5.093   1.646  0.8275  0.1988  0.8920
 5758TIP3    H238834   4.744   5.155   1.534  0.1344 -1.2448  0.5760
 5759TIP3   OH238835   3.483   5.393   7.924 -0.1195  0.2731 -0.0989
 5759TIP3    H138836   3.568   5.415   7.962 -1.0505  2.9258  0.5631
 5759TIP3    H238837   3.455   5.315   7.972  1.5175 -0.0695  0.3279
 5760TIP3   OH238838   5.434   4.401   1.568  0.1407 -0.0140 -0.5311
 5760TIP3    H138839   5.356   4.402   1.624  0.7567 -0.0193  0.3290
 5760TIP3    H238840   5.412   4.459   1.495 -1.5948 -1.8813 -1.5384
 5761TIP3   OH238841   2.304   2.018   0.861 -0.2120 -0.7349 -0.1060
 5761TIP3    H138842   2.290   1.988   0.771 -1.5882  0.6338 -0.3674
 5761TIP3    H238843   2.359   2.096   0.851  0.8804 -1.4352  0.3582
 5762TIP3   OH238844   2.515   5.066   7.581 -0.5473  0.2373  0.1838
 5762TIP3    H138845   2.433   5.017   7.592 -1.4713  0.8970 -3.1885
 5762TIP3    H238846   2.571   5.007   7.532 -1.2369  1.9895 -2.8562
 5763TIP3   OH238847   1.139   5.439   0.920 -0.1523 -0.3670 -0.3808
 5763TIP3    H138848   1.083   5.508   0.955  0.1664 -0.3156  0.0310
 5763TIP3    H238849   1.079   5.378   0.877 -0.9672 -2.3810  3.4576
 5764TIP3   OH238850   5.286   5.119   1.274  0.0306  0.0228 -0.5735
 5764TIP3    H138851   5.232   5.117   1.353 -2.0739  1.5260 -1.9417
 5764TIP3    H238852   5.355   5.054   1.291 -1.4289 -0.9934  1.7275
 5765TIP3   OH238853   5.124   4.403   1.571 -0.3620  0.0510  0.0689
 5765TIP3    H138854   5.108   4.320   1.615 -0.0327  0.6077  1.2682
 5765TIP3    H238855   5.178   4.380   1.495 -0.8112 -0.9045  0.0341
 5766TIP3   OH238856   6.633   5.154   0.992 -0.0072 -0.3757 -0.2476
 5766TIP3    H138857   6.727   5.140   1.002 -0.0817 -0.4505  0.3567
 5766TIP3    H238858   6.615   5.129   0.901  0.7301  0.5962 -0.6723
 5767TIP3   OH238859   6.338   5.680   1.393 -0.4855 -0.0827 -0.2703
 5767TIP3    H138860   6.251   5.676   1.434 -0.3070 -0.8256  0.0576
 5767TIP3    H238861   6.356   5.773   1.383 -0.4210  0.1391  1.6265
 5768TIP3   OH238862   3.120   5.667   8.224  0.2633  0.1262  0.1086
 5768TIP3    H138863   3.163   5.753   8.229 -0.3783  0.4993 -0.7876
 5768TIP3    H238864   3.191   5.606   8.206  0.5453  0.6340 -0.5311
 5769TIP3   OH238865   5.252   4.442   1.323 -0.1963 -0.2165 -0.1852
 5769TIP3    H138866   5.336   4.487   1.322 -0.2934 -0.0284 -0.0397
 5769TIP3    H238867   5.237   4.417   1.232  0.6338 -1.4102  0.0021
 5770TIP3   OH238868   5.410   5.242   8.356  0.4858 -0.3496  0.4778
 5770TIP3    H138869   5.448   5.272   8.439 -2.0338  0.3931  1.4353
 5770TIP3    H238870   5.435   5.309   8.292  0.8197  0.1080  1.0814
 5771TIP3   OH238871   0.142   0.651   7.712  0.2230 -0.3871  0.4645
 5771TIP3    H138872   0.169   0.739   7.739  2.6817 -0.9417 -0.0332
 5771TIP3    H238873   0.105   0.612   7.790  1.0519  0.3730  1.2545
 5772TIP3   OH238874   6.160   0.697   0.530 -0.3157  0.0869  0.6004
 5772TIP3    H138875   6.126   0.617   0.572 -0.4435 -0.7349 -1.0221
 5772TIP3    H238876   6.110   0.704   0.448  1.3814  0.4879 -0.4314
 5773TIP3   OH238877   5.258   6.106   2.139 -0.0325 -0.3338  0.3190
 5773TIP3    H138878   5.263   6.167   2.213  1.5623 -0.4946  0.3613
 5773TIP3    H238879   5.194   6.041   2.166 -1.8963  1.3972  0.2057
 5774TIP3   OH238880   4.511   5.167   0.256 -0.0561  0.0248 -0.2656
 5774TIP3    H138881   4.474   5.205   0.335 -0.1509  0.0312 -0.3117
 5774TIP3    H238882   4.538   5.242   0.203  1.7444 -0.0190  0.5710
 5775TIP3   OH238883   4.344   6.409   1.369 -0.0795  0.1924  0.1092
 5775TIP3    H138884   4.391   6.455   1.438  0.2774 -1.1295  0.7672
 5775TIP3    H238885   4.345   6.469   1.294  0.1671  1.3277  1.0198
 5776TIP3   OH238886   3.794   3.040   1.062  0.1970  0.0310 -0.4782
 5776TIP3    H138887   3.749   3.012   1.141  1.0268 -1.0230 -0.3727
 5776TIP3    H238888   3.737   3.107   1.024 -1.2745 -1.0347 -0.1742
 5777TIP3   OH238889   4.884   6.014   1.588  0.0478 -0.0320  0.6442
 5777TIP3    H138890   4.955   6.006   1.652 -1.0158  0.8013  1.9338
 5777TIP3    H238891   4.880   5.927   1.548  0.9815 -0.4552  1.4183
 5778TIP3   OH238892   4.432   5.814   2.416 -0.3189 -0.7013  0.2304
 5778TIP3    H138893   4.373   5.852   2.481  0.9836  1.6507  0.1017
 5778TIP3    H238894   4.504   5.877   2.409  1.0238 -2.3408 -1.3590
 5779TIP3   OH238895   5.686   3.750   1.597  0.4806  0.4090  0.0699
 5779TIP3    H138896   5.658   3.675   1.649 -0.5384  1.2199  0.7184
 5779TIP3    H238897   5.780   3.736   1.584 -0.0214 -1.8340 -1.2993
 5780TIP3   OH238898   4.799   5.654   1.899 -0.2030 -0.0427 -0.5004
 5780TIP3    H138899   4.852   5.586   1.941  0.0335 -0.4991 -1.5184
 5780TIP3    H238900   4.830   5.735   1.937 -1.0133 -0.5599  1.2940
 5781TIP3   OH238901   6.150   6.539   2.153  0.3486 -0.4490 -0.0569
 5781TIP3    H138902   6.185   6.503   2.235 -1.0355 -2.0018 -0.1126
 5781TIP3    H238903   6.213   6.512   2.086  0.8390 -0.2562  0.3248
 5782TIP3   OH238904   5.021   5.242   1.951 -0.1854  0.0423  0.1837
 5782TIP3    H138905   4.999   5.149   1.955  0.5489 -0.0823  1.9434
 5782TIP3    H238906   5.113   5.244   1.924  0.0764  0.1948  1.0486
 5783TIP3   OH238907   2.705   4.897   0.892 -0.2162  0.2291  0.2149
 5783TIP3    H138908   2.728   4.886   0.984 -1.0494  0.9411  0.5149
 5783TIP3    H238909   2.683   4.990   0.883  0.4596  0.2942 -0.8357
 5784TIP3   OH238910   4.471   3.518   1.151 -0.0292 -0.2046 -0.0099
 5784TIP3    H138911   4.547   3.467   1.126  0.9088  2.1940 -2.3433
 5784TIP3    H238912   4.396   3.464   1.127  0.9450 -0.8914 -1.5602
 5785TIP3   OH238913   6.348   7.134   0.042  0.5171  0.0740  0.0214
 5785TIP3    H138914   6.299   7.080   0.104  0.7927  3.2843  3.1719
 5785TIP3    H238915   6.408   7.073  -0.001  0.5846 -2.2199  3.2097
 5786TIP3   OH238916   5.860   5.796   0.319 -0.1285 -0.1643  0.0483
 5786TIP3    H138917   5.833   5.732   0.384 -0.6022  1.7933  1.8315
 5786TIP3    H238918   5.784   5.804   0.261 -1.2377  1.0126  1.6209
 5787TIP3   OH238919   3.847   0.398   7.664 -0.4657 -0.4307 -0.5672
 5787TIP3    H138920   3.824   0.350   7.745 -2.7218  1.2188 -0.1933
 5787TIP3    H238921   3.767   0.396   7.612 -0.2203  1.8797 -1.0676
 5788TIP3   OH238922   6.248   6.273   1.793 -0.6274  0.6346 -0.1226
 5788TIP3    H138923   6.341   6.284   1.772  0.2910 -3.8354  1.2919
 5788TIP3    H238924   6.235   6.325   1.872  1.0449  0.1048  0.5203
 5789TIP3   OH238925   4.283   4.375   1.803 -0.2455  0.5660  0.3019
 5789TIP3    H138926   4.259   4.445   1.864  1.7932  1.1748  0.4703
 5789TIP3    H238927   4.248   4.404   1.719 -1.1825  0.7988  0.7697
 5790TIP3   OH238928   3.029   4.372   2.291  0.1029  0.4725 -0.4026
 5790TIP3    H138929   3.055   4.294   2.341  1.7263  0.6257 -0.9775
 5790TIP3    H238930   3.080   4.366   2.210 -1.3412  1.0429 -1.3857
 5791TIP3   OH238931   3.214   0.025   0.249  0.4894 -0.1056 -0.2680
 5791TIP3    H138932   3.304   0.040   0.222  0.5783 -0.4219 -0.1494
 5791TIP3    H238933   3.221  -0.015   0.336  0.2246  0.2347 -0.0890
 5792TIP3   OH238934   4.319   5.337   7.524 -0.9071  0.1538 -0.2433
 5792TIP3    H138935   4.412   5.339   7.546 -0.9617 -3.4673  0.6968
 5792TIP3    H238936   4.287   5.424   7.546  1.9931  1.0709  0.5617
 5793TIP3   OH238937   4.050   5.265   1.276  0.8571 -0.0825 -0.0993
 5793TIP3    H138938   4.065   5.259   1.182 -2.3469 -1.1471 -0.5856
 5793TIP3    H238939   4.056   5.175   1.308  2.6796  0.3504  0.8977
 5794TIP3   OH238940   5.401   3.821   2.252 -0.2571  0.3546  0.2473
 5794TIP3    H138941   5.373   3.739   2.212 -0.1920  0.0749  0.7809
 5794TIP3    H238942   5.372   3.889   2.190 -0.6437 -0.0439 -0.0079
 5795TIP3   OH238943   2.738   5.119   1.300  0.3559 -0.0691  0.3165
 5795TIP3    H138944   2.728   5.155   1.388  0.2898 -0.5872  0.5204
 5795TIP3    H238945   2.652   5.082   1.279  0.5981 -0.6629  0.3551
 5796TIP3   OH238946   4.732   4.296   1.767 -0.0967  0.3787  0.1853
 5796TIP3    H138947   4.753   4.378   1.811  2.0477  0.1522 -0.3850
 5796TIP3    H238948   4.746   4.229   1.834 -1.1787  0.3946  0.4448
 5797TIP3   OH238949   4.694   3.509   1.485 -0.1768 -0.0911  0.1260
 5797TIP3    H138950   4.755   3.551   1.545  0.0400  0.0007 -0.1568
 5797TIP3    H238951   4.749   3.476   1.414 -0.6530  1.7699 -1.1457
 5798TIP3   OH238952   2.974   4.873   7.242 -0.0179 -0.0287 -0.2805
 5798TIP3    H138953   2.996   4.893   7.334 -3.7703 -0.8945  0.8854
 5798TIP3    H238954   3.055   4.837   7.206  0.9161 -1.9636  3.4045
 5799TIP3   OH238955   0.282   6.239   0.595  0.3958  0.2533  0.8905
 5799TIP3    H138956   0.374   6.253   0.617  1.0382 -0.6693 -1.0625
 5799TIP3    H238957   0.239   6.323   0.612  1.8255  1.0349  0.6663
 5800TIP3   OH238958   4.432   5.069   0.606 -0.5664 -0.4927 -0.2668
 5800TIP3    H138959   4.388   5.041   0.526 -1.3807 -0.8293  0.3014
 5800TIP3    H238960   4.513   5.017   0.608 -0.4426 -0.3349 -0.9697
 5801TIP3   OH238961   2.749   4.443   0.543  0.1842  0.4377 -0.1914
 5801TIP3    H138962   2.746   4.369   0.604 -0.9731  0.4055 -0.2776
 5801TIP3    H238963   2.796   4.410   0.467  0.6813  0.1395  0.2471
 5802TIP3   OH238964   6.559   5.562   7.197  1.2040 -0.3933 -0.0458
 5802TIP3    H138965   6.600   5.490   7.246 -1.4636 -1.9692 -0.0309
 5802TIP3    H238966   6.493   5.520   7.142  0.8723  1.8682 -1.4677
 5803TIP3   OH238967   5.501   6.021   0.265 -0.4559  0.1754  0.1904
 5803TIP3    H138968   5.471   6.108   0.239  0.5445  0.3397 -0.4071
 5803TIP3    H238969   5.443   5.997   0.338 -1.3455  0.9375 -0.2581
 5804TIP3   OH238970   5.713   3.302   1.917 -0.5795 -0.2269  0.4400
 5804TIP3    H138971   5.710   3.212   1.948 -0.5650 -0.0436  0.9852
 5804TIP3    H238972   5.644   3.346   1.968 -1.9534 -0.3708 -1.2390
 5805TIP3   OH238973   3.806   3.771   1.925 -0.6154  0.2198  0.0975
 5805TIP3    H138974   3.867   3.799   1.993 -1.1572 -0.2710  0.7926
 5805TIP3    H238975   3.773   3.686   1.956 -0.7575 -0.0771 -0.8428
 5806TIP3   OH238976   4.804   4.717   1.130  0.1000 -0.0693 -0.6771
 5806TIP3    H138977   4.858   4.660   1.185 -0.2709  0.6151  0.4064
 5806TIP3    H238978   4.857   4.730   1.051  2.4317  2.1381  1.1468
 5807TIP3   OH238979   3.300   5.258   8.111 -0.6136  0.9847 -0.1699
 5807TIP3    H138980   3.223   5.210   8.080 -0.7627  0.2224  1.3196
 5807TIP3    H238981   3.264   5.336   8.153 -0.5231  1.0165 -0.1523
 5808TIP3   OH238982   2.049   5.386   1.666 -0.3483  0.0632  0.3157
 5808TIP3    H138983   2.085   5.407   1.752 -3.1319  1.3117  1.2106
 5808TIP3    H238984   1.968   5.338   1.684 -1.8695  1.8395 -1.5322
 5809TIP3   OH238985   3.972   4.202   7.685  0.1447  0.4527  0.0778
 5809TIP3    H138986   3.895   4.167   7.639  0.5251 -2.1638  1.3029
 5809TIP3    H238987   3.999   4.277   7.633 -0.9791 -0.8708 -2.5145
 5810TIP3   OH238988   4.000   3.587   1.690  0.3033  0.7434 -0.3842
 5810TIP3    H138989   4.027   3.519   1.752 -0.4087  0.4586 -0.3912
 5810TIP3    H238990   3.945   3.646   1.741 -0.0098  0.6943 -0.6675
 5811TIP3   OH238991   5.524   4.069   1.979 -0.2021 -0.2429 -0.5872
 5811TIP3    H138992   5.443   4.066   2.028  1.0274  1.5092  1.6505
 5811TIP3    H238993   5.557   3.979   1.980 -0.5092 -0.3453  1.3080
 5812TIP3   OH238994   1.535   3.345   7.357 -0.1874 -0.2389 -0.3851
 5812TIP3    H138995   1.576   3.355   7.271 -0.9649  1.0437 -0.6289
 5812TIP3    H238996   1.441   3.355   7.340 -0.1940  2.3327  0.9016
 5813TIP3   OH238997   6.228   6.101   0.771 -0.5380 -0.0381  0.4651
 5813TIP3    H138998   6.323   6.108   0.766 -0.6339  0.4654 -1.1479
 5813TIP3    H238999   6.199   6.187   0.803 -0.6093  0.8519 -1.9016
 5814TIP3   OH239000   4.550   4.198   1.594  0.4801 -0.2131 -0.0064
 5814TIP3    H139001   4.519   4.126   1.650  1.4209 -0.3580  0.3393
 5814TIP3    H239002   4.626   4.233   1.640  0.2613  0.7585 -0.3751
 5815TIP3   OH239003   2.851   3.992   8.191 -0.2822 -0.2159 -0.6307
 5815TIP3    H139004   2.836   3.901   8.166 -0.5285  0.7676 -4.3277
 5815TIP3    H239005   2.775   4.039   8.157 -0.5570  1.3124  1.9266
 5816TIP3   OH239006   2.791   4.510   2.226  0.3489 -0.0592  0.3439
 5816TIP3    H139007   2.862   4.457   2.262  1.9531  0.4673 -1.9362
 5816TIP3    H239008   2.823   4.600   2.232 -0.0243  0.1641 -0.9357
 5817TIP3   OH239009   5.079   3.503   2.176  0.4123 -0.4639 -0.4585
 5817TIP3    H139010   5.159   3.476   2.131 -0.0139 -0.2330 -1.3804
 5817TIP3    H239011   5.088   3.469   2.265  1.3577 -0.7700 -0.6680
 5818TIP3   OH239012   3.235   5.989   2.120 -1.0737  0.2366  0.1306
 5818TIP3    H139013   3.179   5.912   2.134 -2.5622  1.6453  2.2333
 5818TIP3    H239014   3.320   5.964   2.158 -1.2833 -0.7020 -0.0119
 5819TIP3   OH239015   4.728   4.813   1.864  0.3535 -0.2286  0.2939
 5819TIP3    H139016   4.811   4.768   1.882 -0.3291 -0.1049  4.2977
 5819TIP3    H239017   4.732   4.892   1.917 -2.0513  0.0892  0.0365
 5820TIP3   OH239018   3.641   4.456   0.026  0.4678  0.4199 -0.2867
 5820TIP3    H139019   3.701   4.529   0.010 -0.0175  0.3335 -2.6996
 5820TIP3    H239020   3.698   4.385   0.055  1.0921  1.3917  0.8959
 5821TIP3   OH239021   3.798   5.723   8.355 -0.2392  0.1328 -0.0925
 5821TIP3    H139022   3.892   5.708   8.359 -0.5345 -1.4390  1.5528
 5821TIP3    H239023   3.783   5.800   8.411 -0.2428 -1.3557  2.0213
 5822TIP3   OH239024   6.911   6.339   0.980  0.1732 -0.1308  0.0711
 5822TIP3    H139025   6.868   6.331   1.065  0.2369 -0.4955  0.0717
 5822TIP3    H239026   7.004   6.337   1.000  0.2487 -3.3460 -0.2394
 5823TIP3   OH239027   4.889   5.538   0.501  0.1456 -0.3046  0.2366
 5823TIP3    H139028   4.931   5.479   0.563 -1.3439  0.3355  1.9192
 5823TIP3    H239029   4.908   5.626   0.534 -1.1973  0.0314  0.1696
 5824TIP3   OH239030   4.128   2.902   1.304 -0.5301 -0.0460 -0.0667
 5824TIP3    H139031   4.162   2.906   1.214  1.3053 -1.0371  0.5468
 5824TIP3    H239032   4.084   2.818   1.309  0.0819 -0.3536  0.1943
 5825TIP3   OH239033   1.934   2.945   0.364  1.1077 -0.2927  0.5365
 5825TIP3    H139034   1.896   2.996   0.435 -0.8621 -1.3063  0.2324
 5825TIP3    H239035   1.983   2.875   0.408 -0.2601 -1.0255  0.9203
 5826TIP3   OH239036   5.199   6.073   0.060 -0.9304 -0.2427 -0.2160
 5826TIP3    H139037   5.245   6.150   0.027 -1.1964  0.3911  0.8553
 5826TIP3    H239038   5.237   5.999   0.012  1.5995  0.2072  1.0179
 5827TIP3   OH239039   2.111   4.812   1.280 -0.3055  0.0495 -0.7565
 5827TIP3    H139040   2.114   4.717   1.294 -0.8940  0.1392  0.0027
 5827TIP3    H239041   2.160   4.826   1.199  0.4730 -0.8183 -0.4377
 5828TIP3   OH239042   4.060   4.576   1.690 -0.3154  0.1199 -0.8442
 5828TIP3    H139043   4.123   4.648   1.695 -2.2274  1.7344  0.3340
 5828TIP3    H239044   4.086   4.528   1.611  2.1972  0.9107 -0.5574
 5829TIP3   OH239045   3.774   4.675   0.091 -0.0465 -0.3612 -0.5145
 5829TIP3    H139046   3.802   4.662   0.182 -1.2631 -1.0644 -0.2226
 5829TIP3    H239047   3.718   4.753   0.095 -0.5914 -0.7466 -0.5444
 5830TIP3   OH239048   6.085   6.422   0.432  0.2877 -0.0033 -0.1626
 5830TIP3    H139049   6.065   6.474   0.354  0.9287 -0.5009 -0.6650
 5830TIP3    H239050   6.055   6.334   0.410  1.3150 -0.3504 -0.2199
 5831TIP3   OH239051   6.279   5.560   1.673 -0.0248  0.1742 -0.0137
 5831TIP3    H139052   6.355   5.589   1.623 -0.8429  0.2670 -1.2227
 5831TIP3    H239053   6.263   5.471   1.644  0.0097 -0.0694  0.7098
 5832TIP3   OH239054   3.826   3.929   7.782 -0.1890  0.2883 -0.1563
 5832TIP3    H139055   3.905   3.968   7.744 -0.5772  0.9699 -0.2582
 5832TIP3    H239056   3.771   4.003   7.806  0.6531 -0.0558  3.0551
 5833TIP3   OH239057   3.370   4.392   2.334 -0.3326  0.1894  0.8076
 5833TIP3    H139058   3.449   4.344   2.313  0.9092  1.6128  2.0954
 5833TIP3    H239059   3.321   4.335   2.392 -0.2613 -0.6978  0.0016
 5834TIP3   OH239060   3.090   5.066   8.014 -1.1540 -0.7303  0.3389
 5834TIP3    H139061   3.117   5.053   7.923  1.2057 -1.9086  1.1654
 5834TIP3    H239062   3.060   4.980   8.042 -1.4193 -0.4790  0.8227
 5835TIP3   OH239063   4.883   4.409   7.839  0.3798 -0.0715  0.0262
 5835TIP3    H139064   4.844   4.377   7.920 -0.1178  0.4993  0.0204
 5835TIP3    H239065   4.847   4.352   7.770 -0.3449  0.3651  0.0370
 5836TIP3   OH239066   4.389   5.542   2.382  0.6772  0.7579  0.9986
 5836TIP3    H139067   4.311   5.507   2.424 -0.7701  0.9754 -1.4290
 5836TIP3    H239068   4.377   5.637   2.383  0.3371  0.7510 -0.3546
 5837TIP3   OH239069   4.409   6.612   1.556 -0.3355 -0.5111  0.2129
 5837TIP3    H139070   4.444   6.631   1.643  0.2660  1.4415 -0.4485
 5837TIP3    H239071   4.351   6.685   1.537 -0.0127 -0.6371 -1.2890
 5838TIP3   OH239072   3.152   6.805   1.039  0.1677 -0.8144  0.4021
 5838TIP3    H139073   3.116   6.886   1.076 -0.1722 -0.4764 -0.6432
 5838TIP3    H239074   3.086   6.775   0.977 -0.4049 -2.7622  1.9117
 5839TIP3   OH239075   6.129   6.459   7.778  0.4897  0.4395  0.0544
 5839TIP3    H139076   6.138   6.505   7.862  0.7013  0.7295 -0.1289
 5839TIP3    H239077   6.178   6.512   7.716  2.0734 -0.8525  0.1633
 5840TIP3   OH239078   3.596   5.310   0.899 -0.3582  0.0549 -0.2145
 5840TIP3    H139079   3.650   5.289   0.823  0.1025 -1.6228  0.5649
 5840TIP3    H239080   3.568   5.400   0.884 -0.2507 -0.2505 -2.3632
 5841TIP3   OH239081   4.365   6.098   1.733 -0.3174 -0.0368 -0.5485
 5841TIP3    H139082   4.340   6.182   1.694 -0.0310 -0.5711 -1.9124
 5841TIP3    H239083   4.461   6.099   1.733 -0.3196  0.0252  0.2900
 5842TIP3   OH239084   6.724   5.796   7.623  0.1605  0.0783  0.5150
 5842TIP3    H139085   6.820   5.798   7.616  0.0168 -0.0048 -1.6547
 5842TIP3    H239086   6.702   5.874   7.674  1.3446  0.3192  0.6696
 5843TIP3   OH239087   4.702   1.082   1.860 -0.0766 -0.1275 -0.5666
 5843TIP3    H139088   4.784   1.069   1.908  0.0000 -2.4097 -1.2433
 5843TIP3    H239089   4.728   1.120   1.777  0.8946 -4.8164 -2.6027
 5844TIP3   OH239090   1.066   0.249   0.361 -0.3131  0.1112  0.1539
 5844TIP3    H139091   1.132   0.264   0.293 -1.7558 -1.1003 -1.5574
 5844TIP3    H239092   0.988   0.296   0.330 -0.5045  0.9162  1.7918
 5845TIP3   OH239093   4.855   6.416   1.543 -0.0969  0.3776  0.2419
 5845TIP3    H139094   4.925   6.385   1.486 -0.2549  0.3747  0.0505
 5845TIP3    H239095   4.837   6.505   1.512 -0.8905  0.0127 -0.3838
 5846TIP3   OH239096   5.945   5.564   7.315  0.1102  0.1672  0.4774
 5846TIP3    H139097   5.892   5.507   7.259  1.1254  1.0241 -1.4123
 5846TIP3    H239098   5.982   5.506   7.381  0.3808 -1.2351 -0.8670
 5847TIP3   OH239099   5.947   6.148   1.954 -0.3742 -0.5252  0.3790
 5847TIP3    H139100   6.004   6.188   2.019  0.3682  2.2847 -1.9053
 5847TIP3    H239101   6.001   6.142   1.875 -1.5546 -2.9729 -0.2917
 5848TIP3   OH239102   3.812   4.337   2.307  0.5657 -0.3069 -0.2648
 5848TIP3    H139103   3.857   4.352   2.390 -0.3682 -0.0285  0.2002
 5848TIP3    H239104   3.876   4.292   2.253  1.6253  0.6428  0.1636
 5849TIP3   OH239105   3.503   4.559   1.641  0.4943  0.5074 -0.1621
 5849TIP3    H139106   3.467   4.640   1.677 -0.6369  0.1783 -0.5262
 5849TIP3    H239107   3.591   4.583   1.612 -0.2882  1.9611 -1.4801
 5850TIP3   OH239108   3.725   6.489   1.563  0.4855  0.1976 -0.7322
 5850TIP3    H139109   3.658   6.457   1.625  1.2030  0.7503  0.3438
 5850TIP3    H239110   3.716   6.432   1.487  0.1412 -1.0405  0.2175
 5851TIP3   OH239111   2.606   0.667   0.257 -0.3094 -0.0664 -0.0619
 5851TIP3    H139112   2.559   0.745   0.230 -0.6883 -0.0856  0.5394
 5851TIP3    H239113   2.576   0.599   0.197  0.3741  0.3487 -0.8871
 5852TIP3   OH239114   4.265   4.131   2.391  0.4969  0.0903  0.2059
 5852TIP3    H139115   4.299   4.065   2.451 -0.2413 -0.0178  0.5040
 5852TIP3    H239116   4.191   4.089   2.348 -0.0940  0.7749  0.5294
 5853TIP3   OH239117   6.197   6.584   0.942 -0.4846  0.3704  0.3396
 5853TIP3    H139118   6.248   6.653   0.984 -0.9662 -0.2101  1.9063
 5853TIP3    H239119   6.119   6.628   0.908  0.1205  0.9179 -0.3628
 5854TIP3   OH239120   5.784   5.302   1.402  0.3214  0.0032  0.5379
 5854TIP3    H139121   5.853   5.363   1.429 -0.9350  1.2923  0.8851
 5854TIP3    H239122   5.766   5.251   1.481  1.8708 -1.3594  0.0593
 5855TIP3   OH239123   2.581   2.933   1.479 -0.1763 -0.1574  0.2307
 5855TIP3    H139124   2.578   3.019   1.438  2.1943  0.9813  2.3263
 5855TIP3    H239125   2.575   2.950   1.573 -1.0809 -2.3981  0.6197
 5856TIP3   OH239126   5.482   4.047   1.589 -0.1169  0.0262  0.2748
 5856TIP3    H139127   5.434   4.002   1.658  0.4458  1.4606  1.6222
 5856TIP3    H239128   5.454   4.138   1.595 -0.6312  0.0546 -1.8963
 5857TIP3   OH239129   4.061   7.172   1.058 -0.2307  0.7056  0.5815
 5857TIP3    H139130   4.036   7.256   1.017  1.0198  1.0100  0.4174
 5857TIP3    H239131   3.997   7.159   1.127  0.1276  2.2871  1.2267
 5858TIP3   OH239132   3.134   4.466   7.474  0.1521 -0.4396  0.0789
 5858TIP3    H139133   3.048   4.458   7.434 -0.6712 -0.0533  1.7762
 5858TIP3    H239134   3.120   4.451   7.567  1.8505  0.0559  0.4421
 5859TIP3   OH239135   4.087   5.541   0.855  0.2437 -0.1172 -0.0052
 5859TIP3    H139136   4.058   5.531   0.764  0.6305 -0.1063 -0.1298
 5859TIP3    H239137   4.181   5.524   0.852  0.4458  0.9572  0.2223
 5860TIP3   OH239138   5.546   5.023   1.914  0.5143  0.0335 -0.1719
 5860TIP3    H139139   5.464   5.030   1.961 -0.6664  0.9424 -2.3033
 5860TIP3    H239140   5.556   4.929   1.897 -1.0346  0.0941 -1.5106
 5861TIP3   OH239141   2.936   4.065   1.262  0.1542  0.1060 -0.2410
 5861TIP3    H139142   2.932   4.158   1.243 -1.8844  0.2552  0.8276
 5861TIP3    H239143   3.022   4.052   1.302  0.7387  1.3789 -1.0549
 5862TIP3   OH239144   4.235   6.682   0.292  0.1667 -0.1026  0.1039
 5862TIP3    H139145   4.242   6.713   0.202  2.1056  2.0120  0.9346
 5862TIP3    H239146   4.166   6.736   0.331  0.5836  0.2322  0.3805
 5863TIP3   OH239147   5.024   5.916   2.290  0.5981  0.1723  0.1742
 5863TIP3    H139148   5.021   5.854   2.362 -1.6354 -0.4732 -0.4158
 5863TIP3    H239149   4.975   5.992   2.321 -2.7250 -1.1666 -1.5317
 5864TIP3   OH239150   4.081   5.261   1.589 -0.4937  0.4008  0.5450
 5864TIP3    H139151   4.116   5.327   1.531  1.8577 -2.2781 -1.1997
 5864TIP3    H239152   4.034   5.200   1.532  1.6606 -2.1493  1.3648
 5865TIP3   OH239153   4.814   7.154   2.287 -0.2333 -0.2039  0.6775
 5865TIP3    H139154   4.725   7.167   2.321  0.6026  2.4516  1.9153
 5865TIP3    H239155   4.837   7.065   2.315 -3.4264 -2.0016 -1.8852
 5866TIP3   OH239156   5.336   5.637   2.585 -0.2702 -0.1513 -0.3403
 5866TIP3    H139157   5.358   5.706   2.647 -1.5284 -0.2481  0.2215
 5866TIP3    H239158   5.410   5.577   2.589 -0.4277 -0.2469  1.2062
 5867TIP3   OH239159   6.017   5.464   7.005 -0.4260 -0.0951 -0.3571
 5867TIP3    H139160   5.957   5.512   6.947 -0.9516  0.6392  0.7799
 5867TIP3    H239161   5.964   5.396   7.044 -0.3036  0.0053 -0.0156
 5868TIP3   OH239162   1.929   5.406   0.698 -0.5295 -0.2582 -0.1102
 5868TIP3    H139163   1.921   5.447   0.784 -1.7568  0.9156 -0.7585
 5868TIP3    H239164   1.928   5.480   0.636 -0.7866 -1.1487 -1.1838
 5869TIP3   OH239165   0.106   3.512   0.109 -0.5819 -0.2760  0.3051
 5869TIP3    H139166   0.059   3.470   0.181  0.9207  0.6796  1.8943
 5869TIP3    H239167   0.153   3.441   0.066 -0.0047 -0.5947  1.4504
 5870TIP3   OH239168   4.023   4.100   0.810  0.7154 -0.2235  0.6671
 5870TIP3    H139169   4.021   4.044   0.887 -0.2174 -1.3424 -0.1616
 5870TIP3    H239170   4.044   4.041   0.738 -2.0134  0.1768 -0.4900
 5871TIP3   OH239171   3.087   4.801   1.021  0.0422  0.5615  0.7747
 5871TIP3    H139172   3.125   4.713   1.026  0.4906  0.5602 -1.9915
 5871TIP3    H239173   3.161   4.859   1.039  0.1448  0.4151  0.8301
 5872TIP3   OH239174   3.817   4.228   1.272  0.1909 -0.1849  0.7549
 5872TIP3    H139175   3.810   4.324   1.268 -0.9400 -0.2595  0.5831
 5872TIP3    H239176   3.901   4.211   1.314  0.2084  0.8875  1.1594
 5873TIP3   OH239177   3.060   2.938   1.502 -0.2202 -0.0999 -0.1462
 5873TIP3    H139178   2.998   2.931   1.430 -1.7210  1.5642  0.9273
 5873TIP3    H239179   3.008   2.919   1.580  1.3301 -1.6652  0.5289
 5874TIP3   OH239180   3.925   4.691   8.316 -0.1262  0.3973  0.6796
 5874TIP3    H139181   3.848   4.694   8.260 -0.2524  0.7852  0.8754
 5874TIP3    H239182   3.890   4.678   8.405 -0.1133  3.3313  1.1370
 5875TIP3   OH239183   7.108   5.520   7.792 -0.1013 -0.7328 -0.2496
 5875TIP3    H139184   7.190   5.472   7.779 -0.6183 -1.6279 -0.2512
 5875TIP3    H239185   7.111   5.549   7.883  0.8537  0.4523 -0.6512
 5876TIP3   OH239186   4.928   4.651   0.342  0.5089  0.1228 -0.1298
 5876TIP3    H139187   4.950   4.675   0.251 -1.2689 -0.5526 -0.7637
 5876TIP3    H239188   4.961   4.562   0.351  1.1074  0.3582  0.0505
 5877TIP3   OH239189   2.353   4.135   1.680  0.6841  0.5610 -0.3791
 5877TIP3    H139190   2.441   4.153   1.648  1.3329  0.4271  1.2795
 5877TIP3    H239191   2.362   4.135   1.776 -1.3131  1.5861 -0.1667
 5878TIP3   OH239192   3.484   4.333   1.789  0.1010  0.2000 -0.8979
 5878TIP3    H139193   3.573   4.311   1.815 -0.1496  1.9211  1.5856
 5878TIP3    H239194   3.489   4.422   1.756 -0.5718  0.0300 -1.4853
 5879TIP3   OH239195   4.546   4.683   2.185 -0.3964 -0.0384 -0.5034
 5879TIP3    H139196   4.521   4.737   2.111  1.3415 -1.0416 -1.8877
 5879TIP3    H239197   4.544   4.742   2.260  0.1657  1.6274 -1.7559
 5880TIP3   OH239198   3.962   3.106   1.357 -0.1272 -0.4688  0.1774
 5880TIP3    H139199   4.041   3.055   1.337 -0.3315 -0.4698 -0.6225
 5880TIP3    H239200   3.928   3.065   1.437  0.1208 -1.1214 -0.0445
 5881TIP3   OH239201   4.898   4.340   2.191 -0.1742 -0.2292  0.6864
 5881TIP3    H139202   4.811   4.331   2.153 -0.8042 -0.1358  2.0636
 5881TIP3    H239203   4.919   4.253   2.224 -0.1314 -0.0376  1.1674
 5882TIP3   OH239204   5.032   4.417   1.958  1.3549  0.2873 -0.4105
 5882TIP3    H139205   4.995   4.395   2.044 -0.2355 -1.3324 -1.4876
 5882TIP3    H239206   5.095   4.347   1.941  0.6709 -0.1467 -1.1708
 5883TIP3   OH239207   1.653   2.940   0.232  0.1506 -0.0504  0.3516
 5883TIP3    H139208   1.709   2.958   0.308  0.9178  0.2782 -0.2816
 5883TIP3    H239209   1.640   3.025   0.191 -0.4437 -0.1951  0.2349
 5884TIP3   OH239210   2.966   4.607   0.640  0.1319  0.2592  0.6915
 5884TIP3    H139211   2.886   4.570   0.603  0.2482 -0.2579  0.9469
 5884TIP3    H239212   2.941   4.695   0.668 -0.4466 -0.0286  1.1058
 5885TIP3   OH239213   5.589   3.807   1.904  0.1907  0.2365  0.2383
 5885TIP3    H139214   5.601   3.818   1.810  0.8713 -0.1159  0.2854
 5885TIP3    H239215   5.498   3.777   1.914 -0.2814  1.4954 -0.2141
 5886TIP3   OH239216   4.143   2.808   1.583  0.2674  0.6926 -0.1951
 5886TIP3    H139217   4.196   2.884   1.604 -0.9122  1.1830  1.0890
 5886TIP3    H239218   4.130   2.813   1.488  2.3301  0.6530 -0.5062
 5887TIP3   OH239219   1.901   3.012   1.090 -0.0367  0.0826  0.8900
 5887TIP3    H139220   1.980   2.992   1.039  0.4582 -0.9948  2.0524
 5887TIP3    H239221   1.931   3.070   1.160  0.2652 -2.3612  2.8695
 5888TIP3   OH239222   5.780   3.718   2.559 -0.2871 -0.6527  0.5864
 5888TIP3    H139223   5.717   3.735   2.629 -2.0864  0.6969 -1.3121
 5888TIP3    H239224   5.827   3.639   2.588  0.4195  1.0144  4.2153
 5889TIP3   OH239225   1.837   0.764   7.560 -0.4055 -0.6078  0.0122
 5889TIP3    H139226   1.900   0.719   7.503  0.4492  0.0252  0.4459
 5889TIP3    H239227   1.821   0.703   7.632 -1.5080 -1.4232 -0.8970
 5890TIP3   OH239228   4.583   6.180   8.329 -0.1655 -0.0231 -0.1208
 5890TIP3    H139229   4.555   6.179   8.238  0.3296 -0.8359 -0.2695
 5890TIP3    H239230   4.660   6.123   8.332  0.0188  0.2480  0.7431
 5891TIP3   OH239231   4.002   6.719   0.459 -0.6474  0.4658  0.0911
 5891TIP3    H139232   3.993   6.653   0.528  0.2715  1.9046  1.6111
 5891TIP3    H239233   3.918   6.717   0.413 -2.2706  1.3891  2.9420
 5892TIP3   OH239234   3.259   4.603   1.014  0.1066 -0.4949  0.0542
 5892TIP3    H139235   3.334   4.663   1.011 -0.4894  0.3608  1.5556
 5892TIP3    H239236   3.297   4.518   1.038  0.8711 -0.5713 -1.3990
 5893TIP3   OH239237   5.878   0.000   1.411 -0.7515 -0.1114 -0.2405
 5893TIP3    H139238   5.791  -0.021   1.446 -0.4348 -1.3914 -0.2004
 5893TIP3    H239239   5.920  -0.085   1.398  0.4203  0.4903 -0.4575
 5894TIP3   OH239240   4.892   5.577   1.365 -0.1140 -0.4040  0.5244
 5894TIP3    H139241   4.809   5.569   1.411 -0.1559  0.4364  0.6084
 5894TIP3    H239242   4.873   5.635   1.291  0.4685  0.0772  0.7429
 5895TIP3   OH239243   0.910   6.440   0.683 -0.2779  0.0275 -0.4198
 5895TIP3    H139244   0.959   6.376   0.735  0.3360 -1.2055 -2.4821
 5895TIP3    H239245   0.967   6.460   0.609 -1.5153  1.0829 -1.1078
 5896TIP3   OH239246   5.468   3.839   1.434  0.1147  0.7208  0.5534
 5896TIP3    H139247   5.460   3.933   1.450 -1.5483  0.6816  0.0578
 5896TIP3    H239248   5.541   3.811   1.489  0.2994  2.2160  1.0832
 5897TIP3   OH239249   1.496   6.329   8.063 -0.0960 -0.4864  0.6290
 5897TIP3    H139250   1.498   6.310   8.157  1.1474 -0.1218  0.6859
 5897TIP3    H239251   1.573   6.285   8.028 -1.4254 -1.9559 -0.4918
 5898TIP3   OH239252   5.620   0.005   1.570 -0.1921 -0.5342 -0.3393
 5898TIP3    H139253   5.537  -0.006   1.616  1.1157 -1.8531  1.7575
 5898TIP3    H239254   5.657   0.085   1.605  0.9041 -1.6517  1.1219
 5899TIP3   OH239255   6.478   4.820   1.800  0.5097  0.1734  0.0872
 5899TIP3    H139256   6.490   4.749   1.864  1.0484  0.8060  0.7038
 5899TIP3    H239257   6.391   4.856   1.820  0.1954 -0.3764 -0.2913
 5900TIP3   OH239258   5.467   5.337   1.052  0.3308  0.1863 -0.6208
 5900TIP3    H139259   5.462   5.246   1.081 -0.9306  0.4773  0.1191
 5900TIP3    H239260   5.482   5.387   1.132 -1.9126  0.8821 -0.6159
 5901TIP3   OH239261   5.303   4.622   7.478 -0.6222  0.0321 -0.3998
 5901TIP3    H139262   5.323   4.529   7.486 -1.0246 -0.1048 -0.9599
 5901TIP3    H239263   5.389   4.664   7.474 -0.4395 -0.3343 -0.3331
 5902TIP3   OH239264   5.384   5.914   1.071  0.3907  0.0379  0.5061
 5902TIP3    H139265   5.381   6.007   1.053 -1.5995 -0.1915 -0.4097
 5902TIP3    H239266   5.382   5.872   0.985 -1.3339 -0.8903  0.9798
 5903TIP3   OH239267   5.837   4.531   1.919 -0.3544  0.1573 -0.7193
 5903TIP3    H139268   5.932   4.537   1.926 -0.3752  1.1927 -1.3111
 5903TIP3    H239269   5.822   4.480   1.839 -0.3060  0.0416 -0.6554
 5904TIP3   OH239270   6.298   6.322   8.216 -0.3041 -0.5796 -0.0049
 5904TIP3    H139271   6.302   6.418   8.209 -1.8728 -0.4180  1.0912
 5904TIP3    H239272   6.384   6.293   8.186  0.6413  1.2475  0.7898
 5905TIP3   OH239273   2.769   5.095   0.254 -0.0815 -0.2548 -0.2255
 5905TIP3    H139274   2.818   5.023   0.295  1.8701  0.8935 -0.4885
 5905TIP3    H239275   2.695   5.110   0.312  0.0345 -1.8108  0.3537
 5906TIP3   OH239276   3.790   4.260   1.629  0.3675 -0.5753  0.5057
 5906TIP3    H139277   3.725   4.209   1.579  1.3884 -0.9669 -0.4416
 5906TIP3    H239278   3.760   4.255   1.719  0.4515 -2.8791  0.4310
 5907TIP3   OH239279   5.651   3.899   2.392 -0.2230  0.2098 -0.5906
 5907TIP3    H139280   5.697   3.832   2.443 -1.8516 -0.9517 -0.6132
 5907TIP3    H239281   5.596   3.849   2.332 -0.9499  1.5855 -1.0751
 5908TIP3   OH239282   5.742   4.163   2.134  0.2430 -0.5767 -0.2131
 5908TIP3    H139283   5.790   4.083   2.154  2.9710  0.8978 -0.6120
 5908TIP3    H239284   5.684   4.138   2.062  1.1474 -2.1645 -0.4268
 5909TIP3   OH239285   4.397   3.304   2.089 -0.0384 -0.0601 -0.3337
 5909TIP3    H139286   4.399   3.394   2.120  0.3543 -0.3593  0.5271
 5909TIP3    H239287   4.488   3.284   2.068 -0.5609  0.7962 -3.6443
 5910TIP3   OH239288   4.131   3.221   1.956 -0.1717 -0.2041  1.0309
 5910TIP3    H139289   4.119   3.222   1.861 -0.7721  0.9396  1.1111
 5910TIP3    H239290   4.211   3.171   1.969 -1.4218 -2.5466  0.0770
 5911TIP3   OH239291   4.190   5.871   0.595  0.2183 -0.5075  0.4359
 5911TIP3    H139292   4.097   5.879   0.572  0.1880 -1.0112  0.3787
 5911TIP3    H239293   4.209   5.949   0.647  0.4831  1.0703 -1.9526
 5912TIP3   OH239294   0.187   4.499   8.198 -0.1538 -0.4863 -0.2502
 5912TIP3    H139295   0.099   4.534   8.216 -0.4176 -0.2963 -1.8762
 5912TIP3    H239296   0.230   4.500   8.284 -2.6953 -3.3095  1.1990
 5913TIP3   OH239297   3.262   3.734   8.460 -0.1909  0.4609  0.5977
 5913TIP3    H139298   3.309   3.765   8.537 -1.1605  1.8297  0.6617
 5913TIP3    H239299   3.322   3.674   8.416  1.1401  1.2711  1.3122
 5914TIP3   OH239300   7.198   4.324   2.163  0.5266  0.3543 -0.3145
 5914TIP3    H139301   7.172   4.407   2.204  0.4342  0.2780 -0.2180
 5914TIP3    H239302   7.146   4.258   2.209  0.0434  0.3195 -0.9063
 5915TIP3   OH239303   7.259   3.900   0.696 -0.4904 -0.1336  0.3451
 5915TIP3    H139304   7.324   3.905   0.766 -0.6835  1.3810  0.4392
 5915TIP3    H239305   7.192   3.965   0.720 -0.8588 -0.0127 -0.9267
 5916TIP3   OH239306   2.706   3.506   1.625  0.6317 -0.7290 -0.0120
 5916TIP3    H139307   2.728   3.471   1.712  1.9281  0.5116  0.1738
 5916TIP3    H239308   2.750   3.447   1.564  0.8305 -0.8252  0.2181
 5917TIP3   OH239309   7.302   4.556   0.482 -0.8050  0.3925  0.0892
 5917TIP3    H139310   7.338   4.642   0.503 -0.9152  0.2222  0.9726
 5917TIP3    H239311   7.282   4.561   0.388 -1.4354  1.5574  0.2772
 5918TIP3   OH239312   2.155   3.792   1.954 -0.3524  0.2539 -0.2344
 5918TIP3    H139313   2.233   3.791   1.898 -0.8452  1.1434 -0.9500
 5918TIP3    H239314   2.084   3.762   1.897 -0.6020 -0.1712  0.2999
 5919TIP3   OH239315   3.839   5.750   0.812 -0.4368  0.2103 -0.3027
 5919TIP3    H139316   3.922   5.788   0.841 -0.0205 -1.0300  0.1724
 5919TIP3    H239317   3.861   5.659   0.791 -1.5790  0.0139 -0.6583
 5920TIP3   OH239318   5.341   5.346   2.340 -0.9009 -0.1030 -0.1546
 5920TIP3    H139319   5.379   5.285   2.277  1.1920 -0.3900  1.3077
 5920TIP3    H239320   5.313   5.291   2.413  1.7034  0.6706  1.5074
 5921TIP3   OH239321   5.750   6.153   0.171  0.2957  0.6561 -0.3307
 5921TIP3    H139322   5.663   6.190   0.156 -0.1731 -0.4611 -0.4345
 5921TIP3    H239323   5.738   6.058   0.161  0.8964  0.2088  2.5273
 5922TIP3   OH239324   3.390   6.196   1.147 -0.1665 -0.1353 -0.0399
 5922TIP3    H139325   3.424   6.113   1.113 -3.6391 -2.3467  1.5918
 5922TIP3    H239326   3.351   6.239   1.071 -1.7508 -1.8352 -0.2225
 5923TIP3   OH239327   1.696   2.783   0.486 -0.5739  0.0280 -0.2011
 5923TIP3    H139328   1.716   2.689   0.488  1.1447  0.3996  0.6521
 5923TIP3    H239329   1.619   2.790   0.430 -0.5890 -1.8727 -0.4417
 5924TIP3   OH239330   4.489   4.546   1.716 -0.2870 -0.7854 -0.1049
 5924TIP3    H139331   4.554   4.483   1.685 -0.4502 -0.4513 -1.1597
 5924TIP3    H239332   4.454   4.508   1.796  2.6026 -0.0489  1.5673
 5925TIP3   OH239333   3.439   4.877   8.201  0.0282 -0.3096  0.1344
 5925TIP3    H139334   3.403   4.868   8.289 -2.6915 -1.5248 -1.0565
 5925TIP3    H239335   3.491   4.798   8.187  1.0296  0.2119  0.8916
 5926TIP3   OH239336   3.896   5.594   1.044  0.2989  0.3934  0.3780
 5926TIP3    H139337   3.878   5.668   0.986  0.7445  0.5548  0.4474
 5926TIP3    H239338   3.978   5.557   1.011  1.8066  1.9059  2.3444
 5927TIP3   OH239339   3.195   6.665   7.474  0.1432 -0.4698  0.3788
 5927TIP3    H139340   3.166   6.596   7.533 -1.3174  1.3115  1.8026
 5927TIP3    H239341   3.120   6.682   7.417  0.3691  0.2149  0.2800
 5928TIP3   OH239342   5.837   6.341   0.968 -0.5635  0.3896 -0.2247
 5928TIP3    H139343   5.806   6.418   1.016 -1.4079  0.0316 -0.1855
 5928TIP3    H239344   5.930   6.335   0.990 -0.5971  1.1158  0.1508
 5929TIP3   OH239345   4.694   5.794   2.215  0.2271 -0.0710  0.3243
 5929TIP3    H139346   4.753   5.835   2.153  1.7832 -0.9604  1.1735
 5929TIP3    H239347   4.654   5.867   2.263  1.3281  0.5199  0.3551
 5930TIP3   OH239348   4.287   5.745   1.401  0.0092  0.2688 -0.2158
 5930TIP3    H139349   4.363   5.734   1.344 -0.9187 -1.4169 -1.1697
 5930TIP3    H239350   4.253   5.656   1.413 -0.3789  0.7052  2.2050
 5931TIP3   OH239351   2.511   4.844   1.382  0.1219  0.0759  0.2087
 5931TIP3    H139352   2.501   4.759   1.425  1.0143  0.6268  1.5524
 5931TIP3    H239353   2.598   4.841   1.342 -0.4066 -0.1540 -0.9404
 5932TIP3   OH239354   5.677   4.445   2.129  0.1935 -0.2358  0.0675
 5932TIP3    H139355   5.696   4.351   2.124  2.1846  0.0040  2.1180
 5932TIP3    H239356   5.733   4.484   2.062  1.7201 -0.2461  1.2972
 5933TIP3   OH239357   4.605   4.983   1.062  0.1426  0.1369  0.1747
 5933TIP3    H139358   4.662   5.057   1.084  1.0277  0.0132 -1.6139
 5933TIP3    H239359   4.631   4.914   1.124  1.5847  0.2525 -0.2742
 5934TIP3   OH239360   4.164   4.747   0.997  0.7981 -0.3202 -0.0217
 5934TIP3    H139361   4.078   4.707   0.981  0.8232 -1.7194  3.0637
 5934TIP3    H239362   4.197   4.768   0.909 -1.8403 -1.5393 -1.3683
 5935TIP3   OH239363   4.016   3.708   1.166 -0.4029  0.6172 -0.3041
 5935TIP3    H139364   4.007   3.670   1.253  2.5051 -0.5526 -0.4417
 5935TIP3    H239365   3.938   3.678   1.118 -0.4756 -1.3156  0.9785
 5936TIP3   OH239366   4.165   6.979   7.878 -0.1102  0.2154 -0.3132
 5936TIP3    H139367   4.176   7.074   7.873  1.8349  0.0055 -0.2552
 5936TIP3    H239368   4.103   6.966   7.950 -0.4367  1.4380 -0.3571
 5937TIP3   OH239369   4.617   4.789   1.624  0.5457  0.6501  0.3724
 5937TIP3    H139370   4.583   4.703   1.646  2.1837  0.1893  1.1819
 5937TIP3    H239371   4.659   4.820   1.704  0.9730  1.7068 -0.2408
 5938TIP3   OH239372   3.959   4.777   2.042 -0.7331 -0.2668  0.2559
 5938TIP3    H139373   3.961   4.690   2.082 -1.3991 -0.2833  0.2706
 5938TIP3    H239374   3.882   4.819   2.081  0.9477  1.2111  2.0683
 5939TIP3   OH239375   5.356   5.929   1.693 -0.1406 -0.2231 -0.4509
 5939TIP3    H139376   5.411   5.857   1.660 -1.2007 -0.6682 -1.3154
 5939TIP3    H239377   5.389   5.946   1.781 -0.4832 -2.4409  0.1570
 5940TIP3   OH239378   3.504   5.714   7.401 -0.3195  0.0168  0.3190
 5940TIP3    H139379   3.408   5.707   7.404 -0.3137  0.0408  0.5871
 5940TIP3    H239380   3.535   5.624   7.410 -0.2788  0.1810  2.1206
 5941TIP3   OH239381   3.544   4.191   6.690 -0.4884 -0.3750  0.5075
 5941TIP3    H139382   3.484   4.160   6.623 -1.8722 -2.7554  2.7562
 5941TIP3    H239383   3.496   4.260   6.735  0.0509  0.5136 -0.2531
 5942TIP3   OH239384   3.377   4.385   8.342  0.0503  0.0314 -0.7719
 5942TIP3    H139385   3.317   4.422   8.406 -0.2569 -1.6047 -0.0683
 5942TIP3    H239386   3.462   4.383   8.387  0.1668  0.3074 -0.9763
 5943TIP3   OH239387   3.110   6.012   1.277 -0.3146  0.1028 -0.1464
 5943TIP3    H139388   3.171   5.967   1.334  0.2785  1.8313  0.5933
 5943TIP3    H239389   3.092   6.095   1.321 -1.2024  0.7040 -1.6096
 5944TIP3   OH239390   5.636   6.952   7.331 -0.6578 -0.0109  0.3880
 5944TIP3    H139391   5.688   6.874   7.349  1.2588  1.2071  0.2711
 5944TIP3    H239392   5.645   6.965   7.236 -1.1988  0.1935  0.3630
 5945TIP3   OH239393   4.735   2.600   1.946  0.3651 -0.1938 -0.0509
 5945TIP3    H139394   4.643   2.581   1.964  0.2314  0.3037 -0.2094
 5945TIP3    H239395   4.742   2.695   1.953  1.0220 -0.2947  0.6543
 5946TIP3   OH239396   2.435   3.421   1.586 -0.0587 -0.0860  0.5123
 5946TIP3    H139397   2.521   3.459   1.606 -0.7061  2.0060 -0.5763
 5946TIP3    H239398   2.372   3.488   1.612 -1.2209 -0.2548 -1.7102
 5947TIP3   OH239399   7.030   5.479   0.657  0.5778  0.7107  0.4710
 5947TIP3    H139400   7.065   5.550   0.710  0.2116  0.9691  0.3639
 5947TIP3    H239401   6.970   5.521   0.596  0.7419  0.3736  0.0717
 5948TIP3   OH239402   5.429   5.151   2.156 -0.1930  0.2210 -0.3282
 5948TIP3    H139403   5.369   5.080   2.178 -0.3704  0.6921  0.7358
 5948TIP3    H239404   5.514   5.108   2.146 -0.6847 -0.4416 -1.7980
 5949TIP3   OH239405   6.579   5.172   1.551  0.1747  0.2356  0.2858
 5949TIP3    H139406   6.552   5.083   1.574  0.1205  0.3929  0.8278
 5949TIP3    H239407   6.582   5.172   1.455  0.8777 -0.5664  0.2980
 5950TIP3   OH239408   5.746   5.026   0.728  0.4376 -0.8234 -0.3603
 5950TIP3    H139409   5.684   5.046   0.798 -0.0665 -0.4983 -0.8980
 5950TIP3    H239410   5.815   4.976   0.771  2.6310  3.4496  1.4135
 5951TIP3   OH239411   6.599   6.456   1.499  0.9616 -0.1681  0.0050
 5951TIP3    H139412   6.509   6.424   1.507  0.2908  1.7090  0.1266
 5951TIP3    H239413   6.653   6.383   1.530 -0.4589 -1.6867 -1.0314
 5952TIP3   OH239414   1.750   5.713   2.124 -0.2197 -0.4368  0.2111
 5952TIP3    H139415   1.669   5.760   2.144 -0.4109 -0.2676 -0.9299
 5952TIP3    H239416   1.799   5.714   2.206 -0.5658  1.0633  0.4136
 5953TIP3   OH239417   2.329   6.926   0.476 -0.5007  0.7723  0.1638
 5953TIP3    H139418   2.255   6.928   0.414  0.5664  0.4085 -1.1397
 5953TIP3    H239419   2.343   7.018   0.499 -0.8381  0.9215 -0.2051
 5954TIP3   OH239420   0.995   4.723   1.772 -0.0334 -1.0608 -0.1883
 5954TIP3    H139421   1.066   4.729   1.708 -1.0405  0.4565 -1.1840
 5954TIP3    H239422   1.032   4.761   1.852  0.1341  0.1458 -0.8288
 5955TIP3   OH239423   6.219   4.968   0.712 -0.4003 -0.3946  0.3812
 5955TIP3    H139424   6.218   5.012   0.798 -1.2945  0.1819  0.0781
 5955TIP3    H239425   6.133   4.927   0.705 -1.0366  1.1594 -1.0564
 5956TIP3   OH239426   6.976   6.857   1.625 -0.3414  0.0880 -0.2606
 5956TIP3    H139427   7.014   6.935   1.665 -2.6940  0.6882  0.8693
 5956TIP3    H239428   7.008   6.784   1.678  1.6519  0.2681 -1.1616
 5957TIP3   OH239429   6.276   0.221   8.109 -0.1036 -0.1606 -0.6077
 5957TIP3    H139430   6.355   0.205   8.160  0.3231  0.5213 -1.0423
 5957TIP3    H239431   6.271   0.147   8.049  0.4403  0.0128 -0.8691
 5958TIP3   OH239432   0.312   6.190   1.835 -0.1113 -0.1006 -0.4349
 5958TIP3    H139433   0.250   6.243   1.783  0.0291 -0.4102 -0.9211
 5958TIP3    H239434   0.269   6.180   1.920 -1.8793 -2.4009 -1.5597
 5959TIP3   OH239435   5.758   3.219   1.481  0.3588 -0.0131 -0.0703
 5959TIP3    H139436   5.705   3.292   1.448 -0.9380  0.1341  2.1888
 5959TIP3    H239437   5.694   3.161   1.524  1.4912 -2.0615 -1.0965
 5960TIP3   OH239438   5.205   4.779   1.128 -0.6000  0.1033  0.3374
 5960TIP3    H139439   5.165   4.795   1.214  1.0930 -1.0341  1.3542
 5960TIP3    H239440   5.184   4.687   1.109 -0.8977  0.3270 -0.4521
 5961TIP3   OH239441   6.278   5.300   1.578 -0.3570  0.1156  0.4830
 5961TIP3    H139442   6.374   5.300   1.581 -0.2714  3.0565 -0.4998
 5961TIP3    H239443   6.257   5.266   1.491 -0.1673  0.3223  0.3549
 5962TIP3   OH239444   0.988   5.826   7.283 -0.2376  0.0233  0.1761
 5962TIP3    H139445   1.047   5.881   7.232  0.5373  0.4225  1.4821
 5962TIP3    H239446   0.967   5.753   7.225  1.7010 -0.2287 -0.2305
 5963TIP3   OH239447   0.883   5.038   1.509 -0.1885  0.3113 -0.9922
 5963TIP3    H139448   0.886   5.047   1.604 -0.2466  0.4340 -1.0014
 5963TIP3    H239449   0.840   5.118   1.479 -1.3571 -0.3278 -1.0275
 5964TIP3   OH239450   5.501   4.547   1.316  0.3144 -0.7841  0.5857
 5964TIP3    H139451   5.529   4.620   1.261 -1.5144 -0.4587  0.0339
 5964TIP3    H239452   5.582   4.506   1.345  1.3713  1.1130  0.4229
 5965TIP3   OH239453   0.519   4.275   0.458 -0.7332 -0.0222 -0.0864
 5965TIP3    H139454   0.485   4.320   0.536  1.3517  1.6241 -0.0704
 5965TIP3    H239455   0.475   4.319   0.385  1.5994  2.4304 -0.0924
 5966TIP3   OH239456   0.664   5.079   0.265  0.4447 -0.1204  0.1336
 5966TIP3    H139457   0.715   5.151   0.302 -1.7063  0.9454  1.1305
 5966TIP3    H239458   0.641   5.108   0.177 -0.6030  0.5591  0.6101
 5967TIP3   OH239459   4.821   4.338   0.948  0.5228  0.0901 -0.0010
 5967TIP3    H139460   4.777   4.257   0.973 -0.0132  0.9956  2.1190
 5967TIP3    H239461   4.768   4.407   0.987  1.2680  1.4463 -1.3354
 5968TIP3   OH239462   0.495   5.758   0.842 -0.6442 -0.0534  0.4665
 5968TIP3    H139463   0.583   5.765   0.806 -0.4540 -1.1291  0.6880
 5968TIP3    H239464   0.452   5.839   0.817  1.1114  1.5022  2.2715
 5969TIP3   OH239465   5.260   5.533   1.209 -0.0424 -0.6111  0.5438
 5969TIP3    H139466   5.353   5.512   1.205  0.3662  1.3768 -1.5212
 5969TIP3    H239467   5.242   5.547   1.302  2.4152  1.8823  0.7020
 5970TIP3   OH239468   0.286   5.702   2.292 -0.3877 -0.2206 -0.2057
 5970TIP3    H139469   0.264   5.714   2.385 -0.3423  0.9047 -0.3339
 5970TIP3    H239470   0.271   5.609   2.276 -3.3108  0.1173  0.1799
 5971TIP3   OH239471   6.734   2.967   1.519  0.2732  0.2728 -0.2401
 5971TIP3    H139472   6.678   2.955   1.442 -0.9687  2.4207  0.2897
 5971TIP3    H239473   6.689   2.920   1.589 -1.4986  2.8757  0.4401
 5972TIP3   OH239474   5.956   3.522   2.627 -0.2122 -1.0983  0.0720
 5972TIP3    H139475   6.031   3.577   2.603 -0.4426 -0.2896  1.1874
 5972TIP3    H239476   5.990   3.432   2.623  0.8312 -0.7379  0.5878
 5973TIP3   OH239477   7.182   6.640   0.539  0.1738  0.0537 -0.0222
 5973TIP3    H139478   7.114   6.703   0.515  1.6447  1.2250 -1.2165
 5973TIP3    H239479   7.143   6.554   0.521 -0.6026  0.7422 -1.7264
 5974TIP3   OH239480   5.326   3.697   1.886  0.6321  0.6099  0.2869
 5974TIP3    H139481   5.237   3.731   1.879  0.3980 -0.4316 -2.6499
 5974TIP3    H239482   5.326   3.645   1.967 -1.5364  0.3758  0.1545
 5975TIP3   OH239483   6.632   3.950   1.307 -0.3069 -0.2098 -1.3280
 5975TIP3    H139484   6.689   4.003   1.251 -2.2205  1.0435 -2.1330
 5975TIP3    H239485   6.543   3.968   1.276 -1.2000 -1.8203  0.1594
 5976TIP3   OH239486   6.727   0.342   7.969  0.2470  0.0405 -0.2840
 5976TIP3    H139487   6.794   0.301   7.914 -0.6419 -2.6954  0.5870
 5976TIP3    H239488   6.660   0.372   7.907  0.4345 -0.7552 -0.8814
 5977TIP3   OH239489   4.423   4.939   0.053 -0.0073 -0.2017  0.6086
 5977TIP3    H139490   4.396   5.016   0.104  1.5603  1.4160 -0.9489
 5977TIP3    H239491   4.509   4.917   0.086  1.0134  0.8445 -1.2778
 5978TIP3   OH239492   6.744   5.022   1.818 -0.1906 -0.0466 -0.1045
 5978TIP3    H139493   6.686   5.029   1.893 -0.0649 -0.9572  0.0850
 5978TIP3    H239494   6.709   4.949   1.767  0.8142 -0.6449  0.0407
 5979TIP3   OH239495   0.643   5.806   8.117 -0.0930 -0.2900 -0.8006
 5979TIP3    H139496   0.653   5.805   8.022  1.1480 -0.0768 -0.6840
 5979TIP3    H239497   0.716   5.860   8.148  0.0147 -1.0601  0.3286
 5980TIP3   OH239498   0.281   4.476   1.415 -0.5567 -0.0183 -0.0724
 5980TIP3    H139499   0.233   4.556   1.392 -1.4807 -0.6083 -0.2469
 5980TIP3    H239500   0.235   4.442   1.492 -0.7044 -0.8331 -0.5155
 5981TIP3   OH239501   6.770   5.547   1.274  0.1044 -0.4424  0.2518
 5981TIP3    H139502   6.739   5.562   1.363  2.0827 -1.7997  1.2118
 5981TIP3    H239503   6.692   5.524   1.224 -0.9941  0.1858  1.6632
 5982TIP3   OH239504   3.093   1.238   8.075  0.3196  0.6548 -0.0879
 5982TIP3    H139505   3.008   1.240   8.118  0.2630 -0.2322 -0.1306
 5982TIP3    H239506   3.157   1.237   8.146  0.2902  1.2741 -0.0549
 5983TIP3   OH239507   7.115   5.617   1.060 -0.1498 -0.0463  0.6324
 5983TIP3    H139508   7.046   5.604   1.125  0.2050 -0.6561  0.8927
 5983TIP3    H239509   7.158   5.699   1.087 -0.9845  0.5134  0.2722
 5984TIP3   OH239510   5.684   6.422   0.492  0.0576 -0.0788 -0.4610
 5984TIP3    H139511   5.712   6.424   0.400 -1.0226 -1.5515 -0.8407
 5984TIP3    H239512   5.596   6.459   0.491  0.7691  1.7065  0.2881
 5985TIP3   OH239513   0.789   2.632   0.077 -0.4037  0.3770 -0.2387
 5985TIP3    H139514   0.738   2.564   0.032  0.4784  0.6143 -1.5927
 5985TIP3    H239515   0.866   2.646   0.022 -0.6051  2.5402 -0.0235
 5986TIP3   OH239516   4.720   4.539   1.937 -0.2176 -0.3986 -0.2149
 5986TIP3    H139517   4.812   4.559   1.957 -0.4987  0.3378  0.3574
 5986TIP3    H239518   4.683   4.623   1.909 -0.8942 -0.5385  0.2545
 5987TIP3   OH239519   1.331   7.239   7.759  0.0120  0.3008 -0.7637
 5987TIP3    H139520   1.358   7.331   7.766  1.0372 -0.0920  0.5015
 5987TIP3    H239521   1.345   7.217   7.667 -0.3803  1.4531 -1.1077
 5988TIP3   OH239522   6.941   4.602   0.934 -0.2754 -0.2341  0.1181
 5988TIP3    H139523   6.948   4.696   0.918 -2.0074  0.1596  1.5592
 5988TIP3    H239524   7.009   4.564   0.879  0.0965  1.8119 -0.9058
 5989TIP3   OH239525   0.482   4.077   1.102 -0.4522  0.2381  0.4239
 5989TIP3    H139526   0.512   4.153   1.052 -1.5176 -0.1077 -0.7692
 5989TIP3    H239527   0.472   4.008   1.036 -3.0990  0.1233  0.9219
 5990TIP3   OH239528   0.941   7.215   8.276  0.9843 -0.6373 -0.1422
 5990TIP3    H139529   1.028   7.176   8.271  2.4412  2.3123  0.7395
 5990TIP3    H239530   0.950   7.298   8.228 -1.7323 -0.9058 -1.1897
 5991TIP3   OH239531   0.521   5.816   1.648  0.1177 -0.2126  0.0056
 5991TIP3    H139532   0.535   5.871   1.570  0.4385 -0.3478 -0.0313
 5991TIP3    H239533   0.549   5.871   1.721  1.1290 -0.5966 -0.0949
 5992TIP3   OH239534   0.212   4.953   0.792 -0.3615  0.0565  0.9867
 5992TIP3    H139535   0.201   5.020   0.726 -0.8155  1.0664  2.0647
 5992TIP3    H239536   0.156   4.881   0.764  0.3370  0.0141 -0.3104
 5993TIP3   OH239537   1.649   7.092   8.201 -0.4449 -0.0690  0.3278
 5993TIP3    H139538   1.632   7.186   8.206 -2.1811 -0.5113  4.9818
 5993TIP3    H239539   1.586   7.060   8.137 -0.3349  1.7953 -0.7609
 5994TIP3   OH239540   7.051   7.273   0.292  0.6786 -0.4138  0.1911
 5994TIP3    H139541   7.073   7.214   0.364  0.4636 -0.8973 -0.1377
 5994TIP3    H239542   7.059   7.219   0.214 -0.4512 -0.2626 -0.0346
 5995TIP3   OH239543   0.199   0.882   0.739  0.3036 -0.0887  0.7294
 5995TIP3    H139544   0.189   0.977   0.749  0.8706  0.0690 -0.1434
 5995TIP3    H239545   0.117   0.853   0.700 -0.4622 -0.1811  2.3579
 5996TIP3   OH239546   7.196   1.064   0.962 -0.0516 -0.3512  0.4106
 5996TIP3    H139547   7.198   1.119   1.041 -0.2410 -0.5914  0.5835
 5996TIP3    H239548   7.105   1.063   0.935  0.1287  0.3238 -0.2371
 5997TIP3   OH239549   1.603   3.591   2.366  0.1657  0.5564  0.0177
 5997TIP3    H139550   1.693   3.562   2.350 -0.3460 -0.3227 -1.3741
 5997TIP3    H239551   1.608   3.686   2.372  1.3762  0.4231  1.2127
 5998TIP3   OH239552   6.060   7.152   1.746 -0.2601 -0.1593 -0.2379
 5998TIP3    H139553   5.988   7.188   1.693 -0.2806 -1.9272 -1.4273
 5998TIP3    H239554   6.130   7.136   1.683  0.5958 -0.0017  0.6684
 5999TIP3   OH239555   6.659   2.995   2.466  0.4531  0.3277 -0.2695
 5999TIP3    H139556   6.579   3.011   2.416 -0.5198 -1.4684  0.6548
 5999TIP3    H239557   6.630   2.992   2.557  1.5570 -0.3370  0.0680
 6000TIP3   OH239558   6.204   3.660   2.618  0.1864 -0.3743 -0.1927
 6000TIP3    H139559   6.248   3.662   2.532  1.0467 -0.7321  0.2317
 6000TIP3    H239560   6.250   3.592   2.667 -2.0182 -2.0064 -0.3362
 6001TIP3   OH239561   5.894   5.237   1.648  0.3970 -0.2831  0.5342
 6001TIP3    H139562   5.842   5.283   1.713  0.5110 -1.7378  1.6638
 6001TIP3    H239563   5.974   5.212   1.694  0.9600 -0.3839 -0.4685
 6002TIP3   OH239564   0.162   6.473   0.575 -0.1433 -0.2110  0.0891
 6002TIP3    H139565   0.189   6.472   0.483  1.5573  0.0750  0.5641
 6002TIP3    H239566   0.094   6.541   0.580  0.2397  0.2412 -0.8222
 6003TIP3   OH239567   6.123   6.261   8.439 -0.7143 -0.6229 -0.0498
 6003TIP3    H139568   6.196   6.277   8.378 -1.3311  1.8038 -0.2218
 6003TIP3    H239569   6.049   6.306   8.398 -1.7536 -1.1446  1.2587
 6004TIP3   OH239570   0.072   5.372   1.612 -0.0278  0.4396 -0.5367
 6004TIP3    H139571   0.078   5.333   1.525 -0.2848 -1.3846  0.2244
 6004TIP3    H239572  -0.022   5.384   1.626 -0.1299 -1.0048  0.1881
 6005TIP3   OH239573   7.148   4.188   6.963 -0.2234 -0.2724  0.0523
 6005TIP3    H139574   7.177   4.183   6.872  1.4734 -0.1012  0.5571
 6005TIP3    H239575   7.082   4.119   6.971 -0.1877 -0.4713 -1.2333
 6006TIP3   OH239576   1.563   3.698   8.412  0.7261  0.0249 -0.2950
 6006TIP3    H139577   1.550   3.707   8.506 -1.7348  1.0799 -0.6893
 6006TIP3    H239578   1.600   3.782   8.384 -0.0122  0.2854 -0.4953
 6007TIP3   OH239579   7.217   4.566   1.895  0.7577 -0.0092  0.3362
 6007TIP3    H139580   7.174   4.526   1.820  1.0502 -0.4301  0.3886
 6007TIP3    H239581   7.147   4.585   1.957  0.5951 -0.2439  0.2213
 6008TIP3   OH239582   1.719   3.326   8.198  0.5759  0.0124 -0.5688
 6008TIP3    H139583   1.659   3.327   8.273 -0.5368 -1.6295 -1.4010
 6008TIP3    H239584   1.756   3.414   8.195 -2.8848  1.5133 -0.9072
 6009TIP3   OH239585   6.619   5.382   1.730 -0.6300  0.2817 -0.1471
 6009TIP3    H139586   6.633   5.441   1.656 -0.0751  1.0360  0.5476
 6009TIP3    H239587   6.635   5.295   1.694 -2.0124  0.5001 -1.3132
 6010TIP3   OH239588   0.051   6.632   8.401 -0.2399  0.1109 -0.3367
 6010TIP3    H139589  -0.038   6.647   8.434 -0.0883 -0.2874  0.2646
 6010TIP3    H239590   0.104   6.620   8.480  0.4855  1.0689 -0.6658
 6011TIP3   OH239591   6.241   6.941   1.796  0.0751  0.0193  0.6249
 6011TIP3    H139592   6.175   7.008   1.782  1.0200  0.6213 -1.1186
 6011TIP3    H239593   6.191   6.860   1.808 -0.9958  0.5163 -0.3409
 6012TIP3   OH239594   0.443   6.472   0.437 -0.2501  0.0526  0.4080
 6012TIP3    H139595   0.492   6.405   0.485 -2.7213 -2.1633 -0.0090
 6012TIP3    H239596   0.401   6.424   0.365 -1.8463  2.0926 -0.0707
 6013TIP3   OH239597   7.164   6.137   7.375 -0.1421 -0.6292 -0.3888
 6013TIP3    H139598   7.255   6.163   7.362  0.5395 -1.9547  1.4818
 6013TIP3    H239599   7.155   6.054   7.328 -0.1945 -0.8484  0.0066
 6014TIP3   OH239600   5.882   3.632   2.260  0.0461 -0.2343 -1.1953
 6014TIP3    H139601   5.867   3.554   2.312  2.1139 -1.7231 -2.7819
 6014TIP3    H239602   5.843   3.612   2.175  0.9863  0.2946 -1.7545
 6015TIP3   OH239603   0.249   4.422   8.446  0.1174 -0.0753  0.6649
 6015TIP3    H139604   0.215   4.367   8.517  1.5131 -0.3468  1.1440
 6015TIP3    H239605   0.342   4.431   8.466  0.8611 -1.4805 -2.0090
 6016TIP3   OH239606   5.999   5.456   8.496  0.5749  0.5537  0.7410
 6016TIP3    H139607   5.967   5.479   8.409 -1.4840  1.8289  1.8174
 6016TIP3    H239608   5.950   5.378   8.520  0.5012  0.7160  1.1200
 6017TIP3   OH239609   5.421   4.054   2.416  0.1473  0.4435 -0.0987
 6017TIP3    H139610   5.383   4.011   2.339 -1.8185  1.1004  0.4767
 6017TIP3    H239611   5.511   4.024   2.418 -0.8049 -2.6306 -0.4537
 6018TIP3   OH239612   5.780   4.655   0.982  0.2201 -0.2697  0.0164
 6018TIP3    H139613   5.716   4.705   1.033  0.2055  0.3019 -0.5550
 6018TIP3    H239614   5.727   4.603   0.922  0.2425 -0.8515  0.4955
 6019TIP3   OH239615   5.993   4.998   1.224  0.3742  0.6359 -0.6809
 6019TIP3    H139616   5.949   5.079   1.201 -0.9664 -0.4420 -1.9893
 6019TIP3    H239617   6.082   5.025   1.249 -0.5474  2.6523  0.4827
 6020TIP3   OH239618   0.190   0.235   1.367  0.2458 -0.0780  0.9010
 6020TIP3    H139619   0.251   0.308   1.380 -1.8211  1.4814  2.0178
 6020TIP3    H239620   0.245   0.157   1.375  2.2089  1.2997  1.2590
 6021TIP3   OH239621   1.386   5.096   7.828 -0.0819 -0.0792 -0.0161
 6021TIP3    H139622   1.291   5.089   7.836 -0.0661  0.5925  0.8459
 6021TIP3    H239623   1.401   5.177   7.780  0.0760  0.5241  1.0168
 6022TIP3   OH239624   0.644   6.077   0.194  0.3659  0.2808  0.0277
 6022TIP3    H139625   0.661   6.167   0.168 -0.6950  0.9418  1.5155
 6022TIP3    H239626   0.705   6.060   0.266 -1.6441  0.9402  1.9366
 6023TIP3   OH239627   0.198   5.084   8.266 -0.1315 -0.3148 -0.0537
 6023TIP3    H139628   0.197   5.108   8.173  1.0962  0.3045  0.0796
 6023TIP3    H239629   0.270   5.020   8.273 -1.1905 -1.4959  0.2103
 6024TIP3   OH239630   1.785   4.494   8.385 -0.1052  0.4955  0.0053
 6024TIP3    H139631   1.738   4.468   8.306 -0.2758 -0.8785  0.5473
 6024TIP3    H239632   1.875   4.509   8.356  0.0843 -1.0820 -0.2544
 6025TIP3   OH239633   6.801   4.649   1.693  0.0791  0.1860 -0.2725
 6025TIP3    H139634   6.833   4.623   1.779  0.9247 -0.0702 -0.6558
 6025TIP3    H239635   6.706   4.638   1.698 -0.0680  1.9477  1.2220
 6026TIP3   OH239636   1.771   3.952   8.362 -0.7105  0.0530 -0.3333
 6026TIP3    H139637   1.848   3.951   8.305  1.2399 -1.8223  2.2190
 6026TIP3    H239638   1.787   4.025   8.423 -1.4147  0.2508 -0.3812
 6027TIP3   OH239639   0.339   6.510   7.150 -0.7194  0.5719 -0.4410
 6027TIP3    H139640   0.315   6.597   7.181 -2.1800  0.0888 -0.2006
 6027TIP3    H239641   0.264   6.481   7.098 -0.2004 -0.5072 -0.5969
 6028TIP3   OH239642   0.287   6.526   0.025 -0.3220  0.2813 -0.4292
 6028TIP3    H139643   0.299   6.436  -0.007  0.5322  0.5367 -0.8455
 6028TIP3    H239644   0.333   6.580  -0.039  3.4344  0.6576  2.4118
 6029TIP3   OH239645   7.131   4.715   1.347 -0.3054 -0.1784  0.1767
 6029TIP3    H139646   7.171   4.763   1.275 -1.5460 -1.0747 -1.1251
 6029TIP3    H239647   7.154   4.624   1.332 -1.5602 -0.5203  0.2443
 6030TIP3   OH239648   0.150   3.954   0.256 -0.3916  0.1307 -0.0803
 6030TIP3    H139649   0.082   3.997   0.309 -1.8844  0.6932 -2.3678
 6030TIP3    H239650   0.145   3.862   0.281 -0.6558  0.4873  1.2132
 6031TIP3   OH239651   0.539   6.988   8.051  0.0435 -0.3767  0.7393
 6031TIP3    H139652   0.491   6.908   8.074 -0.4078  0.4410  2.7948
 6031TIP3    H239653   0.631   6.966   8.068  0.1017 -0.9692 -0.2816
 6032TIP3   OH239654   7.260   5.087   0.947  0.0948 -0.1135  0.4735
 6032TIP3    H139655   7.232   5.064   0.859  0.0653 -1.6284  0.8649
 6032TIP3    H239656   7.280   5.180   0.942 -1.9574  0.3108 -0.6024
 6033TIP3   OH239657   0.954   4.051   1.458  0.6882  0.2363  0.1194
 6033TIP3    H139658   0.863   4.024   1.453  1.0995 -1.1887  0.1228
 6033TIP3    H239659   0.964   4.087   1.546  0.9643 -2.7625  1.3620
 6034TIP3   OH239660   5.984   6.356   8.084  0.1821  0.3499  0.6529
 6034TIP3    H139661   5.981   6.402   8.168  0.0216 -1.2300  1.5349
 6034TIP3    H239662   5.904   6.385   8.039 -0.0794  0.6998  1.3253
 6035TIP3   OH239663   0.247   5.837   7.440  0.2335 -0.0897  0.2818
 6035TIP3    H139664   0.232   5.842   7.535  0.4871 -1.6143  0.4105
 6035TIP3    H239665   0.300   5.915   7.421 -1.9821  1.6155  0.9433
 6036TIP3   OH239666   3.965   3.439   0.835  0.2797  0.0768  0.0201
 6036TIP3    H139667   3.925   3.359   0.868  1.1793 -0.2389  0.3536
 6036TIP3    H239668   4.053   3.439   0.871  0.5397  0.8431 -0.5887
 6037TIP3   OH239669   0.154   3.689   0.317 -0.2007 -0.3241  0.1929
 6037TIP3    H139670   0.072   3.647   0.344 -0.5055 -0.3308 -0.6941
 6037TIP3    H239671   0.172   3.652   0.231  1.1642 -0.9001  0.7210
 6038TIP3   OH239672   7.114   4.798   1.672 -0.1242  0.1538  0.9275
 6038TIP3    H139673   7.097   4.843   1.755 -0.6895 -1.3690  1.6633
 6038TIP3    H239674   7.209   4.788   1.670  0.0703  1.9551  0.4312
 6039TIP3   OH239675   5.899   5.880   1.995  0.0767 -0.4047 -0.3183
 6039TIP3    H139676   5.950   5.961   2.001  0.8117 -0.8790  0.0053
 6039TIP3    H239677   5.819   5.904   1.948  0.0415  0.6218  0.2762
 6040TIP3   OH239678   6.164   5.093   0.969 -0.0409  0.5758 -0.5047
 6040TIP3    H139679   6.069   5.104   0.969 -0.1005  0.0829 -0.3443
 6040TIP3    H239680   6.177   5.005   1.004  0.4642  0.5589 -0.7418
 6041TIP3   OH239681   1.009   6.859   8.231 -0.4557 -0.2212 -0.0026
 6041TIP3    H139682   1.084   6.800   8.222  0.5139  0.9696  0.1009
 6041TIP3    H239683   1.046   6.946   8.219 -1.9973  0.3265 -0.9396
 6042TIP3   OH239684   0.552   5.939   1.402 -0.0285 -0.1054 -0.6055
 6042TIP3    H139685   0.631   5.992   1.411 -0.2616  0.2774 -0.8032
 6042TIP3    H239686   0.570   5.881   1.328 -0.0406  0.1766 -0.8311
 6043TIP3   OH239687   6.516   0.551   1.037 -0.1054 -0.0375 -0.2499
 6043TIP3    H139688   6.552   0.505   0.962 -2.6581 -0.5745 -1.1844
 6043TIP3    H239689   6.471   0.484   1.088 -1.1920  0.8822  0.0217
 6044TIP3   OH239690   0.783   5.888   2.186  0.0241  0.0805  0.2681
 6044TIP3    H139691   0.747   5.805   2.218  2.3841  0.1892  3.4269
 6044TIP3    H239692   0.713   5.952   2.201 -0.3923 -0.6429  1.4778
 6045TIP3   OH239693   4.434   5.341   1.601  0.2314  0.2410  0.3775
 6045TIP3    H139694   4.461   5.381   1.683  1.1382  0.5512 -0.0628
 6045TIP3    H239695   4.462   5.250   1.607 -1.4595 -0.2468  1.2088
 6046TIP3   OH239696   6.799   5.548   6.682  0.5437  0.1366 -0.6492
 6046TIP3    H139697   6.830   5.636   6.705  0.0741  0.8071 -2.4879
 6046TIP3    H239698   6.739   5.524   6.753 -0.1082  1.7349 -0.6402
 6047TIP3   OH239699   5.736   3.599   2.011 -0.3027  0.1818  0.6548
 6047TIP3    H139700   5.669   3.531   2.008  1.3678 -1.5050 -3.6658
 6047TIP3    H239701   5.701   3.670   1.957  1.6919 -1.1829 -2.6021
 6048TIP3   OH239702   6.972   6.465   1.926  0.3423  0.0014  0.1698
 6048TIP3    H139703   7.003   6.378   1.949 -0.3432 -0.0031  1.1125
 6048TIP3    H239704   6.885   6.471   1.967  0.5155  1.2377  0.3751
 6049TIP3   OH239705   5.149   6.422   0.231  0.5470 -0.2629  0.0684
 6049TIP3    H139706   5.105   6.446   0.312  0.3129 -0.1333 -0.0956
 6049TIP3    H239707   5.079   6.395   0.172  0.6052  0.6398 -0.4349
 6050TIP3   OH239708   6.746   0.420   1.314 -0.6299  0.3963  0.3185
 6050TIP3    H139709   6.807   0.390   1.246 -0.9898 -0.5449  0.3951
 6050TIP3    H239710   6.790   0.494   1.355  0.7581 -0.6447  0.7696
 6051TIP3   OH239711   4.999   5.058   7.989 -0.5302  0.0869  0.4878
 6051TIP3    H139712   5.014   5.136   7.935  0.3053  0.3859  1.1503
 6051TIP3    H239713   5.058   4.992   7.953  0.2351  0.3732  1.2189
 6052TIP3   OH239714   6.388   3.980   1.485 -0.2022 -0.1733  0.3619
 6052TIP3    H139715   6.482   3.967   1.468  0.0122  0.0571  1.3640
 6052TIP3    H239716   6.367   3.917   1.553 -0.2820  1.2365  1.6701
 6053TIP3   OH239717   0.097   3.921   1.922  0.6607  0.1020 -1.0992
 6053TIP3    H139718   0.090   3.927   2.017  1.9292  1.9781 -1.1082
 6053TIP3    H239719   0.038   3.989   1.889 -0.2663 -0.9631 -1.7022
 6054TIP3   OH239720   0.552   5.613   2.039  0.1844  0.3949 -0.1127
 6054TIP3    H139721   0.551   5.632   2.133 -0.1649  1.1815 -0.2689
 6054TIP3    H239722   0.577   5.696   1.998 -0.4666  0.2737 -0.7668
 6055TIP3   OH239723   0.754   6.915   0.492 -0.5003 -0.2184 -0.1885
 6055TIP3    H139724   0.728   7.006   0.479  0.9980  0.2108 -0.2683
 6055TIP3    H239725   0.846   6.920   0.519  0.1716 -1.7999 -2.0784
 6056TIP3   OH239726   1.686   4.426   0.827 -0.3998  0.1348  0.0290
 6056TIP3    H139727   1.675   4.355   0.890  0.0557  0.8034  0.8700
 6056TIP3    H239728   1.632   4.400   0.752  0.1484 -1.3264  0.1270
 6057TIP3   OH239729   6.655   3.855   1.604 -0.4938  0.3391  0.5867
 6057TIP3    H139730   6.700   3.929   1.564 -0.1184  0.2324  0.8091
 6057TIP3    H239731   6.712   3.827   1.675  0.1117 -1.1208 -0.4453
 6058TIP3   OH239732   6.674   5.713   0.764 -0.3798 -0.3557 -0.1287
 6058TIP3    H139733   6.627   5.681   0.687 -1.2438 -0.4881  0.4415
 6058TIP3    H239734   6.682   5.636   0.821  2.2834 -0.8129 -1.0576
 6059TIP3   OH239735   0.417   5.597   1.501 -0.5546  0.2045 -0.1787
 6059TIP3    H139736   0.499   5.580   1.455 -0.3708 -1.3530  0.6762
 6059TIP3    H239737   0.431   5.679   1.547 -0.0808  0.8192 -1.4005
 6060TIP3   OH239738   1.834   6.030   1.108 -0.2104 -0.4951 -0.3821
 6060TIP3    H139739   1.743   5.999   1.107 -0.4236  0.0970 -0.0067
 6060TIP3    H239740   1.866   6.014   1.019 -0.3636 -1.6207 -0.2417
 6061TIP3   OH239741   4.975   4.538   1.271 -0.2188  0.2077 -0.2722
 6061TIP3    H139742   5.065   4.518   1.296  0.0204  0.6622 -0.7679
 6061TIP3    H239743   4.932   4.563   1.353 -0.6357 -2.6800  0.4464
 6062TIP3   OH239744   0.876   6.020   0.348 -0.0469  0.2215  0.2254
 6062TIP3    H139745   0.825   5.945   0.380  0.9195  0.3920  2.2225
 6062TIP3    H239746   0.958   5.982   0.317  0.6658  0.4855  1.7430
 6063TIP3   OH239747   6.031   5.600   2.475 -0.2984  0.1262 -0.2712
 6063TIP3    H139748   6.044   5.585   2.569  0.7283 -0.0367 -0.4357
 6063TIP3    H239749   5.948   5.646   2.470 -0.4629 -0.0423  0.7099
 6064TIP3   OH239750   0.890   6.556   7.088  0.4087  0.2002  0.5119
 6064TIP3    H139751   0.806   6.601   7.102  0.7957  1.5175 -1.3033
 6064TIP3    H239752   0.941   6.575   7.167  0.5131  2.8462 -0.1678
 6065TIP3   OH239753   6.240   4.237   2.387 -0.7154 -0.4003 -0.0272
 6065TIP3    H139754   6.330   4.231   2.420 -0.6457  1.6221  0.1849
 6065TIP3    H239755   6.192   4.170   2.436 -0.5018  2.1870  3.9524
 6066TIP3   OH239756   1.465   4.781   0.193 -0.4796  0.4981 -0.1275
 6066TIP3    H139757   1.494   4.872   0.184 -1.4065  0.6860 -1.4820
 6066TIP3    H239758   1.473   4.745   0.105  1.0845 -1.1264  0.6605
 6067TIP3   OH239759   5.335   5.143   1.583  0.2646  0.0215 -0.6700
 6067TIP3    H139760   5.263   5.195   1.547  1.0182  0.6062 -1.3437
 6067TIP3    H239761   5.383   5.204   1.639  0.7320 -0.1419 -0.8942
 6068TIP3   OH239762   3.489   4.038   7.110  0.7697 -0.0930  0.3852
 6068TIP3    H139763   3.407   4.080   7.080 -0.5632 -2.4533  0.5925
 6068TIP3    H239764   3.495   4.061   7.202  0.1983 -0.0999  0.4307
 6069TIP3   OH239765   7.010   3.317   1.012 -0.0447  0.3450  0.5896
 6069TIP3    H139766   7.046   3.348   1.095 -0.8821  0.0590  1.0592
 6069TIP3    H239767   6.916   3.315   1.025 -0.3354  1.9307 -0.9279
 6070TIP3   OH239768   6.483   3.366   1.885  0.3292 -0.2844 -0.2210
 6070TIP3    H139769   6.520   3.454   1.897  0.1180 -0.2851  0.4376
 6070TIP3    H239770   6.517   3.316   1.959  1.3033 -1.0425 -1.1640
 6071TIP3   OH239771   6.253   5.467   2.107  0.1875 -0.0836 -0.3407
 6071TIP3    H139772   6.273   5.489   2.198  0.6028  1.8704 -0.8748
 6071TIP3    H239773   6.338   5.464   2.063 -0.1447  1.1177 -1.1010
 6072TIP3   OH239774   6.012   5.095   6.838  0.8920  0.1603 -0.3088
 6072TIP3    H139775   5.961   5.061   6.765  1.3210  1.7654 -1.3745
 6072TIP3    H239776   5.947   5.133   6.897  0.3956 -2.5425  0.9524
 6073TIP3   OH239777   0.562   7.268   1.179  0.3633 -0.0127 -0.0252
 6073TIP3    H139778   0.491   7.306   1.127  1.5149 -0.4910 -1.9932
 6073TIP3    H239779   0.520   7.242   1.261 -0.5309  5.2283  1.3721
 6074TIP3   OH239780   4.321   4.053   0.062  0.6332 -0.0427 -0.2601
 6074TIP3    H139781   4.404   4.069   0.107 -0.3713  1.9313  1.0075
 6074TIP3    H239782   4.303   3.961   0.077  1.3752  0.0852  1.6232
 6075TIP3   OH239783   5.892   5.734   1.156 -0.4291  0.1635 -0.2681
 6075TIP3    H139784   5.834   5.700   1.088 -1.1317  0.6269  0.0940
 6075TIP3    H239785   5.936   5.809   1.115  1.0364 -1.0887 -1.0288
 6076TIP3   OH239786   7.089   6.223   2.011  1.0760  0.6558 -0.3684
 6076TIP3    H139787   7.113   6.300   2.063  2.4459 -0.1758  0.2634
 6076TIP3    H239788   7.128   6.149   2.058 -0.6639 -0.4848 -0.6900
 6077TIP3   OH239789   0.199   2.959   1.872  0.0296 -0.0717  0.0542
 6077TIP3    H139790   0.248   2.901   1.931 -0.0463  0.0189  0.2093
 6077TIP3    H239791   0.190   3.040   1.922  0.0768  0.0492 -0.1355
 6078TIP3   OH239792   0.048   5.407   1.187 -0.2182 -0.9130 -0.0198
 6078TIP3    H139793   0.104   5.459   1.244 -1.5402 -0.0596  0.5193
 6078TIP3    H239794   0.071   5.316   1.206  0.0391 -0.6035  1.1490
 6079TIP3   OH239795   4.793   3.085   1.707  0.4897 -0.0949  0.1896
 6079TIP3    H139796   4.769   3.126   1.624  1.6886  1.2151  0.4507
 6079TIP3    H239797   4.808   3.159   1.767  1.0783 -0.9718  1.1529
 6080TIP3   OH239798   6.327   2.984   1.365 -0.5848 -0.1214  0.5779
 6080TIP3    H139799   6.372   3.050   1.311  0.1191 -1.1442 -0.0962
 6080TIP3    H239800   6.265   3.035   1.418  0.2095  1.1276  0.3317
 6081TIP3   OH239801   7.164   4.719   7.092 -0.3000 -0.4013 -0.0965
 6081TIP3    H139802   7.210   4.635   7.094  1.5089  0.4899 -2.4312
 6081TIP3    H239803   7.128   4.724   7.004 -2.0295  0.4444  0.6379
 6082TIP3   OH239804   5.909   3.553   1.634 -0.1405 -0.2179 -0.2296
 6082TIP3    H139805   5.925   3.475   1.688  0.4364 -0.8554 -1.3129
 6082TIP3    H239806   5.930   3.627   1.691  0.6195 -0.8916  0.3685
 6083TIP3   OH239807   4.322   3.460   1.808  0.2151  0.4778  0.1872
 6083TIP3    H139808   4.333   3.408   1.729 -1.3426  1.4125 -0.6706
 6083TIP3    H239809   4.286   3.399   1.872  0.6395 -0.0621 -0.0859
 6084TIP3   OH239810   6.543   4.507   1.661  0.0809 -0.0843  0.1362
 6084TIP3    H139811   6.605   4.438   1.638 -1.5666 -1.5828  0.0311
 6084TIP3    H239812   6.541   4.505   1.757 -1.2963 -1.4523  0.1040
 6085TIP3   OH239813   7.073   3.897   1.919  0.4769 -0.4517  0.4761
 6085TIP3    H139814   6.995   3.859   1.881  0.7820  0.7988 -1.4893
 6085TIP3    H239815   7.112   3.948   1.848  3.5846 -1.8021  1.1230
 6086TIP3   OH239816   6.814   4.169   2.157 -0.7139  0.3057  0.0583
 6086TIP3    H139817   6.814   4.254   2.200 -1.1741  1.1295 -1.5425
 6086TIP3    H239818   6.904   4.136   2.169 -0.0846  1.7123 -0.6558
 6087TIP3   OH239819   5.046   4.995   0.743 -0.5994 -0.7477  0.0566
 6087TIP3    H139820   5.014   5.056   0.809  0.6338 -2.3310  2.2064
 6087TIP3    H239821   5.125   5.037   0.708 -0.5061 -0.4873  0.5734
 6088TIP3   OH239822   5.661   7.246   7.699  0.1039 -0.3506 -0.2902
 6088TIP3    H139823   5.576   7.238   7.655 -0.1804 -0.0366  0.2021
 6088TIP3    H239824   5.640   7.274   7.788  0.6215 -1.9232  0.3348
 6089TIP3   OH239825   6.929   4.298   1.026 -0.7358  0.1429 -0.0099
 6089TIP3    H139826   7.015   4.264   1.049 -0.7506  1.2357  1.7335
 6089TIP3    H239827   6.948   4.376   0.974 -0.7081 -0.9781 -1.7451
 6090TIP3   OH239828   5.231   5.672   0.297 -0.6627  0.0379  0.2297
 6090TIP3    H139829   5.315   5.665   0.252  0.1781  1.1427  1.5999
 6090TIP3    H239830   5.229   5.597   0.356 -1.3088 -0.8205 -0.8531
 6091TIP3   OH239831   4.434   7.278   1.750 -0.5530  0.0515 -0.3745
 6091TIP3    H139832   4.450   7.328   1.829  1.7741  2.0976 -2.0865
 6091TIP3    H239833   4.492   7.202   1.757 -0.2766  0.2803 -0.1929
 6092TIP3   OH239834   0.063   5.339   0.899  0.0891 -0.1926  0.4776
 6092TIP3    H139835   0.111   5.405   0.849 -1.2031  0.7272  0.4435
 6092TIP3    H239836   0.053   5.377   0.986  1.4039 -1.3470  1.1594
 6093TIP3   OH239837   1.105   5.325   0.193 -0.1540  1.0293 -0.6607
 6093TIP3    H139838   1.022   5.356   0.156 -1.1975 -0.1548  0.6542
 6093TIP3    H239839   1.088   5.315   0.286  0.4161 -2.5273 -0.8569
 6094TIP3   OH239840   6.798   5.458   2.149 -0.3056  0.2711 -0.3203
 6094TIP3    H139841   6.863   5.388   2.154 -2.5383 -1.8573  0.0132
 6094TIP3    H239842   6.730   5.430   2.210 -3.4562  0.3765 -3.6455
 6095TIP3   OH239843   0.733   4.134   0.407  0.0925 -0.3936  0.7173
 6095TIP3    H139844   0.799   4.134   0.477  1.2313  1.8735 -0.3184
 6095TIP3    H239845   0.668   4.198   0.436 -0.4352 -0.8651  0.5895
 6096TIP3   OH239846   7.220   5.089   0.251  0.4222  0.2643  0.2534
 6096TIP3    H139847   7.175   5.141   0.184  0.3638  0.1441  0.1999
 6096TIP3    H239848   7.303   5.064   0.211 -1.4812 -3.6791 -1.4965
 6097TIP3   OH239849   0.969   4.359   0.498  0.4568  0.2727  0.5748
 6097TIP3    H139850   1.023   4.427   0.537  0.7611  0.5441 -0.3231
 6097TIP3    H239851   0.907   4.405   0.443 -0.4515 -0.0653  1.3044
 6098TIP3   OH239852   0.738   4.588   0.915  0.0501  0.1956 -0.4448
 6098TIP3    H139853   0.746   4.493   0.924 -0.6420  0.2654  1.0576
 6098TIP3    H239854   0.764   4.622   1.000 -1.1696  1.2721 -0.4978
 6099TIP3   OH239855   5.171   4.615   1.811  0.3472  0.0753  0.3526
 6099TIP3    H139856   5.191   4.636   1.902  0.7155 -0.3140  0.3598
 6099TIP3    H239857   5.102   4.549   1.816  0.6875 -0.2788  0.3527
 6100TIP3   OH239858   7.135   5.294   1.414 -0.9932 -0.0912  0.5882
 6100TIP3    H139859   7.072   5.283   1.485 -1.3372 -1.9611  0.0127
 6100TIP3    H239860   7.159   5.205   1.389  0.2025  0.5730 -0.6968
 6101TIP3   OH239861   0.390   4.826   1.751 -0.5340  0.7290  0.2551
 6101TIP3    H139862   0.472   4.835   1.701 -0.8626 -0.5238 -0.5543
 6101TIP3    H239863   0.383   4.732   1.767 -1.6805  0.8663  0.5659
 6102TIP3   OH239864   5.361   6.209   1.000 -0.4666 -0.6073 -0.2172
 6102TIP3    H139865   5.308   6.281   1.035  0.4006  1.7895 -3.5542
 6102TIP3    H239866   5.443   6.213   1.050 -0.1611  1.1868 -0.8373
 6103TIP3   OH239867   6.375   5.612   0.867  0.5539  0.0945 -0.3220
 6103TIP3    H139868   6.460   5.575   0.842  0.2444  1.1741 -3.1470
 6103TIP3    H239869   6.397   5.689   0.919  1.2964 -0.1760 -0.2282
 6104TIP3   OH239870   7.077   4.488   1.538  0.3686  0.1961  0.1779
 6104TIP3    H139871   7.068   4.432   1.460  1.4366  0.7501 -0.3638
 6104TIP3    H239872   7.047   4.433   1.610 -0.6307 -0.3320 -0.6229
 6105TIP3   OH239873   5.971   2.387   1.374  0.2471 -0.3953  0.4482
 6105TIP3    H139874   5.954   2.309   1.321  0.7051  0.1160 -0.4483
 6105TIP3    H239875   5.888   2.401   1.421 -0.4219 -0.3885 -0.7167
 6106TIP3   OH239876   4.685   6.010   1.390  0.5303 -0.2593  0.3087
 6106TIP3    H139877   4.737   6.061   1.452  1.0651 -0.8352  0.3482
 6106TIP3    H239878   4.750   5.972   1.330  0.1145 -0.5750  0.0562
 6107TIP3   OH239879   0.900   5.922   1.729 -0.0082  0.1872 -0.2863
 6107TIP3    H139880   0.967   5.867   1.689  0.0171  0.6902 -0.9431
 6107TIP3    H239881   0.832   5.929   1.662 -0.0470  0.8910 -0.1732
 6108TIP3   OH239882   6.925   5.066   1.022 -0.4237  0.7329 -0.2554
 6108TIP3    H139883   6.960   4.994   0.970  0.2158  0.8596 -0.0014
 6108TIP3    H239884   6.996   5.130   1.026 -0.6962  1.0102  0.2290
 6109TIP3   OH239885   0.013   6.982   2.251 -0.1212  0.4078 -0.4073
 6109TIP3    H139886  -0.017   7.067   2.285  1.4000  1.3148 -1.2977
 6109TIP3    H239887   0.007   6.991   2.156 -2.6953 -1.5143 -0.4954
 6110TIP3   OH239888   6.165   5.842   0.763 -0.5147  0.1991  0.2147
 6110TIP3    H139889   6.227   5.796   0.705  1.0074 -0.7125  2.4567
 6110TIP3    H239890   6.177   5.934   0.742  2.1196  0.0926  1.0167
 6111TIP3   OH239891   1.543   5.851   0.136  0.1573 -0.2164 -0.3838
 6111TIP3    H139892   1.623   5.835   0.187  1.2427 -1.6142 -2.4526
 6111TIP3    H239893   1.560   5.932   0.089  1.6419 -2.0105 -3.1094
 6112TIP3   OH239894   7.282   6.908   1.417 -0.1552  0.9541 -0.4456
 6112TIP3    H139895   7.244   6.824   1.441 -0.1499  1.5663  1.8620
 6112TIP3    H239896   7.291   6.955   1.500  3.8055  1.5809 -1.1044
 6113TIP3   OH239897   7.036   6.788   0.318  0.2639  0.1071  0.0770
 6113TIP3    H139898   7.073   6.733   0.249 -0.6462 -2.1079  1.3191
 6113TIP3    H239899   7.107   6.848   0.342  1.9622 -1.8938  0.1262
 6114TIP3   OH239900   1.895   5.161   1.841  0.0912  0.2403 -0.0549
 6114TIP3    H139901   1.897   5.190   1.933 -0.9594 -2.7290  0.9870
 6114TIP3    H239902   1.807   5.183   1.811  0.2030  0.6001 -0.1109
 6115TIP3   OH239903   7.240   5.395   2.207 -0.4366 -0.8588 -0.1202
 6115TIP3    H139904   7.257   5.487   2.228 -1.0287 -0.9813  0.9296
 6115TIP3    H239905   7.327   5.355   2.202 -0.0433  0.2623 -3.0196
 6116TIP3   OH239906   7.298   6.793   2.457 -0.4256  0.0369 -0.0600
 6116TIP3    H139907   7.287   6.862   2.391 -0.1171  0.3107  0.1739
 6116TIP3    H239908   7.228   6.731   2.439  0.3453 -0.4595 -1.3492
 6117TIP3   OH239909   6.478   6.877   1.894 -0.5223  0.2853  0.1949
 6117TIP3    H139910   6.392   6.914   1.872 -0.2921  0.8635  0.2782
 6117TIP3    H239911   6.533   6.898   1.818  0.4141  2.7173  1.5007
 6118TIP3   OH239912   5.216   6.909   0.528  0.5572 -0.5118  0.0784
 6118TIP3    H139913   5.228   6.990   0.477 -0.6303 -0.3617  0.0319
 6118TIP3    H239914   5.155   6.933   0.597 -0.6269 -1.6223 -0.5583
 6119TIP3   OH239915   1.697   2.838   1.164  0.5860  0.5346 -0.0505
 6119TIP3    H139916   1.775   2.892   1.153  0.6219  0.5702  0.3527
 6119TIP3    H239917   1.666   2.860   1.252  0.9098 -0.4997  0.3280
 6120TIP3   OH239918   4.962   4.625   1.578 -1.0277 -0.2516  0.6916
 6120TIP3    H139919   5.035   4.564   1.588 -0.8373 -0.0423  0.5983
 6120TIP3    H239920   4.884   4.573   1.595 -0.8940 -0.6386  0.1045
 6121TIP3   OH239921   3.935   4.438   1.905 -0.0973 -0.4681  0.0651
 6121TIP3    H139922   3.948   4.485   1.988 -0.3816 -0.6140  0.1960
 6121TIP3    H239923   3.983   4.489   1.840  0.4667 -0.5817  0.3967
 6122TIP3   OH239924   6.108   5.625   0.912  0.4703  0.5803 -0.0076
 6122TIP3    H139925   6.107   5.701   0.854 -0.1128  0.5738 -0.0093
 6122TIP3    H239926   6.201   5.606   0.925  0.5962  0.0904 -1.5733
 6123TIP3   OH239927   6.967   5.171   2.570 -0.1556  0.5142 -0.0478
 6123TIP3    H139928   7.037   5.122   2.614  0.5390  3.2687  2.0505
 6123TIP3    H239929   6.959   5.129   2.484  1.2334 -2.4509  1.2068
 6124TIP3   OH239930   0.235   5.006   6.440 -0.2723  0.1306  0.7292
 6124TIP3    H139931   0.278   5.091   6.433  1.7245 -0.8572  0.6273
 6124TIP3    H239932   0.290   4.948   6.387 -0.7691 -1.5411  2.0280
 6125TIP3   OH239933   4.792   0.857   1.370  0.2314  0.9137  0.1277
 6125TIP3    H139934   4.831   0.883   1.454 -1.2898 -0.8326  1.4102
 6125TIP3    H239935   4.775   0.763   1.380 -0.3892  0.7959 -1.9727
 6126TIP3   OH239936   2.685   3.983   0.024 -0.3435 -0.3632 -0.1726
 6126TIP3    H139937   2.608   4.014   0.071  0.9549  0.3594  1.5179
 6126TIP3    H239938   2.678   4.022  -0.063 -0.9176  1.2126  0.5738
 6127TIP3   OH239939   1.314   5.967   1.596 -0.4180  0.8707 -0.1547
 6127TIP3    H139940   1.318   6.014   1.680  0.9596  1.9760 -0.8238
 6127TIP3    H239941   1.372   5.892   1.608 -2.0509 -0.2908  0.6642
 6128TIP3   OH239942   6.615   5.036   0.737  0.4404 -0.0923 -0.3063
 6128TIP3    H139943   6.541   5.004   0.685  1.0904 -0.8391 -0.7768
 6128TIP3    H239944   6.682   5.057   0.673  0.5641  0.7976  0.1092
 6129TIP3   OH239945   5.188   3.840   1.433  0.0480  0.5820  0.6503
 6129TIP3    H139946   5.182   3.887   1.516  2.5698  2.8811 -0.3620
 6129TIP3    H239947   5.281   3.821   1.423 -0.4101 -0.9878 -0.9498
 6130TIP3   OH239948   5.915   4.754   1.293  0.0459  0.1605  0.2408
 6130TIP3    H139949   5.823   4.737   1.271  0.2670 -0.0583 -0.5187
 6130TIP3    H239950   5.925   4.848   1.283 -0.0437  0.1587  0.1395
 6131TIP3   OH239951   1.498   4.574   8.161  0.2080  0.0468 -0.6259
 6131TIP3    H139952   1.516   4.483   8.185  1.1756  0.5016  0.4474
 6131TIP3    H239953   1.577   4.603   8.117  0.6656  0.9236  0.7316
 6132TIP3   OH239954   0.078   3.897   2.201  0.0704  0.2862 -0.0354
 6132TIP3    H139955   0.157   3.873   2.248 -1.6903 -1.6252  2.0839
 6132TIP3    H239956   0.025   3.944   2.265 -0.6121  1.3951 -1.3689
 6133TIP3   OH239957   6.984   6.429   0.512 -0.2701  0.0077 -0.6551
 6133TIP3    H139958   6.958   6.387   0.594  0.2832 -0.3146 -0.6440
 6133TIP3    H239959   6.941   6.514   0.514 -1.2429 -0.4732 -0.5845
 6134TIP3   OH239960   2.819   7.054   1.274  0.7895 -0.3560 -0.0669
 6134TIP3    H139961   2.765   7.128   1.247  0.2017 -0.0727  1.7871
 6134TIP3    H239962   2.829   7.065   1.369  2.5394 -1.4385 -0.0952
 6135TIP3   OH239963   1.673   6.883   6.772 -0.2813  0.1668 -0.1705
 6135TIP3    H139964   1.592   6.861   6.725 -1.7889  0.9697  1.9890
 6135TIP3    H239965   1.733   6.811   6.749 -1.9582 -1.0497 -0.9164
 6136TIP3   OH239966   1.354   6.563   7.998  0.0433  0.1156 -0.0407
 6136TIP3    H139967   1.383   6.472   7.995  1.1083  0.4744 -1.5394
 6136TIP3    H239968   1.296   6.573   7.922 -0.3521  0.5911  0.3189
 6137TIP3   OH239969   2.140   6.762   1.668  0.6512  0.8216 -0.6088
 6137TIP3    H139970   2.045   6.772   1.675  0.5488 -0.5941  0.1716
 6137TIP3    H239971   2.152   6.684   1.614  1.3331 -0.0658  0.7871
 6138TIP3   OH239972   6.682   1.728   6.860  0.0187  0.1773 -0.3970
 6138TIP3    H139973   6.708   1.813   6.827 -1.3088 -0.3119 -2.8219
 6138TIP3    H239974   6.668   1.674   6.782 -2.7457 -1.1644  0.9143
 6139TIP3   OH239975   0.618   1.905   6.950 -0.3170 -0.2015 -0.1961
 6139TIP3    H139976   0.570   1.987   6.966 -2.1087 -1.1175 -0.7977
 6139TIP3    H239977   0.596   1.882   6.860 -2.9078 -3.3132  1.1292
 6140TIP3   OH239978   2.284   5.716   1.626 -0.1107 -0.3471 -0.0302
 6140TIP3    H139979   2.306   5.724   1.719 -0.5577 -3.3496  0.3742
 6140TIP3    H239980   2.191   5.696   1.625 -0.7600  2.5023 -1.3048
 6141TIP3   OH239981   0.756   0.361   8.443 -0.1899 -0.6705  1.0166
 6141TIP3    H139982   0.774   0.450   8.472 -3.4574  0.5969 -0.5989
 6141TIP3    H239983   0.692   0.328   8.505  0.5226 -1.6789  1.2277
 6142TIP3   OH239984   0.043   7.203   0.763  0.2072  0.2404 -0.1715
 6142TIP3    H139985  -0.052   7.216   0.754  0.3409  1.9542  0.6062
 6142TIP3    H239986   0.078   7.216   0.675 -0.2377 -0.0866 -0.4014
 6143TIP3   OH239987   2.404   5.624   0.005 -0.2100 -0.1318 -0.3631
 6143TIP3    H139988   2.324   5.674  -0.012  0.4347  0.0074 -3.2282
 6143TIP3    H239989   2.456   5.633  -0.075  2.3715 -0.8327  1.1540
 6144TIP3   OH239990   1.880   6.291   1.227  0.1824 -0.0310 -0.6291
 6144TIP3    H139991   1.800   6.319   1.272 -0.4944  0.5714 -2.1852
 6144TIP3    H239992   1.881   6.195   1.237  0.2651  0.1248  1.0024
 6145TIP3   OH239993   0.430   0.192   8.369  0.5626 -0.7869  0.1281
 6145TIP3    H139994   0.463   0.166   8.455  0.0014 -0.6373  0.3871
 6145TIP3    H239995   0.389   0.113   8.334  0.8749 -0.8735 -0.0432
 6146TIP3   OH239996   0.920   0.513   6.540 -0.0183  0.2388  0.4291
 6146TIP3    H139997   0.994   0.558   6.580  1.0853 -1.3419  0.1932
 6146TIP3    H239998   0.942   0.420   6.546 -1.2755 -0.1709 -1.0388
 6147TIP3   OH239999   2.441   0.119   1.171  0.2887  0.1914  0.0974
 6147TIP3    H140000   2.375   0.065   1.128  0.5003  0.2098 -0.2500
 6147TIP3    H240001   2.400   0.145   1.254  0.0178 -0.1327  0.0653
 6148TIP3   OH240002   1.240   6.603   1.799 -0.0448 -0.4116  0.2797
 6148TIP3    H140003   1.250   6.631   1.890 -0.9961 -1.0924  0.6056
 6148TIP3    H240004   1.241   6.507   1.803 -2.3566 -0.4825 -0.1424
 6149TIP3   OH240005   1.328   6.452   0.455 -0.1039 -0.0457  0.3164
 6149TIP3    H140006   1.400   6.389   0.444 -0.4409 -0.4372  0.3246
 6149TIP3    H240007   1.370   6.537   0.452  0.2869 -0.2538 -0.2684
 6150TIP3   OH240008   0.769   6.939   8.197  0.1487  0.6384 -0.0811
 6150TIP3    H140009   0.743   7.012   8.253 -0.4254  0.4535 -0.0997
 6150TIP3    H240010   0.863   6.928   8.213 -0.2552 -0.2709  1.8493
 6151TIP3   OH240011   0.949   6.395   1.717 -0.0240 -0.0169  0.0034
 6151TIP3    H140012   0.975   6.306   1.742  2.5031 -0.2806 -3.1721
 6151TIP3    H240013   0.997   6.452   1.777  0.2529 -0.7645  0.4996
 6152TIP3   OH240014   1.332   7.297   0.921  0.2787 -0.0005 -0.4424
 6152TIP3    H140015   1.319   7.244   0.842  0.9314 -0.8867  0.0471
 6152TIP3    H240016   1.398   7.362   0.895  1.2071 -0.9004 -0.3327
 6153TIP3   OH240017   2.386   7.020   8.389  0.1877  0.2124 -0.2733
 6153TIP3    H140018   2.466   6.969   8.403  0.6024  0.3138 -2.1359
 6153TIP3    H240019   2.316   6.955   8.384  0.5042 -0.0702 -1.1159
 6154TIP3   OH240020   3.406   7.273   0.459 -0.0494  0.5079 -0.1231
 6154TIP3    H140021   3.484   7.220   0.444 -1.5730 -1.6133 -0.8496
 6154TIP3    H240022   3.425   7.323   0.539  1.5808 -0.8253  0.3403
 6155TIP3   OH240023   1.516   0.224   6.232 -0.4719  0.0714 -0.3604
 6155TIP3    H140024   1.450   0.282   6.195  0.4754  0.0961 -2.0508
 6155TIP3    H240025   1.571   0.200   6.158 -0.8103 -2.9591  0.3245
 6156TIP3   OH240026   1.707   0.507   1.869 -0.4524 -0.2769 -0.5406
 6156TIP3    H140027   1.662   0.423   1.880 -0.0750 -0.6434 -1.7606
 6156TIP3    H240028   1.646   0.572   1.903 -1.0947 -0.9666 -0.3687
 6157TIP3   OH240029   2.414   6.721   0.649  0.3928 -0.0664  0.9504
 6157TIP3    H140030   2.369   6.759   0.725 -1.4829 -1.6930  0.7015
 6157TIP3    H240031   2.370   6.760   0.573  0.9364  0.0488  0.6885
 6158TIP3   OH240032   2.638   6.846   8.434  0.1924 -0.7082 -0.4025
 6158TIP3    H140033   2.626   6.751   8.434 -0.3693 -0.6490  0.1893
 6158TIP3    H240034   2.733   6.859   8.435  0.2907 -1.2436 -1.9602
 6159TIP3   OH240035   0.335   6.245   8.494 -0.2852 -0.2552 -0.3911
 6159TIP3    H140036   0.296   6.253   8.581  0.5934  0.6214 -0.0669
 6159TIP3    H240037   0.314   6.156   8.466 -0.2263 -0.6841  0.8902
 6160TIP3   OH240038   2.093   7.151   1.947 -0.1424  0.3806  0.2793
 6160TIP3    H140039   2.055   7.201   2.019  0.8435  5.2198 -2.2626
 6160TIP3    H240040   2.188   7.164   1.955 -0.0161  1.1557 -1.8553
 6161TIP3   OH240041   0.906   5.886   7.543  0.1321 -0.3623  0.1370
 6161TIP3    H140042   0.937   5.877   7.453  1.9511  0.8705  0.6223
 6161TIP3    H240043   0.870   5.800   7.564  1.5831 -1.2882 -1.0781
 6162TIP3   OH240044   0.163   5.506   0.556 -0.2237 -0.1483  0.2613
 6162TIP3    H140045   0.081   5.458   0.547 -1.3152  1.2422  2.3191
 6162TIP3    H240046   0.224   5.442   0.594 -1.3443 -0.2748  1.9375
 6163TIP3   OH240047   2.387   7.292   8.389  0.3716 -0.2909  0.2869
 6163TIP3    H140048   2.323   7.305   8.459  0.7616 -0.4063  0.6611
 6163TIP3    H240049   2.388   7.197   8.375  1.5493 -0.4245  1.2883
 6164TIP3   OH240050   3.286   1.617   7.988 -0.2914 -0.0904 -0.0330
 6164TIP3    H140051   3.354   1.551   7.986 -0.1361  0.0895 -0.8102
 6164TIP3    H240052   3.204   1.569   7.980 -0.1903 -0.2016 -0.3719
 6165TIP3   OH240053   1.951   0.366   0.854 -0.1764  0.8846 -0.4065
 6165TIP3    H140054   1.883   0.315   0.810 -1.4387  1.5187  0.7675
 6165TIP3    H240055   2.003   0.404   0.783 -1.1076  0.4823 -1.3187
 6166TIP3   OH240056   2.580   6.317   8.405 -0.7314 -0.5499 -0.0619
 6166TIP3    H140057   2.675   6.317   8.416 -0.6215 -1.0960 -0.9300
 6166TIP3    H240058   2.559   6.405   8.376 -0.6210 -0.1142  1.1638
 6167TIP3   OH240059   3.015   5.130   8.297  0.1641  0.1369  0.3464
 6167TIP3    H140060   2.999   5.100   8.208 -0.5941  2.8739 -0.4930
 6167TIP3    H240061   3.047   5.052   8.343  1.7835 -1.0353 -2.6111
 6168TIP3   OH240062   0.843   0.414   0.301 -0.0362  0.1685 -0.1118
 6168TIP3    H140063   0.788   0.438   0.227 -0.5001 -1.4860 -0.3366
 6168TIP3    H240064   0.857   0.495   0.350 -1.8272  0.7816 -0.6183
 6169TIP3   OH240065   2.214   6.013   0.756 -0.1594  0.2263  0.2236
 6169TIP3    H140066   2.217   5.921   0.730 -2.5856  0.0910  0.2202
 6169TIP3    H240067   2.235   6.061   0.676 -0.7481 -0.3072 -0.2642
 6170TIP3   OH240068   2.268   7.251   1.027  0.1287  0.0353 -0.6783
 6170TIP3    H140069   2.222   7.189   1.084  0.6377 -1.7547 -2.1936
 6170TIP3    H240070   2.204   7.275   0.960  0.2990  0.2708 -0.7569
 6171TIP3   OH240071   7.272   0.769   2.160  0.2886  0.9702  0.2992
 6171TIP3    H140072   7.359   0.734   2.180 -0.3207  0.4072  2.0982
 6171TIP3    H240073   7.224   0.696   2.121  1.3709  1.9760 -3.0601
 6172TIP3   OH240074   3.215   5.927   7.524 -0.1033 -0.7190 -0.2845
 6172TIP3    H140075   3.134   5.969   7.495  0.5766 -1.1161 -2.9113
 6172TIP3    H240076   3.266   5.998   7.563 -1.0276 -0.1350 -0.1252
 6173TIP3   OH240077   0.047   6.638   1.976 -0.4340 -0.0723 -0.0608
 6173TIP3    H140078   0.019   6.615   2.064  0.0260 -0.2537  0.0383
 6173TIP3    H240079   0.021   6.563   1.922  3.0179 -1.9033  0.6186
 6174TIP3   OH240080   4.134   1.089   1.094 -0.4209  0.1222 -0.1628
 6174TIP3    H140081   4.104   1.020   1.153  1.3658 -0.0306  0.6128
 6174TIP3    H240082   4.121   1.170   1.143  1.6432 -0.0537  0.7383
 6175TIP3   OH240083   0.606   6.995   1.871  0.2004 -0.5300 -0.0532
 6175TIP3    H140084   0.595   6.931   1.801  0.6249  0.6681 -1.2277
 6175TIP3    H240085   0.678   6.961   1.924  3.5359  1.2176 -3.2796
 6176TIP3   OH240086   1.545   6.639   1.348  0.3713 -0.4547 -0.4023
 6176TIP3    H140087   1.546   6.735   1.352  2.4772 -0.4925  0.6148
 6176TIP3    H240088   1.530   6.612   1.439  1.1848 -1.0996 -0.4622
 6177TIP3   OH240089   1.589   7.184   8.474 -0.2525  0.2363  0.1452
 6177TIP3    H140090   1.584   7.118   8.405 -2.0286  0.7104 -0.1902
 6177TIP3    H240091   1.593   7.268   8.428  1.7239  0.4233  0.5779
 6178TIP3   OH240092   1.187   7.163   2.307  0.2018  0.4656 -0.1366
 6178TIP3    H140093   1.135   7.243   2.309 -2.2737 -1.0435 -1.2580
 6178TIP3    H240094   1.273   7.188   2.342 -1.0864  3.1629  1.1909
 6179TIP3   OH240095   7.009   0.014   1.376  0.7270  0.1957  0.8198
 6179TIP3    H140096   7.050  -0.001   1.291 -2.0144 -1.5674 -0.2524
 6179TIP3    H240097   7.045   0.098   1.405  1.0108  1.2845 -2.4871
 6180TIP3   OH240098   7.035   5.710   1.995 -0.2911 -0.3565 -0.3045
 6180TIP3    H140099   6.961   5.650   1.985  0.2458 -1.0565 -0.1887
 6180TIP3    H240100   7.017   5.756   2.077 -0.4834 -0.6954 -0.1523
 6181TIP3   OH240101   0.263   1.752   0.999 -0.2906 -0.4318  0.1727
 6181TIP3    H140102   0.186   1.704   1.030 -0.8038  0.4136  0.2262
 6181TIP3    H240103   0.333   1.725   1.058 -1.1817  0.9010  1.8813
 6182TIP3   OH240104   6.725   7.163   0.182  0.6923  0.0180  0.8171
 6182TIP3    H140105   6.807   7.115   0.182  1.1878  0.8396  0.0311
 6182TIP3    H240106   6.692   7.155   0.092  0.5147  0.6713  0.8154
 6183TIP3   OH240107   1.291   5.599   2.143  0.0053  0.9426 -0.1350
 6183TIP3    H140108   1.257   5.661   2.208 -0.3944  1.3597 -0.7441
 6183TIP3    H240109   1.330   5.529   2.196  0.2798  1.6083  0.5601
 6184TIP3   OH240110   0.133   5.622   0.927  0.5864  0.6279  0.1258
 6184TIP3    H140111   0.219   5.600   0.962  0.0560 -1.9067 -0.1185
 6184TIP3    H240112   0.083   5.651   1.003  0.9001 -0.2799  0.6845
 6185TIP3   OH240113   7.035   5.316   1.089 -0.0231  0.7253  0.0469
 6185TIP3    H140114   7.071   5.294   1.176  2.3093  1.8456 -0.5793
 6185TIP3    H240115   7.084   5.394   1.063 -1.0173  0.6468 -2.0975
 6186TIP3   OH240116   0.709   5.195   1.916 -0.3077 -0.1503  0.3927
 6186TIP3    H140117   0.788   5.196   1.863 -0.3333  0.3714  0.3533
 6186TIP3    H240118   0.715   5.116   1.969 -0.5467 -0.9692 -0.7848
 6187TIP3   OH240119   1.483   5.940   0.633  0.2970  0.1727 -0.8964
 6187TIP3    H140120   1.403   5.992   0.647  0.5010  0.6495 -1.4852
 6187TIP3    H240121   1.548   5.983   0.689 -0.3161 -1.3488  1.0539
 6188TIP3   OH240122   2.541   7.105   0.972  0.2823 -0.4986 -0.0407
 6188TIP3    H140123   2.455   7.147   0.974  1.4727  2.0350  0.6380
 6188TIP3    H240124   2.560   7.085   1.064  1.2984  0.9150  0.0797
 6189TIP3   OH240125   2.675   0.302   0.329 -0.0913  0.1320  0.0900
 6189TIP3    H140126   2.585   0.275   0.348  0.1540  0.2136  1.4164
 6189TIP3    H240127   2.704   0.242   0.260 -1.0166 -0.1767 -0.0323
 6190TIP3   OH240128   1.365   4.884   1.807  0.3370  0.0271  0.4179
 6190TIP3    H140129   1.367   4.939   1.729 -0.8150 -2.0712 -1.1504
 6190TIP3    H240130   1.297   4.921   1.862  1.1366  1.5021  0.4347
 6191TIP3   OH240131   1.305   0.466   6.718 -0.7105  0.2702  0.2249
 6191TIP3    H140132   1.280   0.490   6.629  2.8909  0.7381 -0.7130
 6191TIP3    H240133   1.268   0.378   6.730 -1.3537  0.2707 -1.6487
 6192TIP3   OH240134   0.790   6.617   0.839 -0.3729 -0.1352 -0.2874
 6192TIP3    H140135   0.827   6.562   0.770 -1.1386  0.6087 -1.3094
 6192TIP3    H240136   0.697   6.597   0.839 -0.1404 -1.3432  1.6785
 6193TIP3   OH240137   1.356   5.787   2.535  0.4982  0.4510  0.0606
 6193TIP3    H140138   1.446   5.801   2.566  1.9865 -1.8446 -2.8784
 6193TIP3    H240139   1.355   5.696   2.505 -2.4284  0.8475 -1.2173
 6194TIP3   OH240140   2.001   1.127   0.968 -0.0180  0.4640 -0.2226
 6194TIP3    H140141   2.095   1.130   0.947 -0.1961 -1.7063 -1.4270
 6194TIP3    H240142   1.989   1.041   1.008 -1.5598  0.6735 -0.2342
 6195TIP3   OH240143   1.210   6.325   1.842  0.2204  0.1951  0.7228
 6195TIP3    H140144   1.247   6.347   1.927 -1.8702  0.4181  1.6095
 6195TIP3    H240145   1.144   6.259   1.860  0.2484 -0.2869 -0.8264
 6196TIP3   OH240146   7.009   0.595   0.359 -0.0351  0.2132  0.9452
 6196TIP3    H140147   6.954   0.543   0.300 -0.2175 -2.3208  3.2125
 6196TIP3    H240148   7.091   0.607   0.312 -0.0601 -2.0268  0.2742
 6197TIP3   OH240149   0.947   6.023   8.396  0.0454  0.2916 -0.0591
 6197TIP3    H140150   0.993   5.995   8.317  0.4963 -0.7920  0.5722
 6197TIP3    H240151   0.972   5.958   8.462 -4.0608 -1.5635 -0.2132
 6198TIP3   OH240152   0.470   7.020   7.560  0.5877 -0.2165  0.3413
 6198TIP3    H140153   0.452   6.955   7.629  2.3161 -0.1355  0.9140
 6198TIP3    H240154   0.510   7.093   7.607  1.2520  0.0775 -0.6643
 6199TIP3   OH240155   0.235   0.549   1.075  0.0140 -0.1147  0.1027
 6199TIP3    H140156   0.238   0.587   0.987 -1.1085  0.1591  0.1812
 6199TIP3    H240157   0.190   0.465   1.063  0.4646 -0.3858  0.3074
 6200TIP3   OH240158   2.152   5.705   0.345 -0.2403 -0.1279 -0.0552
 6200TIP3    H140159   2.071   5.679   0.388  0.5716 -1.9320  0.4575
 6200TIP3    H240160   2.153   5.652   0.264  0.0639  0.4436 -0.4272
 6201TIP3   OH240161   6.968   6.850   7.695 -0.3229  0.1281 -0.2387
 6201TIP3    H140162   6.991   6.807   7.777 -1.1106  2.1525  1.0859
 6201TIP3    H240163   7.004   6.938   7.703 -1.9660  0.9139 -1.3081
 6202TIP3   OH240164   1.440   6.274   1.048 -0.2638  0.4411  0.1015
 6202TIP3    H140165   1.487   6.327   1.113  1.1408  0.9414 -1.2833
 6202TIP3    H240166   1.369   6.331   1.018 -0.6690  0.3591  0.8716
 6203TIP3   OH240167   1.192   4.778   0.060 -0.0716 -0.0264  0.3211
 6203TIP3    H140168   1.280   4.813   0.072  0.2573 -1.7080  2.9098
 6203TIP3    H240169   1.134   4.843   0.101 -0.2900  1.9340 -2.8298
 6204TIP3   OH240170   6.690   0.398   0.894  0.0612  0.0318  0.0940
 6204TIP3    H140171   6.638   0.403   0.813 -0.1493 -0.4086  0.2027
 6204TIP3    H240172   6.709   0.305   0.905  0.0072  0.0809  0.6031
 6205TIP3   OH240173   3.387   5.386   1.228 -0.3032  0.0953 -0.4136
 6205TIP3    H140174   3.305   5.434   1.233  0.4716  1.6700 -2.2813
 6205TIP3    H240175   3.374   5.322   1.159  0.0248  0.3164 -0.6817
 6206TIP3   OH240176   1.396   5.010   8.462  0.4220  0.0135 -0.1521
 6206TIP3    H140177   1.477   5.016   8.513  2.1150 -2.1883 -2.4891
 6206TIP3    H240178   1.382   5.099   8.429  2.8333  0.0941 -1.0650
 6207TIP3   OH240179   0.788   5.895   0.976  0.0761 -0.1215  0.3780
 6207TIP3    H140180   0.732   5.896   1.053  1.4723  1.5878  1.4199
 6207TIP3    H240181   0.858   5.958   0.996 -0.4468  1.6401 -2.9443
 6208TIP3   OH240182   1.484   6.065   7.534  0.1212 -0.2642 -0.1207
 6208TIP3    H140183   1.404   6.090   7.581  0.6890 -0.9015  1.2271
 6208TIP3    H240184   1.457   6.055   7.443 -0.9977  1.0851  0.0471
 6209TIP3   OH240185   1.141   0.941   8.374  0.3604 -0.1554  0.7621
 6209TIP3    H140186   1.235   0.952   8.378  0.2374  2.1577 -1.4596
 6209TIP3    H240187   1.107   0.991   8.448  0.7435  1.7005 -0.2702
 6210TIP3   OH240188   1.931   4.271   0.605 -0.1625 -0.5817  0.0147
 6210TIP3    H140189   1.978   4.228   0.676 -0.3700 -1.0974 -0.1599
 6210TIP3    H240190   1.855   4.311   0.648 -0.3894 -1.0529  0.0553
 6211TIP3   OH240191   5.800   6.380   7.260 -0.0529 -0.3930  0.1335
 6211TIP3    H140192   5.841   6.448   7.207  0.3713 -0.9041 -0.2076
 6211TIP3    H240193   5.808   6.410   7.350 -1.8195  1.0530 -0.1645
 6212TIP3   OH240194   3.125   1.773   1.605 -0.4100  0.2900  0.0757
 6212TIP3    H140195   3.189   1.836   1.636  0.6642 -1.2917  1.1766
 6212TIP3    H240196   3.059   1.770   1.675  0.2409 -0.7619  0.6660
 6213TIP3   OH240197   1.035   1.003   0.271 -0.2471  0.1790 -0.6501
 6213TIP3    H140198   0.986   1.047   0.202 -1.0032 -2.0296 -1.5281
 6213TIP3    H240199   1.054   0.916   0.236  3.3783  0.5849  0.0736
 6214TIP3   OH240200   0.030   1.279   1.768  0.4048  1.1911  0.3935
 6214TIP3    H140201   0.053   1.273   1.861 -2.4923  0.3186  1.1048
 6214TIP3    H240202   0.066   1.198   1.730 -1.6978 -0.3330  1.5472
 6215TIP3   OH240203   1.581   1.197   7.082  0.0453  0.8586  0.7141
 6215TIP3    H140204   1.535   1.275   7.111 -1.3301 -0.0317  0.9595
 6215TIP3    H240205   1.579   1.201   6.986 -0.6149  0.7940  0.7211
 6216TIP3   OH240206   0.290   6.196   2.760 -0.6569  0.4751  0.3477
 6216TIP3    H140207   0.304   6.281   2.803  0.7071 -0.0328  0.9173
 6216TIP3    H240208   0.219   6.213   2.697 -0.7372  1.9122  0.8019
 6217TIP3   OH240209   1.955   6.623   0.513 -1.0731 -0.1946 -0.1955
 6217TIP3    H140210   1.912   6.541   0.540 -0.4530 -0.4955 -0.1211
 6217TIP3    H240211   1.964   6.672   0.595 -1.0823 -0.2210 -0.1785
 6218TIP3   OH240212   2.017   6.042   1.989  0.2389 -1.3844  0.4423
 6218TIP3    H140213   2.074   6.047   1.913  0.7739 -1.2108  0.8513
 6218TIP3    H240214   2.074   6.061   2.063 -0.4633 -0.6669  0.8092
 6219TIP3   OH240215   2.207   1.706   7.400  0.0498  0.0820  0.0270
 6219TIP3    H140216   2.235   1.615   7.391 -0.3656  0.0085 -0.4904
 6219TIP3    H240217   2.116   1.707   7.372  0.7584  1.1093 -2.3296
 6220TIP3   OH240218   1.627   0.161   2.252 -0.2166  0.2032 -0.2648
 6220TIP3    H140219   1.623   0.251   2.285 -0.1761 -0.0380  0.4182
 6220TIP3    H240220   1.698   0.120   2.303  0.3497  0.0339 -1.1843
 6221TIP3   OH240221   1.235   7.162   1.630 -0.4127  0.2404 -0.2261
 6221TIP3    H140222   1.198   7.189   1.546  1.0825  0.0582 -0.9492
 6221TIP3    H240223   1.162   7.118   1.674 -1.0579 -0.1840 -1.6680
 6222TIP3   OH240224   0.863   0.869   1.540  0.2755  0.1600 -0.2827
 6222TIP3    H140225   0.816   0.834   1.465 -1.1776 -0.3229  0.8216
 6222TIP3    H240226   0.954   0.841   1.528 -0.2830 -1.3874 -0.9639
 6223TIP3   OH240227   7.090   0.596   1.082 -0.3720  0.2721 -0.8494
 6223TIP3    H140228   7.136   0.614   1.000  1.0061  0.5594 -0.0226
 6223TIP3    H240229   7.066   0.682   1.116 -1.5697  0.1258 -1.2841
 6224TIP3   OH240230   7.121   7.090   7.663  0.3559 -0.4964  0.2081
 6224TIP3    H140231   7.181   7.155   7.627 -1.6030  1.4819  0.3924
 6224TIP3    H240232   7.156   7.070   7.750  1.6198 -0.6045 -0.3105
 6225TIP3   OH240233   0.819   6.468   1.067  0.0021 -0.6433 -0.2280
 6225TIP3    H140234   0.826   6.489   0.974 -1.2412  0.9667  0.0333
 6225TIP3    H240235   0.906   6.488   1.102  0.2942 -0.6832 -0.9180
 6226TIP3   OH240236   0.490   0.941   1.366  0.4756 -0.7672 -0.1334
 6226TIP3    H140237   0.572   0.934   1.319 -0.2654 -0.8779 -1.4271
 6226TIP3    H240238   0.422   0.931   1.299 -0.5956 -1.4802  1.0272
 6227TIP3   OH240239   2.247   7.253   1.620 -0.4772 -0.4006 -0.0596
 6227TIP3    H140240   2.229   7.165   1.653 -1.0520 -0.1461  0.3153
 6227TIP3    H240241   2.214   7.252   1.531 -1.7747 -0.1299  0.4165
 6228TIP3   OH240242   6.410   6.720   0.138  0.4593 -0.5344  0.3752
 6228TIP3    H140243   6.486   6.680   0.096  0.3453 -0.8377  0.4561
 6228TIP3    H240244   6.447   6.785   0.198  0.6359 -0.3600  0.0805
 6229TIP3   OH240245   0.809   4.221   7.851 -0.3367 -0.7738  0.5840
 6229TIP3    H140246   0.868   4.148   7.833  0.6479  0.3903 -1.0732
 6229TIP3    H240247   0.855   4.274   7.915 -0.5474 -0.9867  0.9166
 6230TIP3   OH240248   7.116   0.132   6.955  0.4634 -0.1167 -0.5453
 6230TIP3    H140249   7.160   0.147   7.039 -0.2810 -1.3234  0.0700
 6230TIP3    H240250   7.025   0.117   6.979  0.1728 -0.0422 -1.6165
 6231TIP3   OH240251   0.064   1.506   0.410 -0.2992  0.1659  0.5059
 6231TIP3    H140252   0.090   1.416   0.428 -2.0930 -0.1849  1.5918
 6231TIP3    H240253   0.115   1.532   0.334 -0.4256 -2.0897 -0.3973
 6232TIP3   OH240254   1.416   6.181   1.338  0.4125 -0.0180 -0.1933
 6232TIP3    H140255   1.403   6.253   1.399  1.7369 -0.8183  1.0861
 6232TIP3    H240256   1.438   6.223   1.255 -2.5895  1.1123 -0.4566
 6233TIP3   OH240257   0.601   0.177   0.109  0.1056  0.1136  0.3617
 6233TIP3    H140258   0.632   0.087   0.102  1.3079  0.5423  0.1458
 6233TIP3    H240259   0.555   0.179   0.193  0.7629 -0.4989  0.7461
 6234TIP3   OH240260   1.259   3.092   0.993 -0.2193 -0.2498 -0.0808
 6234TIP3    H140261   1.335   3.035   0.999 -1.1339 -1.5314 -0.3273
 6234TIP3    H240262   1.223   3.095   1.082 -0.4405 -0.4396 -0.1631
 6235TIP3   OH240263   2.022   0.715   7.136  0.2722 -0.1144 -0.1983
 6235TIP3    H140264   1.947   0.734   7.079 -0.0306  0.9058  0.5212
 6235TIP3    H240265   2.014   0.778   7.208  3.6309  2.2765 -1.7477
 6236TIP3   OH240266   7.176   7.018   7.924 -0.8057  0.2433 -0.1379
 6236TIP3    H140267   7.206   6.932   7.957  2.0206  1.1224 -0.2549
 6236TIP3    H240268   7.106   7.043   7.984 -0.4838 -1.3682  0.9567
 6237TIP3   OH240269   5.482   6.530   7.450 -0.0045  0.2361  0.0706
 6237TIP3    H140270   5.508   6.440   7.432  0.1209  0.5814 -1.5177
 6237TIP3    H240271   5.525   6.582   7.381 -1.3920  1.3223  0.0055
 6238TIP3   OH240272   1.524   6.623   1.640  0.0317  0.8377  0.0034
 6238TIP3    H140273   1.474   6.587   1.713  0.0253 -0.1169 -0.4725
 6238TIP3    H240274   1.577   6.550   1.608 -0.3729  1.1045 -1.2900
 6239TIP3   OH240275   7.261   0.224   7.386 -0.2553 -0.0152  0.0944
 6239TIP3    H140276   7.195   0.264   7.330  0.5716 -0.7547 -1.4492
 6239TIP3    H240277   7.295   0.297   7.439 -1.1605  0.6603 -0.2439
 6240TIP3   OH240278   0.500   1.359   1.516 -0.3973  0.2023 -0.4513
 6240TIP3    H140279   0.510   1.382   1.423  1.8386 -0.3859 -0.3803
 6240TIP3    H240280   0.570   1.296   1.533 -0.6927  0.4057  1.6700
 6241TIP3   OH240281   0.480   6.163   1.099 -0.0250  0.0681 -0.3052
 6241TIP3    H140282   0.410   6.227   1.084 -0.3746 -0.1289  0.4754
 6241TIP3    H240283   0.535   6.204   1.166 -0.0005 -0.2593 -0.1274
 6242TIP3   OH240284   1.874   5.532   0.055  0.1813  0.0369 -0.1093
 6242TIP3    H140285   1.885   5.602  -0.009  0.8613  1.2302  1.2715
 6242TIP3    H240286   1.955   5.534   0.107 -1.8313  1.5399  3.1123
 6243TIP3   OH240287   2.591   1.116   1.850 -0.5754 -0.5016 -0.0182
 6243TIP3    H140288   2.687   1.114   1.847 -0.4918 -0.9144  2.1776
 6243TIP3    H240289   2.571   1.198   1.895 -1.2639 -0.3771 -0.5504
 6244TIP3   OH240290   1.721   1.372   0.429 -0.8619  0.0714 -0.5205
 6244TIP3    H140291   1.631   1.373   0.398 -0.9889  0.5072 -0.1316
 6244TIP3    H240292   1.773   1.356   0.350 -1.1842  1.1153 -0.9566
 6245TIP3   OH240293   1.842   3.922   0.157 -0.2022 -1.0963  0.2132
 6245TIP3    H140294   1.907   3.927   0.227  1.7320 -3.8577 -1.2950
 6245TIP3    H240295   1.838   4.011   0.121  1.4927 -0.5028  1.4241
 6246TIP3   OH240296   1.112   7.108   0.152  0.2934  0.3829  0.0548
 6246TIP3    H140297   1.101   7.133   0.243 -0.1798  0.4775 -0.0278
 6246TIP3    H240298   1.046   7.040   0.137  0.1427  0.6071 -0.3086
 6247TIP3   OH240299   0.574   0.085   0.671  0.5551 -0.3430  0.2804
 6247TIP3    H140300   0.606   0.165   0.630 -1.7725  1.0603  1.1288
 6247TIP3    H240301   0.582   0.101   0.765 -1.6821 -0.3539  0.4821
 6248TIP3   OH240302   1.537   6.688   0.483 -0.0875 -0.0914 -0.0597
 6248TIP3    H140303   1.539   6.745   0.560 -0.8225  0.7544 -0.6618
 6248TIP3    H240304   1.468   6.724   0.428 -1.1723 -2.1008 -0.0520
 6249TIP3   OH240305   3.014   2.496   0.265 -0.6760 -0.1557  0.0874
 6249TIP3    H140306   3.028   2.419   0.209 -0.8443 -0.7737  0.8848
 6249TIP3    H240307   3.005   2.569   0.204 -0.9852 -0.8440 -0.7010
 6250TIP3   OH240308   3.310   5.549   1.724 -0.2415 -0.4838 -0.2749
 6250TIP3    H140309   3.402   5.530   1.705  0.6308  2.8687  0.2054
 6250TIP3    H240310   3.313   5.614   1.794 -3.0270 -1.0729  0.4496
 6251TIP3   OH240311   1.399   0.630   7.622  0.0617  0.4184  0.3244
 6251TIP3    H140312   1.416   0.703   7.562  0.6297  0.1021  0.0921
 6251TIP3    H240313   1.457   0.646   7.696  1.9203 -1.0220 -0.7695
 6252TIP3   OH240314   1.987   0.291   1.546 -0.2014  0.7735  0.0833
 6252TIP3    H140315   1.921   0.359   1.536 -1.6747 -0.7062 -0.4227
 6252TIP3    H240316   1.989   0.273   1.640 -0.0444  1.2887  0.1775
 6253TIP3   OH240317   6.796   1.139   6.797 -0.6086 -0.1106  0.2366
 6253TIP3    H140318   6.734   1.202   6.759  2.0882  2.3750 -0.2502
 6253TIP3    H240319   6.788   1.152   6.891 -1.8167 -0.8218  0.2451
 6254TIP3   OH240320   0.788   7.069   1.576 -0.2805  0.1687 -0.5676
 6254TIP3    H140321   0.768   6.982   1.610 -0.1101  1.2439  2.3835
 6254TIP3    H240322   0.821   7.053   1.487  2.0648 -2.9600  0.8043
 6255TIP3   OH240323   6.960   1.030   8.190  0.2290 -0.7832 -0.4681
 6255TIP3    H140324   6.891   1.096   8.201  0.1840 -0.9136  0.0792
 6255TIP3    H240325   7.014   1.040   8.269 -1.0259 -2.8662  0.7096
 6256TIP3   OH240326   1.851   0.200   7.216  0.1543 -0.6718 -0.1777
 6256TIP3    H140327   1.837   0.130   7.153  0.9531  0.0301 -1.1494
 6256TIP3    H240328   1.946   0.211   7.218  0.1408 -0.7172  1.1862
 6257TIP3   OH240329   0.120   4.490   2.057  0.7599 -0.3958  0.1110
 6257TIP3    H140330   0.048   4.539   2.017  1.6394 -0.0409 -1.0819
 6257TIP3    H240331   0.112   4.401   2.021  1.2515 -0.2069 -0.4759
 6258TIP3   OH240332   1.673   0.745   0.130  0.2745  0.6643 -0.1100
 6258TIP3    H140333   1.631   0.783   0.207  1.1927 -0.8291  1.1582
 6258TIP3    H240334   1.600   0.713   0.077 -0.3018  0.0406  1.0244
 6259TIP3   OH240335   2.402   5.354   8.454 -0.0386  0.0262  0.7963
 6259TIP3    H140336   2.412   5.449   8.458  0.3392  0.0839 -1.0332
 6259TIP3    H240337   2.490   5.320   8.470  0.1058  0.0390  0.0502
 6260TIP3   OH240338   0.944   7.240   0.638  0.0506  0.2575  0.3134
 6260TIP3    H140339   0.974   7.180   0.706 -0.1109  0.7318  0.8069
 6260TIP3    H240340   0.932   7.324   0.683 -2.5843 -0.0386  0.2780
 6261TIP3   OH240341   1.938   5.762   1.486  0.1631 -0.2076 -0.3018
 6261TIP3    H140342   1.929   5.721   1.572 -1.1270 -0.6779 -0.6522
 6261TIP3    H240343   1.969   5.692   1.429 -0.5065 -0.3052 -0.5537
 6262TIP3   OH240344   0.243   6.772   2.287 -0.3964  0.4246  0.1001
 6262TIP3    H140345   0.269   6.799   2.376 -1.3595  1.7077  0.0077
 6262TIP3    H240346   0.172   6.832   2.264 -2.4314 -2.0274 -0.2480
 6263TIP3   OH240347   1.328   6.312   1.583 -0.1715 -0.2958 -0.2625
 6263TIP3    H140348   1.417   6.329   1.614  0.3388 -1.7310 -0.9002
 6263TIP3    H240349   1.274   6.312   1.662  0.3845  0.5461  0.1287
 6264TIP3   OH240350   1.663   7.166   0.268  0.2554 -0.3232  0.1048
 6264TIP3    H140351   1.612   7.142   0.190 -0.4639 -0.2490  0.5423
 6264TIP3    H240352   1.730   7.226   0.235  0.1285 -0.5020 -0.5018
 6265TIP3   OH240353   1.050   6.847   0.543 -0.0438 -0.5198  0.1417
 6265TIP3    H140354   1.002   6.885   0.617  1.9324 -1.7383  2.0838
 6265TIP3    H240355   1.123   6.800   0.582  1.1763 -1.0394 -2.6104
 6266TIP3   OH240356   1.466   6.257   2.116 -0.4905  0.6714 -0.1504
 6266TIP3    H140357   1.543   6.284   2.166  0.6225 -2.1302 -0.2293
 6266TIP3    H240358   1.409   6.334   2.115  1.2075  2.0143  2.0384
 6267TIP3   OH240359   0.814   6.210   2.090 -0.1995 -0.2366 -0.3338
 6267TIP3    H140360   0.858   6.183   2.170  1.6880 -0.7016 -1.4932
 6267TIP3    H240361   0.728   6.168   2.094 -0.4831  0.4912  1.8572
 6268TIP3   OH240362   1.636   5.705   2.583 -0.0967 -0.0612 -0.0177
 6268TIP3    H140363   1.613   5.621   2.543 -3.0304  1.1295 -0.9720
 6268TIP3    H240364   1.708   5.738   2.528  0.7525 -1.6887  0.0681
 6269TIP3   OH240365   2.358   6.033   8.066  0.2278 -0.7009 -0.2121
 6269TIP3    H140366   2.271   6.067   8.086  0.7008  1.3987 -1.5559
 6269TIP3    H240367   2.397   6.015   8.151 -0.6989  0.4959  0.4816
 6270TIP3   OH240368   7.047   5.557   1.337 -0.0921  0.6043 -0.0107
 6270TIP3    H140369   7.092   5.478   1.367 -1.3625  0.6283  2.1286
 6270TIP3    H240370   6.959   5.527   1.313 -0.6413  1.3700  1.0007
 6271TIP3   OH240371   0.323   6.724   0.577 -0.4684  0.2219 -0.5968
 6271TIP3    H140372   0.337   6.630   0.587 -0.0110  0.1583 -1.7080
 6271TIP3    H240373   0.230   6.732   0.555 -0.5498  0.0440 -0.3166
 6272TIP3   OH240374   1.185   7.072   8.214 -0.7859  0.4580 -0.6305
 6272TIP3    H140375   1.248   7.037   8.278  1.1261  0.2800 -2.5371
 6272TIP3    H240376   1.216   7.038   8.130 -3.1390  0.8553 -1.6735
 6273TIP3   OH240377   6.827   5.273   6.680  0.1370  0.3286 -0.0445
 6273TIP3    H140378   6.763   5.336   6.713 -0.0156  0.1418  0.0119
 6273TIP3    H240379   6.869   5.238   6.759  0.5357  0.6863 -0.0912
 6274TIP3   OH240380   1.776   0.711   2.270 -0.0811 -0.4929 -0.0529
 6274TIP3    H140381   1.832   0.776   2.314 -1.6205  0.5299  0.4387
 6274TIP3    H240382   1.689   0.750   2.271 -0.8283 -2.1025 -0.7376
 6275TIP3   OH240383   3.857   0.764   0.482  0.2566 -0.5196  0.7577
 6275TIP3    H140384   3.924   0.722   0.536 -1.3108 -0.9097  2.4451
 6275TIP3    H240385   3.831   0.841   0.532  1.9482  1.6464 -1.5578
 6276TIP3   OH240386   0.993   7.108   0.918 -0.2152 -0.6878  0.3660
 6276TIP3    H140387   0.970   7.018   0.895 -0.5693 -0.8700  1.4236
 6276TIP3    H240388   0.909   7.149   0.940 -0.3786  0.5531 -2.2751
 6277TIP3   OH240389   3.583   1.243   1.195  0.4824 -0.0864  0.2555
 6277TIP3    H140390   3.622   1.313   1.142  0.2413 -1.3940 -1.6787
 6277TIP3    H240391   3.657   1.188   1.221  0.2730 -1.0640 -1.1703
 6278TIP3   OH240392   0.757   0.312   2.191 -0.3546 -0.8373 -0.3900
 6278TIP3    H140393   0.780   0.220   2.180 -0.6770 -0.9685  0.0435
 6278TIP3    H240394   0.691   0.313   2.259 -0.2174 -0.2627 -0.2588
 6279TIP3   OH240395   1.616   6.380   1.558 -0.0740  0.3617  0.3738
 6279TIP3    H140396   1.673   6.343   1.626  0.9853 -0.4842 -0.9348
 6279TIP3    H240397   1.661   6.360   1.476 -1.4933  1.0740 -0.6011
 6280TIP3   OH240398   2.413   0.573   8.106  0.5141  0.0463  0.3033
 6280TIP3    H140399   2.379   0.530   8.027  0.9099  0.7602 -0.2624
 6280TIP3    H240400   2.505   0.549   8.108  0.7078  0.7540  0.0561
 6281TIP3   OH240401   2.724   6.840   1.155 -0.4591 -0.9148  0.3704
 6281TIP3    H140402   2.799   6.780   1.162  0.1111 -0.3549 -0.7418
 6281TIP3    H240403   2.745   6.912   1.214 -0.7357 -1.3860  1.0481
 6282TIP3   OH240404   0.631   6.497   1.421 -0.1064 -0.2181  0.1290
 6282TIP3    H140405   0.552   6.473   1.470 -0.0453 -0.1200  0.2744
 6282TIP3    H240406   0.614   6.465   1.332  0.0187 -0.8922  0.3449
 6283TIP3   OH240407   2.138   1.059   2.442 -0.0473  0.2073 -0.0700
 6283TIP3    H140408   2.139   1.132   2.380 -0.7483  0.9119  0.7280
 6283TIP3    H240409   2.177   1.095   2.522 -1.1891 -0.0143  0.6063
 6284TIP3   OH240410   3.928   1.281   1.575  0.2880  0.3200  0.1175
 6284TIP3    H140411   3.844   1.326   1.575  0.9060  1.5018 -0.9361
 6284TIP3    H240412   3.953   1.277   1.667 -0.5967  0.5569  0.3754
 6285TIP3   OH240413   3.165   5.560   0.195 -0.4204 -0.8279 -0.5547
 6285TIP3    H140414   3.080   5.564   0.238 -1.0738 -2.1313 -1.6977
 6285TIP3    H240415   3.224   5.605   0.256 -2.4024  2.5377 -0.9633
 6286TIP3   OH240416   0.433   7.153   2.192 -0.5032  0.1621  0.0838
 6286TIP3    H140417   0.445   7.098   2.269  0.1016 -0.8622 -0.7303
 6286TIP3    H240418   0.451   7.242   2.223 -0.1196 -0.2556  1.0865
 6287TIP3   OH240419   3.131   7.228   1.602 -0.0587 -0.6227  0.6079
 6287TIP3    H140420   3.081   7.307   1.619 -1.0052 -1.4027  1.5269
 6287TIP3    H240421   3.127   7.178   1.684  0.4499 -1.6595  0.0186
 6288TIP3   OH240422   6.849   5.527   1.883  0.7018  0.7232 -0.7739
 6288TIP3    H140423   6.799   5.454   1.847 -0.5057  0.9495  0.3985
 6288TIP3    H240424   6.863   5.503   1.975  2.6675  0.7200 -1.0443
 6289TIP3   OH240425   2.632   6.273   0.884  0.3939  0.4631 -0.3624
 6289TIP3    H140426   2.621   6.341   0.818 -0.9003  0.5365 -0.0734
 6289TIP3    H240427   2.557   6.214   0.871  1.0111 -0.4132 -0.0211
 6290TIP3   OH240428   2.945   1.014   0.534 -0.3563 -0.5332  0.3284
 6290TIP3    H140429   2.876   1.076   0.511  0.2274 -0.2829 -0.7940
 6290TIP3    H240430   2.917   0.932   0.493 -0.0510 -0.4633 -0.0183
 6291TIP3   OH240431   6.526   7.101   1.205  0.1170  0.0960  0.0268
 6291TIP3    H140432   6.584   7.028   1.184  0.1007  0.4660 -1.3488
 6291TIP3    H240433   6.585   7.174   1.225  0.1284  0.0663  0.1010
 6292TIP3   OH240434   2.307   6.602   2.602  0.3482 -0.4982  0.0901
 6292TIP3    H140435   2.352   6.647   2.530 -2.8749  2.2821 -0.3183
 6292TIP3    H240436   2.292   6.514   2.569 -0.3919  0.5058 -2.4003
 6293TIP3   OH240437   0.449   6.498   1.631 -0.3466 -0.2622 -0.1126
 6293TIP3    H140438   0.381   6.430   1.633 -0.5175 -0.0744  2.7564
 6293TIP3    H240439   0.401   6.580   1.628 -0.1419 -0.1856 -3.0209
 6294TIP3   OH240440   6.874   5.934   0.539  0.1874  0.1151  0.1029
 6294TIP3    H140441   6.880   5.948   0.633 -0.5883 -1.2551  0.3743
 6294TIP3    H240442   6.878   5.839   0.529  0.0246  0.2404 -1.2291
 6295TIP3   OH240443   7.216   6.620   0.964  0.2073  0.3731  0.1779
 6295TIP3    H140444   7.154   6.658   1.027  1.0812  0.7953  0.7973
 6295TIP3    H240445   7.295   6.673   0.974  0.4115  0.3248 -1.1559
 6296TIP3   OH240446   0.897   1.004   7.748 -0.0299  0.1427  0.2095
 6296TIP3    H140447   0.839   0.960   7.686 -2.5271  0.9209  1.9240
 6296TIP3    H240448   0.922   0.936   7.810  0.5837 -0.1037 -0.3044
 6297TIP3   OH240449   0.257   6.950   1.035  0.0597 -0.2145 -0.0365
 6297TIP3    H140450   0.209   6.953   0.952  0.4342  0.7852 -0.2159
 6297TIP3    H240451   0.348   6.967   1.011  0.1636  0.1270  0.5850
 6298TIP3   OH240452   0.905   5.616   1.061  0.5725 -0.5746  0.5976
 6298TIP3    H140453   0.872   5.674   0.992 -0.5346 -1.6822  0.1842
 6298TIP3    H240454   0.981   5.662   1.096 -0.7214  1.5011  0.7747
 6299TIP3   OH240455   0.033   5.798   1.164 -0.0736 -0.2891  0.0267
 6299TIP3    H140456   0.118   5.834   1.189 -0.1994 -0.0986  0.1783
 6299TIP3    H240457  -0.025   5.822   1.236 -0.2962 -0.2666 -0.1608
 6300TIP3   OH240458   0.940   0.626   0.705 -0.1753  0.4441  0.4650
 6300TIP3    H140459   0.942   0.698   0.642  0.5376  0.2029  0.2081
 6300TIP3    H240460   1.030   0.593   0.707 -0.6252 -0.8437  0.1001
 6301TIP3   OH240461   1.483   5.273   0.357  0.2941 -0.5170 -0.0836
 6301TIP3    H140462   1.550   5.341   0.351  0.7641 -0.8651  1.1586
 6301TIP3    H240463   1.531   5.195   0.387  0.5571 -2.5377 -5.2183
 6302TIP3   OH240464   1.311   0.709   0.216 -0.3013  0.1456 -0.2848
 6302TIP3    H140465   1.318   0.694   0.122  0.6202 -2.1350  0.1237
 6302TIP3    H240466   1.220   0.738   0.228 -0.1596  1.3616 -1.9726
 6303TIP3   OH240467   0.975   5.455   8.291 -0.2902  0.4003 -0.1992
 6303TIP3    H140468   0.952   5.414   8.207  0.8093 -1.2444  0.2818
 6303TIP3    H240469   1.058   5.500   8.274 -1.1900  1.9491 -0.5662
 6304TIP3   OH240470   1.300   5.606   1.470  0.4496  0.5964 -0.3264
 6304TIP3    H140471   1.329   5.516   1.483  1.4403  0.8828 -0.5622
 6304TIP3    H240472   1.357   5.659   1.525 -0.0914  1.0886 -0.2319
 6305TIP3   OH240473   6.972   0.379   8.441 -0.1015 -0.1251 -0.4751
 6305TIP3    H140474   6.943   0.316   8.376  0.2686 -0.2207 -0.5428
 6305TIP3    H240475   7.005   0.453   8.390  1.5493 -0.8080 -0.4004
 6306TIP3   OH240476   2.001   0.591   8.211 -0.0366 -0.2280 -0.4511
 6306TIP3    H140477   2.007   0.685   8.227  2.2332 -0.4189 -0.0346
 6306TIP3    H240478   1.908   0.571   8.220 -0.8295  2.3156 -2.5319
 6307TIP3   OH240479   0.483   5.882   1.120  0.0046  0.2526  0.3084
 6307TIP3    H140480   0.494   5.855   1.029 -1.2953 -0.8290  0.4550
 6307TIP3    H240481   0.452   5.973   1.115  2.6413  1.1604 -0.2334
 6308TIP3   OH240482   1.308   7.000   1.275 -0.4028 -0.1396 -0.2839
 6308TIP3    H140483   1.323   6.927   1.334 -0.8784 -0.8598 -1.0489
 6308TIP3    H240484   1.224   7.036   1.302 -0.9092 -0.8442 -0.9008
 6309TIP3   OH240485   3.867   0.045   7.271 -0.2835  0.0228 -0.1529
 6309TIP3    H140486   3.837   0.022   7.359  0.1846  0.4623  0.1230
 6309TIP3    H240487   3.833   0.133   7.256 -0.4568 -0.0942 -0.4574
 6310TIP3   OH240488   0.346   6.965   1.451  0.3208 -0.2876 -0.1124
 6310TIP3    H140489   0.350   6.972   1.356  0.4575  1.4046 -0.0062
 6310TIP3    H240490   0.343   7.056   1.482  0.2010 -0.8090  1.4940
 6311TIP3   OH240491   1.783   5.024   0.771  0.0985  0.2170 -0.3311
 6311TIP3    H140492   1.696   5.002   0.738  0.9941 -2.0664 -1.2162
 6311TIP3    H240493   1.824   4.940   0.790  1.5654  1.3141  1.5624
 6312TIP3   OH240494   2.370   6.984   2.620  0.4289  0.0490 -0.5229
 6312TIP3    H140495   2.337   7.030   2.697  2.3590 -1.9067  1.5120
 6312TIP3    H240496   2.305   6.916   2.603 -0.4126  0.9906 -1.1541
 6313TIP3   OH240497   3.320   5.630   0.826  0.3255  0.0675 -0.1886
 6313TIP3    H140498   3.410   5.611   0.802  0.0671  0.4602 -1.5035
 6313TIP3    H240499   3.326   5.679   0.908  1.2299 -1.2199  0.5299
 6314TIP3   OH240500   2.082   6.373   1.819 -0.7920 -0.0896  0.3864
 6314TIP3    H140501   2.016   6.383   1.887 -1.4951 -0.3176 -0.2569
 6314TIP3    H240502   2.034   6.383   1.737 -0.2045 -1.1840 -0.1070
 6315TIP3   OH240503   3.148   5.502   1.496 -0.0861 -0.2243  0.0469
 6315TIP3    H140504   3.191   5.513   1.581  1.3616 -2.7053 -0.3130
 6315TIP3    H240505   3.076   5.441   1.514 -0.4370  0.0871 -0.3065
 6316TIP3   OH240506   2.312   0.130   2.089  0.1421 -0.2632  0.7206
 6316TIP3    H140507   2.321   0.035   2.093 -1.1587 -0.5151 -1.2822
 6316TIP3    H240508   2.281   0.155   2.176 -1.2783 -1.9090  0.7232
 6317TIP3   OH240509   2.587   6.576   0.096  0.7538  0.1559  0.0659
 6317TIP3    H140510   2.544   6.657   0.125  0.3882 -0.0712  0.1566
 6317TIP3    H240511   2.554   6.562   0.007 -0.9297 -1.1143  0.8692
 6318TIP3   OH240512   2.321   5.900   0.464 -0.1497 -0.3627 -0.1709
 6318TIP3    H140513   2.348   5.972   0.407 -0.9245  0.2270  0.2006
 6318TIP3    H240514   2.265   5.846   0.408  1.4622 -1.3960 -0.8365
 6319TIP3   OH240515   1.268   6.162   8.349 -0.6931 -0.0844 -0.0536
 6319TIP3    H140516   1.222   6.139   8.430 -1.6384  2.5639  0.1943
 6319TIP3    H240517   1.232   6.247   8.324  0.2892 -0.4260 -2.7517
 6320TIP3   OH240518   2.906   1.317   0.863  0.4416 -0.0942  0.2212
 6320TIP3    H140519   2.954   1.395   0.890  0.4832 -0.4922  1.2943
 6320TIP3    H240520   2.966   1.272   0.803  1.0542 -0.1255  0.8537
 6321TIP3   OH240521   2.132   5.983   8.291 -0.0012 -0.2038  0.1551
 6321TIP3    H140522   2.175   6.004   8.373  1.3497 -1.2440 -0.2729
 6321TIP3    H240523   2.137   5.888   8.285 -2.4386 -0.3674  0.1291
 6322TIP3   OH240524   3.255   5.229   0.995  0.1162  0.3044  0.4457
 6322TIP3    H140525   3.212   5.154   0.955  0.5528 -0.5500  1.5648
 6322TIP3    H240526   3.184   5.289   1.018 -0.2169  0.3133 -0.5814
 6323TIP3   OH240527   2.885   7.069   1.587  0.2031  0.0092  0.1704
 6323TIP3    H140528   2.978   7.083   1.569  0.2338  0.9029  1.0220
 6323TIP3    H240529   2.868   7.118   1.667 -0.9630 -0.3155  0.1311
 6324TIP3   OH240530   3.541   4.795   1.495  0.0141 -0.1154  0.2773
 6324TIP3    H140531   3.529   4.888   1.476  2.0231  0.2431  0.6600
 6324TIP3    H240532   3.535   4.789   1.590 -1.3952 -0.5854  0.1692
 6325TIP3   OH240533   1.840   7.100   0.894  0.0329  0.0003 -0.1277
 6325TIP3    H140534   1.801   7.180   0.930  0.1471  1.0657 -2.2623
 6325TIP3    H240535   1.773   7.065   0.835  0.9045 -0.1488 -1.0433
 6326TIP3   OH240536   2.218   0.188   1.456  0.1044 -0.7612  0.0334
 6326TIP3    H140537   2.181   0.111   1.413 -1.1460  0.6894 -1.5534
 6326TIP3    H240538   2.143   0.243   1.477  1.0854  0.7199 -0.2274
 6327TIP3   OH240539   5.208   5.584   2.355 -0.2976  0.1734 -0.1124
 6327TIP3    H140540   5.228   5.614   2.444 -1.4541 -0.0741  0.2401
 6327TIP3    H240541   5.252   5.499   2.348  0.8138  0.7452 -0.2099
 6328TIP3   OH240542   0.821   6.993   1.328 -0.1872 -0.0165 -0.2787
 6328TIP3    H140543   0.816   6.945   1.245  0.5575 -1.2487  0.3844
 6328TIP3    H240544   0.842   7.083   1.302 -0.5060 -0.2719 -1.4566
 6329TIP3   OH240545   3.344   0.180   0.987  0.2286 -0.2450 -0.7236
 6329TIP3    H140546   3.271   0.135   0.946 -0.1843 -1.3348  1.1312
 6329TIP3    H240547   3.322   0.273   0.981  0.9723 -0.2228 -4.3851
 6330TIP3   OH240548   0.748   5.816   0.449  0.5854 -0.0751  0.0547
 6330TIP3    H140549   0.810   5.745   0.463 -0.8458 -1.0653  1.6497
 6330TIP3    H240550   0.697   5.819   0.530  0.5071  2.6655 -0.0380
 6331TIP3   OH240551   3.759   6.511   2.030 -0.1490 -0.4261 -0.4163
 6331TIP3    H140552   3.829   6.503   2.095 -0.5476 -2.2374 -0.1807
 6331TIP3    H240553   3.706   6.584   2.061 -0.0829 -0.9836  1.0777
 6332TIP3   OH240554   3.074   6.206   0.392  0.3119 -0.2602 -0.4957
 6332TIP3    H140555   3.149   6.193   0.449  0.2832  1.0995 -0.1331
 6332TIP3    H240556   2.999   6.180   0.445  0.3334  0.5000 -0.0858
 6333TIP3   OH240557   1.069   4.970   0.200 -0.2499  0.3065 -0.2782
 6333TIP3    H140558   1.020   5.017   0.133  0.8768  2.5829  0.4555
 6333TIP3    H240559   1.083   5.034   0.270  1.0128 -1.2106  0.9158
 6334TIP3   OH240560   2.616   1.526   1.646  0.1201 -0.0251  0.1651
 6334TIP3    H140561   2.681   1.475   1.694 -0.8743 -0.5933  0.9144
 6334TIP3    H240562   2.668   1.591   1.598  1.2139 -0.1966  1.0850
 6335TIP3   OH240563   3.904   0.387   1.297 -0.8445  0.5064 -0.4712
 6335TIP3    H140564   3.912   0.366   1.204 -0.0212 -1.8830  0.1107
 6335TIP3    H240565   3.894   0.483   1.299  0.8903  0.7882 -2.9084
 6336TIP3   OH240566   2.583   5.275   7.967  0.4752  0.1166  0.2048
 6336TIP3    H140567   2.532   5.280   7.887  0.8730  0.2413 -0.0444
 6336TIP3    H240568   2.520   5.289   8.037 -0.0501 -0.9736 -0.0333
 6337TIP3   OH240569   1.098   5.929   2.130 -0.5437 -0.2884  0.0908
 6337TIP3    H140570   1.005   5.951   2.125 -0.1930  1.2294 -0.1349
 6337TIP3    H240571   1.108   5.885   2.214 -1.4416 -0.3326  0.1822
 6338TIP3   OH240572   4.523   6.418   0.969 -0.1796 -0.1592 -0.8186
 6338TIP3    H140573   4.533   6.332   1.009  0.7488 -0.4564 -1.6733
 6338TIP3    H240574   4.610   6.439   0.934 -0.5129  0.9064 -1.0449
 6339TIP3   OH240575   1.907   0.845   0.355 -0.0849 -0.0960  0.0307
 6339TIP3    H140576   1.860   0.925   0.379 -0.9006 -1.0853  1.8161
 6339TIP3    H240577   1.858   0.810   0.281  0.0439  0.8285 -0.5104
 6340TIP3   OH240578   3.018   0.242   0.697  0.2720 -0.1370  0.0745
 6340TIP3    H140579   2.943   0.202   0.654 -0.7883  1.5232  0.3499
 6340TIP3    H240580   3.075   0.169   0.719 -1.2165 -1.3992 -0.2282
 6341TIP3   OH240581   2.234   4.356   0.930 -0.0210 -0.1475 -0.0649
 6341TIP3    H140582   2.263   4.418   0.997  2.0167 -1.2546  0.0976
 6341TIP3    H240583   2.142   4.378   0.916  0.2301  1.8296  1.1801
 6342TIP3   OH240584   0.839   6.193   0.846  0.0722 -0.2473 -0.1873
 6342TIP3    H140585   0.778   6.230   0.910 -0.4933 -0.8350 -0.3944
 6342TIP3    H240586   0.908   6.154   0.899 -0.5636 -1.0192  0.0697
 6343TIP3   OH240587   3.139   5.115   1.655 -0.0207  0.1428  0.4855
 6343TIP3    H140588   3.052   5.077   1.642  0.7328 -1.4659  0.0153
 6343TIP3    H240589   3.190   5.084   1.580  0.7961  1.5917  0.4262
 6344TIP3   OH240590   2.293   6.246   7.676  0.0255  0.4201 -0.6586
 6344TIP3    H140591   2.211   6.197   7.687 -0.6517  1.4115 -1.2593
 6344TIP3    H240592   2.352   6.184   7.633  0.3614 -1.0750  1.8291
 6345TIP3   OH240593   2.786   6.500   0.974 -0.3199  1.3329 -0.4545
 6345TIP3    H140594   2.752   6.417   0.940 -0.6580 -0.5096  4.0085
 6345TIP3    H240595   2.715   6.563   0.960 -0.2185  0.8153 -3.5149
 6346TIP3   OH240596   0.643   3.756   7.946  0.3059 -0.7733 -0.5335
 6346TIP3    H140597   0.609   3.845   7.955  0.2307 -0.7623 -0.9212
 6346TIP3    H240598   0.588   3.716   7.879 -0.2389 -1.4001  0.2690
 6347TIP3   OH240599   3.907   6.272   0.728  0.0602  0.2705  0.2375
 6347TIP3    H140600   3.992   6.250   0.764 -0.1442  0.1370  0.6391
 6347TIP3    H240601   3.904   6.368   0.731  0.0444  0.2614  0.5776
 6348TIP3   OH240602   2.384   0.407   7.850  0.1333  0.0503  0.4790
 6348TIP3    H140603   2.326   0.440   7.781  1.2327  0.9121 -0.0509
 6348TIP3    H240604   2.367   0.313   7.853 -2.3794  0.5128  1.3735
 6349TIP3   OH240605   3.583   5.409   1.418  0.0464 -0.0379  0.6212
 6349TIP3    H140606   3.516   5.387   1.353  0.5484 -0.9927  0.4193
 6349TIP3    H240607   3.663   5.424   1.366 -0.2316  2.1405  0.7589
 6350TIP3   OH240608   3.345   6.586   1.959 -0.6330 -0.6979 -0.0589
 6350TIP3    H140609   3.255   6.564   1.983 -0.9364  1.0111  0.4421
 6350TIP3    H240610   3.388   6.502   1.948 -2.1489 -1.5343  0.2591
 6351TIP3   OH240611   2.395   1.140   0.478  0.1442 -0.2315 -0.0648
 6351TIP3    H140612   2.461   1.081   0.442 -0.4214 -1.2379  0.5370
 6351TIP3    H240613   2.428   1.164   0.565  0.1376 -0.0632 -0.1088
 6352TIP3   OH240614   3.784   6.507   0.135  0.0699 -0.0052  0.0888
 6352TIP3    H140615   3.830   6.524   0.053 -1.0221  0.5939 -0.4060
 6352TIP3    H240616   3.843   6.450   0.184  0.7932 -0.2500 -1.0505
 6353TIP3   OH240617   2.555   1.576   1.270 -0.2831  0.0776  0.6941
 6353TIP3    H140618   2.607   1.622   1.205  0.7718  0.8639  2.0630
 6353TIP3    H240619   2.473   1.626   1.275  0.9836  2.0468  2.4116
 6354TIP3   OH240620   4.413   6.811   1.224 -0.0981  0.3260  0.3911
 6354TIP3    H140621   4.416   6.721   1.190 -0.1501  0.5197 -0.1323
 6354TIP3    H240622   4.336   6.850   1.183  0.1077  0.7091  0.3682
 6355TIP3   OH240623   2.270   1.118   0.904  0.1739 -0.2925  0.2275
 6355TIP3    H140624   2.337   1.184   0.918  0.1449 -0.4312  1.0589
 6355TIP3    H240625   2.305   1.039   0.943 -0.2083 -0.5237  0.1117
 6356TIP3   OH240626   3.479   6.295   8.348 -0.0081  0.0661  0.1571
 6356TIP3    H140627   3.482   6.336   8.435  0.1865  2.2974 -0.8652
 6356TIP3    H240628   3.533   6.352   8.293 -4.3181  1.6766 -2.6242
 6357TIP3   OH240629   3.081   7.033   1.193  0.3443  0.8348  0.0296
 6357TIP3    H140630   2.989   7.049   1.213  0.3269  2.7152 -1.4281
 6357TIP3    H240631   3.127   7.051   1.275 -0.6221 -0.5802  0.8952
 6358TIP3   OH240632   1.835   0.069   2.421 -0.3804  0.4461 -0.2853
 6358TIP3    H140633   1.885  -0.011   2.428 -1.2262 -0.0672  0.0010
 6358TIP3    H240634   1.896   0.138   2.446  0.5684 -0.0217 -1.2726
 6359TIP3   OH240635   0.281   0.380   7.699 -0.2211  0.3203 -0.3352
 6359TIP3    H140636   0.358   0.400   7.753 -0.4540 -2.2260  0.9958
 6359TIP3    H240637   0.231   0.462   7.697  0.8441  1.0352  1.5703
 6360TIP3   OH240638   4.744   6.448   1.268 -0.0626 -0.4842  0.6327
 6360TIP3    H140639   4.721   6.399   1.347 -1.2677 -1.1555 -0.1205
 6360TIP3    H240640   4.717   6.538   1.287  3.6287  0.2941  2.6491
 6361TIP3   OH240641   2.770   6.103   1.691  0.5922  0.1249  0.3982
 6361TIP3    H140642   2.730   6.105   1.604 -0.2186 -3.4578  0.5922
 6361TIP3    H240643   2.775   6.194   1.718  0.0566  1.2362 -3.0422
 6362TIP3   OH240644   2.838   5.999   0.334 -0.6112 -0.4607  0.4760
 6362TIP3    H140645   2.758   5.960   0.370 -1.2613  0.5475  0.1510
 6362TIP3    H240646   2.908   5.963   0.388 -1.4092 -0.3881  1.5762
 6363TIP3   OH240647   3.098   2.631   7.465  0.3078 -0.7381  0.6233
 6363TIP3    H140648   3.052   2.629   7.381  0.0823  0.9467  0.6956
 6363TIP3    H240649   3.028   2.639   7.530  0.6055  0.1463  0.8355
 6364TIP3   OH240650   2.008   5.052   8.031  0.5787 -0.7813  0.4250
 6364TIP3    H140651   2.008   5.038   8.126  2.4630 -1.5205  0.3331
 6364TIP3    H240652   2.078   5.116   8.017 -1.9055  1.9099 -0.1437
 6365TIP3   OH240653   2.152   6.739   0.093 -0.0758 -0.0395 -0.8248
 6365TIP3    H140654   2.135   6.693   0.176  0.8183 -0.2830 -0.7731
 6365TIP3    H240655   2.159   6.669   0.028  1.1812  0.0237 -0.7654
 6366TIP3   OH240656   2.832   5.282   0.494  0.0667 -0.4641 -0.5672
 6366TIP3    H140657   2.738   5.264   0.492 -0.0327  0.1020 -1.6330
 6366TIP3    H240658   2.871   5.204   0.533 -0.7363 -1.2655 -1.3417
 6367TIP3   OH240659   3.152   5.930   0.990 -0.3048  0.1645 -0.2007
 6367TIP3    H140660   3.240   5.904   1.017 -1.0121 -1.1697  0.9262
 6367TIP3    H240661   3.117   5.979   1.065 -0.7930  0.0076 -0.3212
 6368TIP3   OH240662   2.554   7.016   7.348 -0.1856  0.1027 -0.0330
 6368TIP3    H140663   2.570   7.083   7.415 -2.4418  1.1936 -0.5096
 6368TIP3    H240664   2.497   6.952   7.392  1.4285 -1.1743  0.2188
 6369TIP3   OH240665   5.165   6.652   6.842  0.4899  0.1150  0.2246
 6369TIP3    H140666   5.197   6.633   6.930 -0.9956  2.0853  1.2292
 6369TIP3    H240667   5.172   6.568   6.796  2.1573 -0.7257  1.9198
 6370TIP3   OH240668   3.229   6.348   7.731  0.6756  0.4954  0.3989
 6370TIP3    H140669   3.314   6.394   7.732  0.3221  1.2023 -0.8060
 6370TIP3    H240670   3.167   6.413   7.698 -0.5345  0.2792  2.1828
 6371TIP3   OH240671   2.086   6.984   0.870  0.0503  0.3819 -0.1010
 6371TIP3    H140672   2.108   7.048   0.803 -0.9395  0.3822 -0.4233
 6371TIP3    H240673   1.993   6.995   0.886  0.5968  1.6095  2.5849
 6372TIP3   OH240674   1.966   7.285   8.392  0.1764 -0.9602 -0.4581
 6372TIP3    H140675   1.999   7.294   8.303 -1.1202 -1.5571 -1.0071
 6372TIP3    H240676   1.914   7.205   8.391 -0.4793 -0.5621  0.6410
 6373TIP3   OH240677   3.718   5.614   2.030  0.0589  0.0942  0.2205
 6373TIP3    H140678   3.699   5.659   2.112 -0.7591  0.0332  0.0673
 6373TIP3    H240679   3.809   5.585   2.038 -0.1666 -0.3187  1.2881
 6374TIP3   OH240680   1.682   0.784   1.174  0.5935  0.4676  0.0078
 6374TIP3    H140681   1.712   0.864   1.218  1.1216  1.3483 -1.8991
 6374TIP3    H240682   1.738   0.778   1.097 -0.9267 -0.5553 -1.0271
 6375TIP3   OH240683   2.120   0.510   7.330 -0.3093  0.4056 -0.1204
 6375TIP3    H140684   2.039   0.500   7.380 -1.5045  2.1928 -1.6395
 6375TIP3    H240685   2.099   0.576   7.264  1.6963 -0.7718 -1.9932
 6376TIP3   OH240686   2.837   0.078   0.235  0.1304 -0.1080  0.2262
 6376TIP3    H140687   2.820   0.029   0.154 -0.8449  1.0297 -0.2817
 6376TIP3    H240688   2.932   0.071   0.247  0.3370 -0.0470 -1.1921
 6377TIP3   OH240689   1.746   4.935   6.853  0.0246 -0.0943 -0.0854
 6377TIP3    H140690   1.835   4.899   6.846  0.0830  0.1538 -0.6930
 6377TIP3    H240691   1.749   4.991   6.931  0.2846 -0.4242  0.1387
 6378TIP3   OH240692   3.678   5.053   1.398  0.4323  0.2593  0.0164
 6378TIP3    H140693   3.767   5.035   1.429  0.8566 -0.9722 -1.7769
 6378TIP3    H240694   3.687   5.131   1.343  0.9507 -1.3818 -2.3208
 6379TIP3   OH240695   2.022   6.004   0.112  0.4280 -0.2256 -0.0554
 6379TIP3    H140696   2.000   6.085   0.159 -2.2872  0.4864 -2.4194
 6379TIP3    H240697   2.117   5.998   0.120  0.4250  1.8263  2.3299
 6380TIP3   OH240698   2.805   5.669   0.244 -0.2544  0.2144 -0.0453
 6380TIP3    H140699   2.817   5.574   0.242  3.2873  0.5650  0.6131
 6380TIP3    H240700   2.756   5.686   0.324 -1.9832 -1.1146 -0.7805
 6381TIP3   OH240701   1.113   6.387   8.300  0.8833  0.0265  0.4146
 6381TIP3    H140702   1.071   6.364   8.217 -0.5505 -0.8891  1.3704
 6381TIP3    H240703   1.047   6.368   8.367  1.5753  1.8861  1.6896
 6382TIP3   OH240704   2.918   5.743   1.569  0.1583 -0.0818 -0.3880
 6382TIP3    H140705   2.977   5.749   1.493 -0.5259  0.4011 -0.8944
 6382TIP3    H240706   2.926   5.827   1.612  0.4371 -0.3053 -0.0032
 6383TIP3   OH240707   2.494   0.350   0.748  0.4368 -0.6629  0.1031
 6383TIP3    H140708   2.529   0.418   0.691  1.1162 -1.1771 -0.0987
 6383TIP3    H240709   2.554   0.348   0.823 -0.7240  0.3409  1.0782
 6384TIP3   OH240710   0.854   1.258   1.057 -0.3170  0.1781  0.0350
 6384TIP3    H140711   0.795   1.268   0.982 -0.4504 -0.0561  0.1085
 6384TIP3    H240712   0.840   1.168   1.087  1.3552 -0.4486 -1.0233
 6385TIP3   OH240713   4.414   4.156   0.924  0.2154 -0.3831  0.2465
 6385TIP3    H140714   4.366   4.090   0.875  0.7678  0.8762 -2.0501
 6385TIP3    H240715   4.371   4.238   0.903  0.6422  0.2220  1.6679
 6386TIP3   OH240716   3.251   0.403   0.691  0.1146 -0.3836 -0.6137
 6386TIP3    H140717   3.160   0.373   0.699  0.8544 -1.9952  2.3969
 6386TIP3    H240718   3.263   0.462   0.766  1.1161  1.1058 -1.9072
 6387TIP3   OH240719   2.789   7.293   0.907 -0.8070  0.1923 -0.4500
 6387TIP3    H140720   2.801   7.261   0.818  0.9634  0.1373 -0.2029
 6387TIP3    H240721   2.713   7.244   0.940 -2.0395  0.8634 -2.2132
 6388TIP3   OH240722   5.032   5.350   8.108  0.3743 -0.5509 -0.0687
 6388TIP3    H140723   5.081   5.410   8.164  1.5856 -0.6364 -1.0124
 6388TIP3    H240724   4.975   5.302   8.168 -0.9640  1.8341  0.6759
 6389TIP3   OH240725   2.475   5.191   1.190 -0.0025  0.3693 -0.5309
 6389TIP3    H140726   2.496   5.282   1.210  0.8476 -0.2496  1.6015
 6389TIP3    H240727   2.414   5.165   1.259 -1.2212 -0.3240 -1.8438
 6390TIP3   OH240728   2.980   5.192   0.085 -0.1750  0.3153 -0.0801
 6390TIP3    H140729   3.060   5.142   0.104  0.5254  1.1560 -0.7922
 6390TIP3    H240730   2.911   5.146   0.134  0.3302 -1.7152 -1.2074
 6391TIP3   OH240731   1.578   7.140   0.785 -0.4105 -0.0810  0.1634
 6391TIP3    H140732   1.488   7.166   0.764 -1.5538 -3.1737  0.8544
 6391TIP3    H240733   1.627   7.155   0.705 -1.8473  0.5036 -0.6176
 6392TIP3   OH240734   2.429   5.318   7.451  0.2365  0.0328  0.1257
 6392TIP3    H140735   2.496   5.381   7.476  0.0948  0.2787 -0.1067
 6392TIP3    H240736   2.459   5.235   7.487  0.8506  0.0659 -0.3073
 6393TIP3   OH240737   3.567   6.740   2.035  0.3289 -0.4967 -0.4210
 6393TIP3    H140738   3.509   6.808   2.070 -1.1907 -2.1272  0.2996
 6393TIP3    H240739   3.508   6.673   2.003  1.8126 -1.2606 -1.5976
 6394TIP3   OH240740   2.334   4.122   8.321 -0.6478  0.0226  0.2630
 6394TIP3    H140741   2.283   4.147   8.399 -1.8552  1.2113 -0.8878
 6394TIP3    H240742   2.343   4.027   8.329  1.8748  0.4325  3.4323
 6395TIP3   OH240743   0.606   6.700   0.385  0.0530  0.2499  1.0897
 6395TIP3    H140744   0.556   6.632   0.431  0.8780 -0.3087  1.1766
 6395TIP3    H240745   0.630   6.762   0.454 -2.4646  1.7585  0.6876
 6396TIP3   OH240746   1.696   0.076   1.244  0.3913 -0.7320  0.6430
 6396TIP3    H140747   1.608   0.049   1.271 -0.2594  0.3821 -0.3058
 6396TIP3    H240748   1.750   0.062   1.322 -1.0757  0.6752  1.9558
 6397TIP3   OH240749   4.265   6.340   1.636 -0.1094 -0.3817  0.0564
 6397TIP3    H140750   4.178   6.378   1.628 -0.4310 -1.5098 -2.1695
 6397TIP3    H240751   4.324   6.415   1.644 -1.2817  0.3710  1.9480
 6398TIP3   OH240752   4.011   7.077   0.272  0.7248 -0.2872 -0.6268
 6398TIP3    H140753   4.067   7.071   0.194  0.8702  1.2200 -0.6526
 6398TIP3    H240754   4.072   7.072   0.345  0.7640  0.1287 -0.6335
 6399TIP3   OH240755   1.924   5.153   0.169 -0.2535  0.2984  0.1521
 6399TIP3    H140756   1.942   5.176   0.260  0.3409 -2.7701  0.8824
 6399TIP3    H240757   1.985   5.082   0.150 -0.7908  0.4960 -2.4637
 6400TIP3   OH240758   3.114   6.489   2.006  0.1341  0.0908 -0.1203
 6400TIP3    H140759   3.160   6.427   2.062  2.9569  1.7267 -0.5131
 6400TIP3    H240760   3.060   6.541   2.066 -1.2321 -1.8291  0.3532
 6401TIP3   OH240761   1.953   5.497   1.032  0.1142 -0.1223 -0.2938
 6401TIP3    H140762   1.919   5.550   0.959  2.2980  1.1124 -0.4492
 6401TIP3    H240763   1.885   5.506   1.099 -1.0230  0.3130 -1.4536
 6402TIP3   OH240764   0.045   0.841   1.015  0.1864  0.5454 -0.3952
 6402TIP3    H140765   0.036   0.788   0.936 -2.1836 -0.1150  0.2942
 6402TIP3    H240766  -0.010   0.918   0.999  0.4348  0.8577  0.2337
 6403TIP3   OH240767   3.567   0.702   0.356 -0.1887 -0.0547 -0.1824
 6403TIP3    H140768   3.624   0.773   0.386 -0.4019 -0.6518  1.7623
 6403TIP3    H240769   3.614   0.622   0.382 -0.5483 -0.5928 -1.1842
 6404TIP3   OH240770   2.432   5.941   1.467 -0.5651  0.4881  0.3287
 6404TIP3    H140771   2.355   5.948   1.410 -0.6547  2.4351  0.6421
 6404TIP3    H240772   2.407   5.990   1.546  0.9430  1.0221  0.4806
 6405TIP3   OH240773   3.560   0.168   1.773 -0.7134  0.2468  0.8336
 6405TIP3    H140774   3.559   0.184   1.868  0.8703 -0.1250  0.9261
 6405TIP3    H240775   3.650   0.141   1.754 -0.3962  2.6195 -1.1795
 6406TIP3   OH240776   2.948   6.299   1.857  0.2307 -0.4176  0.3062
 6406TIP3    H140777   3.027   6.246   1.864  1.7306  1.6531 -0.4052
 6406TIP3    H240778   2.977   6.388   1.877 -1.1524  0.9808 -3.4714
 6407TIP3   OH240779   3.973   6.098   1.657  0.5443 -0.1856 -0.2004
 6407TIP3    H140780   3.998   6.070   1.745 -3.0465  0.7830  1.2149
 6407TIP3    H240781   4.006   6.188   1.650 -0.1940  0.1520  0.6133
 6408TIP3   OH240782   1.795   5.842   0.264  0.1566 -0.0188 -0.1682
 6408TIP3    H140783   1.875   5.883   0.229  0.2250  0.1976  0.2369
 6408TIP3    H240784   1.827   5.777   0.327  0.0009  0.4998  0.4570
 6409TIP3   OH240785   3.453   7.226   1.198 -0.1733 -0.2290 -0.3165
 6409TIP3    H140786   3.437   7.267   1.284  4.4946  1.6669 -0.1382
 6409TIP3    H240787   3.466   7.134   1.218 -0.9222 -0.1099  0.7809
 6410TIP3   OH240788   3.369   1.138   0.874 -0.3321 -0.1820  0.4414
 6410TIP3    H140789   3.408   1.146   0.787  0.0577 -0.4971  0.5863
 6410TIP3    H240790   3.348   1.228   0.899  2.5460  0.2795  1.3890
 6411TIP3   OH240791   1.967   5.740   6.149 -0.6219  0.1403  0.8522
 6411TIP3    H140792   1.912   5.697   6.083  1.2495 -1.3284  0.1956
 6411TIP3    H240793   2.028   5.792   6.098 -0.8204  1.0602  1.5453
 6412TIP3   OH240794   1.894   6.476   8.269 -0.3650 -0.4467  0.1330
 6412TIP3    H140795   1.802   6.498   8.258 -0.4630 -0.2133  1.3694
 6412TIP3    H240796   1.921   6.522   8.348  1.0378  0.1634 -0.6848
 6413TIP3   OH240797   3.063   5.775   2.168  0.0915  0.0291  0.2060
 6413TIP3    H140798   3.116   5.711   2.216  0.4432  0.7122  0.7385
 6413TIP3    H240799   2.974   5.759   2.197 -0.1107 -1.6706 -1.3101
 6414TIP3   OH240800   4.344   6.548   1.140 -0.7072  0.1595  0.3190
 6414TIP3    H140801   4.389   6.519   1.061  0.0756 -0.0560  0.8255
 6414TIP3    H240802   4.258   6.578   1.111  0.5998  2.7608 -1.0187
 6415TIP3   OH240803   4.163   0.065   0.091 -0.2876 -0.0518  1.0434
 6415TIP3    H140804   4.112  -0.014   0.107 -2.4334  0.8883 -0.8215
 6415TIP3    H240805   4.198   0.054   0.003  0.9454  0.2858  1.4789
 6416TIP3   OH240806   2.864   6.260   0.568 -0.2862  0.0310  0.8562
 6416TIP3    H140807   2.788   6.203   0.568 -1.2541  1.2943  1.9886
 6416TIP3    H240808   2.879   6.280   0.660  1.2265  0.0537  0.6160
 6417TIP3   OH240809   3.202   4.619   2.297 -0.4337  0.2354  0.2543
 6417TIP3    H140810   3.290   4.616   2.260 -1.0005  1.5810 -1.2394
 6417TIP3    H240811   3.175   4.528   2.302 -0.0788 -0.0353 -2.0715
 6418TIP3   OH240812   1.633   5.816   7.697  0.2741 -0.2560  0.6645
 6418TIP3    H140813   1.606   5.899   7.736 -0.3071 -0.1490  0.0441
 6418TIP3    H240814   1.579   5.807   7.618  1.6155 -0.3417 -0.2677
 6419TIP3   OH240815   5.607   0.720   0.398  0.4245  0.4286  0.3229
 6419TIP3    H140816   5.633   0.765   0.318  0.5877 -2.0994 -1.0865
 6419TIP3    H240817   5.515   0.742   0.410  0.3905  0.7737 -0.5635
 6420TIP3   OH240818   3.661   6.585   1.157  0.0934  0.3000  0.1385
 6420TIP3    H140819   3.633   6.500   1.122  1.7119 -0.8458  1.4895
 6420TIP3    H240820   3.610   6.596   1.237  0.4077  0.2367  0.3502
 6421TIP3   OH240821   2.543   6.282   1.212 -0.0187 -0.0785 -0.1004
 6421TIP3    H140822   2.607   6.258   1.145  0.5061  1.7389 -0.2796
 6421TIP3    H240823   2.463   6.301   1.163 -1.1705 -3.6777  0.2257
 6422TIP3   OH240824   3.450   5.685   1.950  0.5944  0.4493 -0.4228
 6422TIP3    H140825   3.409   5.725   2.027  0.5046 -0.7355  0.1605
 6422TIP3    H240826   3.533   5.649   1.983  0.7317  0.2608 -0.9648
 6423TIP3   OH240827   2.249   6.680   1.167  0.3263  0.2178 -0.6726
 6423TIP3    H140828   2.320   6.672   1.231  0.2380  1.7554 -0.3590
 6423TIP3    H240829   2.205   6.595   1.170 -0.9232  0.9090  2.7938
 6424TIP3   OH240830   1.630   7.178   7.793  0.2191 -0.1060 -0.3709
 6424TIP3    H140831   1.602   7.258   7.747  1.0420 -0.3351 -1.2860
 6424TIP3    H240832   1.700   7.207   7.851 -0.0447 -0.0195 -0.0939
 6425TIP3   OH240833   1.103   7.208   1.373  0.3423 -1.1232 -0.5079
 6425TIP3    H140834   1.011   7.218   1.396  1.2370  0.2216  2.8886
 6425TIP3    H240835   1.116   7.263   1.296 -1.4049 -0.2366 -0.1797
 6426TIP3   OH240836   2.392   1.467   0.779  0.3192 -0.4903 -0.6271
 6426TIP3    H140837   2.457   1.422   0.833 -0.5106 -0.1782  0.6697
 6426TIP3    H240838   2.442   1.504   0.706  1.5396 -0.5360  0.1738
 6427TIP3   OH240839   2.380   7.136   1.971  0.8445  0.1010  0.0116
 6427TIP3    H140840   2.448   7.086   2.016 -0.4520 -2.1521 -0.4426
 6427TIP3    H240841   2.411   7.142   1.881  0.4424 -0.9682 -0.2069
 6428TIP3   OH240842   2.993   4.818   8.033 -0.1929 -0.1673  0.6783
 6428TIP3    H140843   2.970   4.741   8.086  1.5355 -1.3381 -0.1884
 6428TIP3    H240844   2.914   4.839   7.984 -0.8181 -1.1380  1.2655
 6429TIP3   OH240845   4.505   2.071   0.994 -0.0701  0.7528  0.1108
 6429TIP3    H140846   4.410   2.074   0.983 -0.3368 -0.2570  1.9732
 6429TIP3    H240847   4.530   2.162   1.009 -0.5687  1.1858 -1.5494
 6430TIP3   OH240848   1.510   6.129   0.014 -0.4007  0.2866 -0.1765
 6430TIP3    H140849   1.582   6.163  -0.040  0.6397 -1.6290 -0.0338
 6430TIP3    H240850   1.434   6.129  -0.045  0.2245  0.2526 -0.9949
 6431TIP3   OH240851   0.732   7.176   0.467  0.0309  0.5396  0.2564
 6431TIP3    H140852   0.808   7.207   0.515  0.9148 -1.5359  0.2326
 6431TIP3    H240853   0.657   7.209   0.517  0.9381  0.5323  1.6320
 6432TIP3   OH240854   2.944   2.076   0.818 -0.4744 -0.2428 -0.0702
 6432TIP3    H140855   2.904   2.050   0.901 -0.5382  0.2972  0.0681
 6432TIP3    H240856   2.977   2.165   0.833 -2.0353  0.5402 -1.1553
 6433TIP3   OH240857   2.843   1.167   1.235 -0.3474  0.2523 -0.5521
 6433TIP3    H140858   2.781   1.215   1.290 -0.5765 -2.0372  1.2497
 6433TIP3    H240859   2.789   1.111   1.180  0.0878 -1.3293  0.6133
 6434TIP3   OH240860   4.420   6.211   1.181 -0.2507  0.3809  0.0487
 6434TIP3    H140861   4.382   6.141   1.234 -2.2599  1.2286 -0.2553
 6434TIP3    H240862   4.416   6.289   1.236 -0.7880  0.9048 -0.7223
 6435TIP3   OH240863   1.307   0.287   0.516  0.0244  0.0969  0.1510
 6435TIP3    H140864   1.224   0.272   0.472  0.3472  1.4616 -0.9672
 6435TIP3    H240865   1.298   0.243   0.600 -1.6928 -0.0624 -0.0973
 6436TIP3   OH240866   2.077   7.262   1.354  0.0389 -0.2575  0.6358
 6436TIP3    H140867   1.986   7.268   1.386  0.6812  1.3482  2.2398
 6436TIP3    H240868   2.071   7.204   1.278 -2.1177 -1.3290  1.5526
 6437TIP3   OH240869   1.988   7.269   2.167 -0.0393 -0.2352  0.2949
 6437TIP3    H140870   2.000   7.358   2.200 -1.2279 -0.4342  1.2907
 6437TIP3    H240871   2.000   7.212   2.244 -3.1669 -0.6754  0.5224
 6438TIP3   OH240872   0.983   6.081   1.053  0.3827  0.1727 -0.6352
 6438TIP3    H140873   0.994   6.066   1.147 -1.0150  0.4953 -0.4052
 6438TIP3    H240874   1.072   6.094   1.020  0.8861  0.0375  0.6371
 6439TIP3   OH240875   3.345   5.894   1.786  0.1851 -0.1362 -0.2347
 6439TIP3    H140876   3.259   5.908   1.825  0.6316  1.6609  0.1326
 6439TIP3    H240877   3.382   5.821   1.835 -0.9778 -0.7045 -0.1754
 6440TIP3   OH240878   3.784   5.274   0.677  0.3702  0.2303  0.0573
 6440TIP3    H140879   3.762   5.293   0.586 -1.2849  3.0495  0.9797
 6440TIP3    H240880   3.830   5.352   0.708 -0.9189  0.1899  2.2064
 6441TIP3   OH240881   6.935   5.377   1.641 -0.2405 -0.3778 -0.5106
 6441TIP3    H140882   6.919   5.292   1.601 -2.0206 -0.3040 -0.0130
 6441TIP3    H240883   6.918   5.363   1.734 -1.6036  0.7463 -0.5647
 6442TIP3   OH240884   1.360   5.760   0.802  0.0352  0.4028 -0.0981
 6442TIP3    H140885   1.271   5.776   0.769  0.9117  1.7468 -1.8573
 6442TIP3    H240886   1.417   5.811   0.744  2.1806 -2.1988 -0.3398
 6443TIP3   OH240887   2.994   5.499   2.275  0.6771 -0.5716 -0.2725
 6443TIP3    H140888   3.004   5.441   2.351  0.0154 -0.0993  0.1792
 6443TIP3    H240889   3.083   5.529   2.256  0.3465  3.0891  3.2719
 6444TIP3   OH240890   3.169   4.798   1.674  0.6520  0.7678  0.1224
 6444TIP3    H140891   3.209   4.816   1.759 -1.6085  2.8089  0.8073
 6444TIP3    H240892   3.087   4.846   1.675  0.3550  0.4689 -3.0589
 6445TIP3   OH240893   1.374   5.360   7.741  0.0230 -0.4129 -0.4271
 6445TIP3    H140894   1.310   5.431   7.744  0.7235  0.3566 -2.6426
 6445TIP3    H240895   1.458   5.404   7.725  1.0445 -1.4654  1.7117
 6446TIP3   OH240896   2.950   5.393   2.012 -0.0412  0.4458 -0.3283
 6446TIP3    H140897   2.897   5.322   2.048  1.6564  0.0372  1.4811
 6446TIP3    H240898   2.948   5.461   2.080  0.4151  1.0774 -0.9417
 6447TIP3   OH240899   2.563   5.441   1.218 -0.4032 -0.9201  0.3787
 6447TIP3    H140900   2.514   5.484   1.288 -0.0238 -0.6947  0.5055
 6447TIP3    H240901   2.654   5.450   1.244 -0.0718  1.5261 -1.4716
 6448TIP3   OH240902   4.925   5.041   0.120  0.2244  0.4784  0.3068
 6448TIP3    H140903   4.929   5.074   0.210  0.3224  0.8243  0.1745
 6448TIP3    H240904   4.961   5.111   0.067  0.2743  0.2267  0.0067
 6449TIP3   OH240905   3.076   4.339   7.702 -0.2975 -0.5183  0.0592
 6449TIP3    H140906   3.121   4.316   7.783 -1.2479 -0.2796  0.6665
 6449TIP3    H240907   2.990   4.297   7.709 -1.3816  1.6685  0.3938
 6450TIP3   OH240908   1.743   6.997   1.563 -0.4006 -0.4945 -0.5443
 6450TIP3    H140909   1.819   7.044   1.597 -1.2197 -0.2161  0.9716
 6450TIP3    H240910   1.668   7.049   1.593 -1.2566 -1.8804 -0.2394
 6451TIP3   OH240911   3.216   6.260   0.607 -0.0370  0.5061  0.3784
 6451TIP3    H140912   3.220   6.185   0.667  0.7427  0.9471  0.8801
 6451TIP3    H240913   3.294   6.311   0.627 -0.0810  0.9716 -0.6062
 6452TIP3   OH240914   2.592   5.841   2.331  0.3736 -0.2959 -0.3506
 6452TIP3    H140915   2.642   5.903   2.383  0.2475  0.7586 -1.4720
 6452TIP3    H240916   2.631   5.756   2.350 -0.1245 -0.0308  2.0132
 6453TIP3   OH240917   1.105   0.208   7.364  0.6445  0.5754 -0.4178
 6453TIP3    H140918   1.097   0.299   7.391  1.5732  1.6072 -3.5106
 6453TIP3    H240919   1.044   0.198   7.291  0.5123 -1.3025 -0.0923
 6454TIP3   OH240920   2.627   6.117   1.442 -0.0457  0.2298  0.2048
 6454TIP3    H140921   2.569   6.041   1.447 -0.7819  0.8038  0.5920
 6454TIP3    H240922   2.625   6.142   1.349  1.4071 -1.1294 -0.2174
 6455TIP3   OH240923   2.577   6.943   1.831 -0.0641  0.1553  0.5415
 6455TIP3    H140924   2.599   6.965   1.740  1.4966 -0.3364  0.7845
 6455TIP3    H240925   2.660   6.918   1.870 -0.9396 -0.9575  1.7462
 6456TIP3   OH240926   4.031   6.058   1.106  0.0215  0.0425  0.1058
 6456TIP3    H140927   4.074   6.106   1.177 -2.5693  2.6527 -0.0139
 6456TIP3    H240928   4.005   5.975   1.145  0.5915  0.5471  1.5742
 6457TIP3   OH240929   3.740   4.925   7.688 -0.2957  0.1784  0.0660
 6457TIP3    H140930   3.667   4.864   7.678 -0.2743  0.4165 -1.7636
 6457TIP3    H240931   3.813   4.881   7.643  0.3541  0.4758  0.8388
 6458TIP3   OH240932   2.503   5.531   1.721 -0.4255 -0.3384 -0.5580
 6458TIP3    H140933   2.478   5.477   1.645 -1.7376 -0.1313 -0.2841
 6458TIP3    H240934   2.573   5.481   1.764 -0.8206 -1.2581 -0.9732
 6459TIP3   OH240935   2.573   0.161   0.072  0.1076 -0.4434  0.4940
 6459TIP3    H140936   2.502   0.225   0.075  0.7397  0.3108 -0.4063
 6459TIP3    H240937   2.555   0.102   0.144 -1.2910 -0.0963  0.4419
 6460TIP3   OH240938   2.140   6.580   0.302 -0.5152  0.3829  0.6265
 6460TIP3    H140939   2.190   6.498   0.313 -3.1907 -1.5573 -1.0811
 6460TIP3    H240940   2.079   6.581   0.376 -1.5065  0.0396 -0.1716
 6461TIP3   OH240941   4.148   6.882   1.127  0.2182 -0.0578 -0.2818
 6461TIP3    H140942   4.132   6.970   1.092  0.1254  0.1779  0.3604
 6461TIP3    H240943   4.094   6.876   1.205  0.5573 -0.5335 -0.0798
 6462TIP3   OH240944   1.973   4.887   0.546 -0.7807 -0.5370  0.3847
 6462TIP3    H140945   1.995   4.861   0.636 -0.1502 -2.1415 -0.2152
 6462TIP3    H240946   1.909   4.822   0.517 -1.4072  0.3041 -0.1381
 6463TIP3   OH240947   4.804   5.738   1.156  0.1867 -0.2082 -0.0686
 6463TIP3    H140948   4.813   5.714   1.064 -0.0394 -1.1367  0.1457
 6463TIP3    H240949   4.819   5.832   1.158  0.1358 -0.1749 -1.0652
 6464TIP3   OH240950   3.867   6.743   1.079  0.4491 -0.2315  0.2061
 6464TIP3    H140951   3.802   6.679   1.106  1.0750 -0.4522  1.1928
 6464TIP3    H240952   3.933   6.743   1.149  0.5258  1.3820  0.1707
 6465TIP3   OH240953   2.269   6.071   2.493  0.2967 -0.4939 -0.1301
 6465TIP3    H140954   2.216   6.033   2.563  1.6791 -3.2260 -0.4872
 6465TIP3    H240955   2.237   6.029   2.413 -0.9197  2.2102 -1.1064
 6466TIP3   OH240956   3.408   0.379   0.036 -0.3018 -0.3137 -0.1374
 6466TIP3    H140957   3.402   0.441   0.108 -0.1258 -0.2361 -0.1888
 6466TIP3    H240958   3.318   0.351   0.020 -0.2665 -0.8165  0.5315
 6467TIP3   OH240959   1.738   6.470   0.579 -0.6864  0.5482  0.3990
 6467TIP3    H140960   1.680   6.542   0.553 -1.8171 -0.4593  0.0725
 6467TIP3    H240961   1.734   6.409   0.505 -0.5919 -0.3584  1.1403
 6468TIP3   OH240962   6.281   5.592   7.722 -0.3037 -0.3698  0.1955
 6468TIP3    H140963   6.238   5.666   7.763  1.6913  0.4224  0.9455
 6468TIP3    H240964   6.251   5.593   7.631 -1.4683  0.4306  0.5864
 6469TIP3   OH240965   1.260   6.072   1.002  0.4275 -0.1063  0.1574
 6469TIP3    H140966   1.272   6.002   1.066  0.2851  0.4812  0.8355
 6469TIP3    H240967   1.321   6.140   1.028  1.0778 -0.2526 -0.9226
 6470TIP3   OH240968   1.515   7.102   1.634  0.2651 -0.0029 -0.2175
 6470TIP3    H140969   1.427   7.094   1.596  0.2102 -0.9816  0.1065
 6470TIP3    H240970   1.500   7.142   1.719  0.1726  0.1817 -0.3189
 6471TIP3   OH240971   1.987   4.018   8.180 -0.6870  0.3436  0.1092
 6471TIP3    H140972   1.931   4.024   8.103 -1.6005  0.0680  0.7454
 6471TIP3    H240973   2.043   3.942   8.164 -1.0666  0.1226 -0.1565
 6472TIP3   OH240974   1.783   5.703   1.165 -0.1346  0.0938  0.5920
 6472TIP3    H140975   1.702   5.651   1.165  0.4597 -0.9484 -2.8678
 6472TIP3    H240976   1.755   5.790   1.138 -0.1448 -0.2095 -0.3882
 6473TIP3   OH240977   0.426   5.259   0.329 -0.1894  0.7751 -0.1996
 6473TIP3    H140978   0.519   5.275   0.315  0.0707  0.4114  1.0811
 6473TIP3    H240979   0.388   5.260   0.241  1.2752 -0.6428 -0.8671
 6474TIP3   OH240980   2.320   5.564   8.161 -0.0470  0.1570  0.0100
 6474TIP3    H140981   2.384   5.616   8.113  1.1979 -1.0019  0.3568
 6474TIP3    H240982   2.370   5.487   8.191 -0.8109  0.7893  3.0447
 6475TIP3   OH240983   2.801   3.675   8.373  0.2109 -0.3967 -0.4620
 6475TIP3    H140984   2.744   3.692   8.299  2.4558 -1.7256 -2.5700
 6475TIP3    H240985   2.827   3.761   8.404  0.9205  0.1684 -2.5716
 6476TIP3   OH240986   5.052   0.186   1.491 -0.1107 -0.1575  0.1825
 6476TIP3    H140987   5.140   0.171   1.524 -0.2836 -1.5273  0.0693
 6476TIP3    H240988   5.033   0.277   1.512  0.7639 -0.2807  1.5335
 6477TIP3   OH240989   3.725   5.280   1.217  0.0568 -0.3441 -0.7041
 6477TIP3    H140990   3.808   5.317   1.248 -0.8663  1.2408 -0.1063
 6477TIP3    H240991   3.751   5.215   1.151  1.8787 -1.3921  0.9965
 6478TIP3   OH240992   0.838   6.872   1.094 -0.3773  0.0291  0.1437
 6478TIP3    H140993   0.770   6.805   1.102  0.0556 -0.5716 -0.9586
 6478TIP3    H240994   0.919   6.822   1.082 -0.2213  0.7294 -1.9567
 6479TIP3   OH240995   4.099   0.256   0.761  0.2635 -0.0818  0.6006
 6479TIP3    H140996   4.034   0.257   0.690  0.4712 -1.4171  0.3839
 6479TIP3    H240997   4.098   0.345   0.795  0.1276  0.5686 -1.0588
 6480TIP3   OH240998   3.149   5.486   0.974  0.1123 -0.0187 -0.2852
 6480TIP3    H140999   3.193   5.517   0.895 -1.1475  1.7140 -0.3563
 6480TIP3    H241000   3.166   5.554   1.039 -0.3277 -0.5708  0.4154
 6481TIP3   OH241001   1.447   0.494   0.326  0.0290 -0.1568  0.2289
 6481TIP3    H141002   1.404   0.575   0.298 -2.2854 -1.1206  0.8145
 6481TIP3    H241003   1.511   0.522   0.391  1.0161  1.4393 -1.3920
 6482TIP3   OH241004   2.509   4.511   1.992 -0.2657 -0.4421 -0.0579
 6482TIP3    H141005   2.580   4.526   1.930  0.0244 -0.5248  0.2534
 6482TIP3    H241006   2.459   4.438   1.954 -1.7515  1.3413 -1.6346
 6483TIP3   OH241007   1.651   6.449   1.176  0.1093 -0.8529 -0.4538
 6483TIP3    H141008   1.637   6.528   1.229  0.4656 -1.2085  0.1735
 6483TIP3    H241009   1.728   6.469   1.123 -0.8470 -0.1052 -1.6059
 6484TIP3   OH241010   5.171   5.521   8.276 -0.5029  0.1827  0.2190
 6484TIP3    H141011   5.211   5.512   8.362 -0.1581 -2.6923 -0.1875
 6484TIP3    H241012   5.220   5.592   8.234 -0.8755  1.8092  2.4478
 6485TIP3   OH241013   1.876   5.974   2.317 -0.4527 -0.2910 -0.0968
 6485TIP3    H141014   1.781   5.979   2.308 -0.3144  0.6376 -1.1386
 6485TIP3    H241015   1.893   5.883   2.342 -1.6803 -0.2142  1.0696
 6486TIP3   OH241016   0.926   5.316   8.047  1.0501  0.2516 -0.8224
 6486TIP3    H141017   0.955   5.290   7.960  3.2833 -0.3061  0.0631
 6486TIP3    H241018   0.830   5.315   8.042  1.1605 -0.0043 -3.1823
 6487TIP3   OH241019   4.038   5.860   0.941 -0.5325  0.1205  0.1690
 6487TIP3    H141020   4.100   5.818   1.000 -0.8257 -1.9760 -0.9687
 6487TIP3    H241021   4.035   5.951   0.970  0.6961 -0.4614  2.2061
 6488TIP3   OH241022   1.045   5.682   1.592  0.3840 -0.0350 -0.2879
 6488TIP3    H141023   1.013   5.677   1.502 -2.4374 -1.0280  0.7056
 6488TIP3    H241024   1.140   5.688   1.583  0.2391 -1.0997 -3.3111
 6489TIP3   OH241025   1.520   3.226   0.319 -0.4236  0.5256 -0.7690
 6489TIP3    H141026   1.468   3.252   0.395  0.3734  2.0434 -0.7326
 6489TIP3    H241027   1.601   3.191   0.356 -0.9946 -0.9281 -0.8590
 6490TIP3   OH241028   2.298   4.539   1.116  0.2610 -0.3599  0.3506
 6490TIP3    H141029   2.353   4.579   1.183  1.0258 -1.1960  0.2289
 6490TIP3    H241030   2.208   4.551   1.148  0.5286  0.7246  0.7016
 6491TIP3   OH241031   2.245   5.015   6.563 -0.2104 -0.1248 -0.3599
 6491TIP3    H141032   2.212   5.071   6.633 -0.8022 -2.9914  1.7238
 6491TIP3    H241033   2.166   4.980   6.521  0.1547 -0.8637 -0.4376
 6492TIP3   OH241034   2.801   7.034   1.971 -0.5592 -0.3305  0.8563
 6492TIP3    H141035   2.717   7.076   1.990 -0.3243  0.5460 -0.0425
 6492TIP3    H241036   2.825   6.991   2.053 -0.7288  1.4072  1.8354
 6493TIP3   OH241037   2.305   6.307   1.068 -1.1496  0.0072 -0.0283
 6493TIP3    H141038   2.301   6.212   1.073  1.5586 -0.1665 -0.3968
 6493TIP3    H241039   2.289   6.327   0.975  0.2894 -0.2579 -0.3530
 6494TIP3   OH241040   1.841   5.837   1.897 -0.0418 -0.3342 -0.6932
 6494TIP3    H141041   1.883   5.922   1.909 -0.6631  0.1649 -2.0100
 6494TIP3    H241042   1.822   5.807   1.986  1.1440  0.4116 -0.1754
 6495TIP3   OH241043   3.968   6.381   1.708 -0.0024  0.4711  0.3796
 6495TIP3    H141044   3.947   6.322   1.781 -0.6557 -1.0718 -1.0386
 6495TIP3    H241045   3.884   6.418   1.682 -0.5894 -2.8614 -2.8619
 6496TIP3   OH241046   5.366   6.473   0.501  0.5846  0.3016  0.0960
 6496TIP3    H141047   5.271   6.459   0.493  0.9260 -1.7292 -0.6193
 6496TIP3    H241048   5.388   6.440   0.588  0.7367  0.1368 -0.0037
 6497TIP3   OH241049   4.796   5.429   8.486  0.1714  0.1471 -0.5781
 6497TIP3    H141050   4.802   5.493   8.558 -1.1097 -0.1441 -0.2167
 6497TIP3    H241051   4.853   5.357   8.514  1.2923  0.9309 -0.7955
 6498TIP3   OH241052   3.421   0.914   0.610 -0.8663  0.4824  0.2945
 6498TIP3    H141053   3.358   0.986   0.618 -3.1063 -1.4729  0.5865
 6498TIP3    H241054   3.369   0.835   0.621  1.1619 -1.2967 -2.3395
 6499TIP3   OH241055   5.491   5.341   1.722  0.1895  0.2160 -0.3626
 6499TIP3    H141056   5.557   5.308   1.783  0.4721  0.6608 -0.4234
 6499TIP3    H241057   5.521   5.429   1.700  0.1355  0.0383 -1.1954
 6500TIP3   OH241058   5.800   6.632   1.425  0.3842 -0.1458  0.4631
 6500TIP3    H141059   5.761   6.717   1.446  0.3898 -0.1303  0.4113
 6500TIP3    H241060   5.877   6.626   1.481 -0.3174 -0.6632  1.3825
 6501TIP3   OH241061   2.502   6.040   8.327 -0.8364  0.3536  0.1910
 6501TIP3    H141062   2.525   6.132   8.338  0.8521 -0.2744  2.1073
 6501TIP3    H241063   2.447   6.020   8.403 -0.4538 -0.4314  0.2687
 6502TIP3   OH241064   2.973   6.543   8.282  0.1503 -0.1896 -0.7953
 6502TIP3    H141065   2.910   6.558   8.212 -0.6209  0.8241  0.0849
 6502TIP3    H241066   3.033   6.617   8.277 -0.8907  0.7949  0.6239
 6503TIP3   OH241067   3.937   6.028   1.386  0.7771  0.0274  0.1735
 6503TIP3    H141068   3.936   6.015   1.481  1.3122  0.4561  0.2391
 6503TIP3    H241069   4.008   6.090   1.371  0.9323 -0.3168 -0.5457
 6504TIP3   OH241070   7.027   6.770   0.805 -0.7583 -0.0590  0.0809
 6504TIP3    H141071   6.963   6.745   0.739 -1.3263 -0.3379  0.7320
 6504TIP3    H241072   7.079   6.691   0.820  0.4249  0.4472 -1.1945
 6505TIP3   OH241073   5.219   5.477   1.663  0.2721  0.3341  0.2426
 6505TIP3    H141074   5.170   5.443   1.588  0.0846 -0.0816  0.5561
 6505TIP3    H241075   5.153   5.495   1.729  0.5137  0.0222  0.5696
 6506TIP3   OH241076   6.022   0.788   1.433 -0.1086 -0.1583 -0.0089
 6506TIP3    H141077   6.029   0.692   1.427 -0.4660 -0.0916 -1.9634
 6506TIP3    H241078   6.110   0.817   1.456  0.2589 -0.8910 -0.4753
 6507TIP3   OH241079   0.313   6.728   7.839 -0.2439 -0.0491  0.2072
 6507TIP3    H141080   0.360   6.650   7.807 -0.1195 -0.5108  1.4802
 6507TIP3    H241081   0.319   6.722   7.935  1.4952  2.5635  0.3234
 6508TIP3   OH241082   4.906   5.872   2.047  0.0029 -0.2956  0.3480
 6508TIP3    H141083   4.955   5.866   2.129  1.1957  1.5516 -0.1878
 6508TIP3    H241084   4.973   5.887   1.980 -1.2050  1.4104 -0.5136
 6509TIP3   OH241085   6.739   6.524   0.862  0.7324 -0.4815  0.1169
 6509TIP3    H141086   6.772   6.450   0.913  2.7651  0.3657  0.0467
 6509TIP3    H241087   6.645   6.525   0.880  0.5889 -3.3337 -0.2113
 6510TIP3   OH241088   5.336   7.236   0.764 -0.6732 -0.6382 -0.1470
 6510TIP3    H141089   5.370   7.150   0.791 -1.8181 -0.9032  0.4955
 6510TIP3    H241090   5.270   7.215   0.697  0.3825 -0.1380 -1.3431
 6511TIP3   OH241091   4.193   6.423   0.394  0.2219 -0.3320 -0.3299
 6511TIP3    H141092   4.210   6.508   0.352  2.4226 -0.6672 -0.1761
 6511TIP3    H241093   4.194   6.442   0.487 -0.8456 -0.2592 -0.3311
 6512TIP3   OH241094   5.907   4.967   1.935 -0.8748  0.3873  0.3292
 6512TIP3    H141095   5.921   5.006   1.849  0.1086 -1.9534 -0.6099
 6512TIP3    H241096   5.848   4.893   1.919 -1.0686  0.2146  1.7358
 6513TIP3   OH241097   2.518   5.396   0.744 -0.2505  0.1092 -0.4017
 6513TIP3    H141098   2.460   5.330   0.707 -1.2517  0.9736 -0.3871
 6513TIP3    H241099   2.466   5.439   0.812  1.2410 -0.8160  1.3934
 6514TIP3   OH241100   5.070   5.925   1.773  0.3613 -0.3264 -0.3894
 6514TIP3    H141101   5.035   5.840   1.747 -0.9967  0.2287 -0.3896
 6514TIP3    H241102   5.161   5.924   1.742  0.9938 -2.5558  1.3660
 6515TIP3   OH241103   5.938   3.853   1.214  0.0607  0.1436 -0.1772
 6515TIP3    H141104   5.857   3.903   1.201  0.1089  0.0363 -0.9422
 6515TIP3    H241105   5.908   3.766   1.241 -0.0556  0.3222  0.2650
 6516TIP3   OH241106   4.344   7.160   0.939 -0.0109  0.5361 -0.3753
 6516TIP3    H141107   4.419   7.159   0.998  0.6108 -0.0389 -1.1523
 6516TIP3    H241108   4.268   7.157   0.996  0.5101  2.9012  0.4875
 6517TIP3   OH241109   4.026   5.306   6.840  0.1068 -0.2660 -0.0008
 6517TIP3    H141110   4.104   5.251   6.835 -0.8821 -1.5343 -5.2141
 6517TIP3    H241111   3.953   5.244   6.846 -0.7405  0.6824 -0.3045
 6518TIP3   OH241112   5.281   0.193   1.662 -0.1799 -0.1853 -0.2384
 6518TIP3    H141113   5.301   0.104   1.691 -0.2713 -0.7871 -2.0153
 6518TIP3    H241114   5.227   0.229   1.733  0.8220 -1.1224  1.0401
 6519TIP3   OH241115   4.124   5.220   1.016  0.3823 -0.2252  0.1195
 6519TIP3    H141116   4.175   5.296   0.989 -1.2368  1.7096  2.3182
 6519TIP3    H241117   4.185   5.146   1.012  1.7846  1.0467 -2.7357
 6520TIP3   OH241118   3.406   4.452   0.164 -0.2877  0.0729 -0.3063
 6520TIP3    H141119   3.488   4.458   0.116 -0.2505  0.0165 -0.2497
 6520TIP3    H241120   3.386   4.542   0.190  0.3362 -0.0548  0.6437
 6521TIP3   OH241121   3.105   7.014   0.769  0.1455 -0.6484 -0.1238
 6521TIP3    H141122   3.184   6.994   0.818  1.5997 -0.7159 -2.4102
 6521TIP3    H241123   3.038   6.957   0.806  1.0478 -0.2682  2.1302
 6522TIP3   OH241124   5.333   5.694   7.871 -0.4041  0.2115 -0.1295
 6522TIP3    H141125   5.254   5.664   7.826 -0.8511  0.1284  0.6861
 6522TIP3    H241126   5.404   5.642   7.835 -0.2748  2.1503 -2.8456
 6523TIP3   OH241127   2.987   5.953   1.782  0.0762  0.3722  0.1859
 6523TIP3    H141128   2.919   6.005   1.740 -1.8143 -0.2159  2.3942
 6523TIP3    H241129   3.037   6.017   1.833  0.2584  0.5953 -0.2731
 6524TIP3   OH241130   4.845   6.186   0.300  0.2880  0.2851 -0.6041
 6524TIP3    H141131   4.883   6.214   0.217  0.1550  0.6121 -0.5540
 6524TIP3    H241132   4.840   6.266   0.353 -2.0433  0.5856 -1.2164
 6525TIP3   OH241133   4.648   6.689   8.091  0.1804  0.1587 -0.6440
 6525TIP3    H141134   4.612   6.637   8.162  1.8874 -0.4477 -0.1893
 6525TIP3    H241135   4.618   6.778   8.108 -1.2894 -0.3601 -0.4413
 6526TIP3   OH241136   4.431   6.496   0.084 -0.7576 -0.3482 -0.5536
 6526TIP3    H141137   4.426   6.401   0.077 -1.2079 -0.4526  0.9095
 6526TIP3    H241138   4.341   6.526   0.072 -0.6651 -0.1336 -0.7114
 6527TIP3   OH241139   0.456   1.607   6.978  0.5022  0.2989 -0.0791
 6527TIP3    H141140   0.421   1.638   6.894  1.2262  0.3736 -0.3602
 6527TIP3    H241141   0.434   1.514   6.981 -0.1460  0.4532 -0.0329
 6528TIP3   OH241142   4.498   0.206   2.358  0.3024 -0.0635  0.3275
 6528TIP3    H141143   4.434   0.278   2.356  0.2836 -0.1082 -1.5088
 6528TIP3    H241144   4.535   0.209   2.446 -0.4950  1.4940  0.6248
 6529TIP3   OH241145   5.691   6.597   0.775 -0.4727  0.0595  0.1028
 6529TIP3    H141146   5.712   6.614   0.868  2.0757 -1.7255 -0.0944
 6529TIP3    H241147   5.612   6.649   0.759  0.3170  2.2127  2.6672
 6530TIP3   OH241148   2.571   7.235   8.040  0.8807  0.0173 -0.6196
 6530TIP3    H141149   2.664   7.241   8.017  1.8382 -1.5045  2.5560
 6530TIP3    H241150   2.556   7.311   8.097  0.5847 -0.6060  0.1381
 6531TIP3   OH241151   3.200   0.417   1.014 -0.0554 -0.1904  0.0071
 6531TIP3    H141152   3.121   0.446   1.059 -0.0808 -0.1154 -0.0856
 6531TIP3    H241153   3.252   0.497   1.003 -0.8891  0.1307 -1.7907
 6532TIP3   OH241154   4.951   5.512   2.249 -0.2543  0.3730 -0.0358
 6532TIP3    H141155   4.889   5.560   2.305  0.1865  0.5893  0.2718
 6532TIP3    H241156   5.034   5.560   2.259 -0.3636  0.8672 -1.4768
 6533TIP3   OH241157   4.624   6.710   1.735  0.0088  0.2961  0.2065
 6533TIP3    H141158   4.703   6.765   1.735  1.2722 -1.4627  1.6764
 6533TIP3    H241159   4.633   6.656   1.813  0.1048 -3.8862 -2.5612
 6534TIP3   OH241160   2.617   0.344   1.082  0.6082  0.2049  0.4343
 6534TIP3    H141161   2.703   0.302   1.073  2.0711  1.9277  5.1321
 6534TIP3    H241162   2.559   0.273   1.110  0.8880 -0.5566 -0.8410
 6535TIP3   OH241163   6.465   5.811   1.051 -0.1827 -0.6096  0.6867
 6535TIP3    H141164   6.380   5.803   1.095 -0.5596  0.8777  0.2605
 6535TIP3    H241165   6.529   5.802   1.121 -0.6778 -2.3659  0.9178
 6536TIP3   OH241166   4.577   7.214   0.322  0.2355  0.1938  0.2379
 6536TIP3    H141167   4.599   7.148   0.387 -0.2460  0.8235  1.0535
 6536TIP3    H241168   4.520   7.168   0.260 -0.7746  0.0521  1.2578
 6537TIP3   OH241169   3.896   6.265   1.976 -0.1300 -0.4528  0.3498
 6537TIP3    H141170   3.978   6.294   2.016 -0.1121 -1.0708  0.7569
 6537TIP3    H241171   3.831   6.326   2.010 -0.1702 -1.1710  1.5907
 6538TIP3   OH241172   6.747   6.722   7.641 -0.1817 -0.0090 -0.1965
 6538TIP3    H141173   6.791   6.641   7.616 -0.9398  0.0418 -1.7422
 6538TIP3    H241174   6.819   6.785   7.652  0.4654 -1.0304  1.7035
 6539TIP3   OH241175   4.656   6.359   1.748 -0.3760  0.3329 -0.1996
 6539TIP3    H141176   4.733   6.376   1.694 -0.1847 -1.8766 -0.6742
 6539TIP3    H241177   4.687   6.366   1.838  0.6801 -1.6183 -0.3789
 6540TIP3   OH241178   4.653   4.937   0.184 -0.3534 -0.3498  0.3012
 6540TIP3    H141179   4.749   4.934   0.183 -0.4140 -3.1249 -0.1585
 6540TIP3    H241180   4.632   5.028   0.207  2.3671  0.5362 -0.5583
 6541TIP3   OH241181   3.980   5.776   1.837 -0.3025 -0.2923  0.0711
 6541TIP3    H141182   3.901   5.724   1.850  0.4890 -1.4130  0.4843
 6541TIP3    H241183   3.987   5.786   1.742 -0.5638 -0.7675  0.0022
 6542TIP3   OH241184   2.592   0.619   0.566  0.0147  0.0508 -0.6048
 6542TIP3    H141185   2.613   0.657   0.480  2.4709  1.7033  0.6734
 6542TIP3    H241186   2.657   0.550   0.578  0.8449  1.0290  0.6820
 6543TIP3   OH241187   5.126   5.535   1.942 -0.1864 -0.5572 -0.4707
 6543TIP3    H141188   5.051   5.493   1.899 -0.1164  0.7021 -1.8793
 6543TIP3    H241189   5.194   5.468   1.941 -0.8511 -1.2433 -0.4383
 6544TIP3   OH241190   5.499   6.769   0.587 -0.2857  0.0395 -0.2011
 6544TIP3    H141191   5.486   6.823   0.509 -1.5629  2.4065  1.5660
 6544TIP3    H241192   5.413   6.732   0.606 -0.2700  0.4859  0.7846
 6545TIP3   OH241193   4.175   1.530   0.403 -0.0181  0.2151 -0.2428
 6545TIP3    H141194   4.222   1.597   0.451 -0.2119  0.7072 -0.7381
 6545TIP3    H241195   4.133   1.476   0.471  0.2187  0.5318  0.1526
 6546TIP3   OH241196   5.594   5.813   1.649 -0.6454  0.1591  0.1512
 6546TIP3    H141197   5.685   5.835   1.631 -0.6866  0.6293  0.4860
 6546TIP3    H241198   5.575   5.738   1.593 -0.9133  1.8463 -2.0526
 6547TIP3   OH241199   3.118   5.322   7.312  0.3856 -0.4114  0.3424
 6547TIP3    H141200   3.103   5.251   7.249 -0.9468  0.6029 -0.5152
 6547TIP3    H241201   3.212   5.324   7.324  0.7407 -0.2020 -2.1500
 6548TIP3   OH241202   4.091   4.138   1.290  0.4511  0.3947  0.4532
 6548TIP3    H141203   4.184   4.133   1.311  1.4165 -1.4357 -3.7896
 6548TIP3    H241204   4.052   4.063   1.336  1.3180  0.2441  0.9611
 6549TIP3   OH241205   3.923   5.303   0.423 -0.6137  0.5745 -0.4073
 6549TIP3    H141206   3.979   5.252   0.481 -1.1958  0.1979 -0.1758
 6549TIP3    H241207   3.975   5.380   0.401 -1.7752  2.6871  3.7158
 6550TIP3   OH241208   4.438   6.624   7.182  0.9463  0.1238  0.0687
 6550TIP3    H141209   4.485   6.643   7.263  1.6883  2.5402 -0.8679
 6550TIP3    H241210   4.369   6.690   7.178  0.8215 -0.0612 -1.1978
 6551TIP3   OH241211   2.461   6.785   7.475 -0.3421  0.2926 -0.0418
 6551TIP3    H141212   2.433   6.706   7.430  0.0386 -0.0523  0.3298
 6551TIP3    H241213   2.549   6.766   7.505 -0.2753  0.8322  0.1150
 6552TIP3   OH241214   2.923   5.782   1.251 -0.3013 -0.3619 -0.5695
 6552TIP3    H141215   2.860   5.798   1.181 -0.7735 -0.4995 -0.1810
 6552TIP3    H241216   2.962   5.868   1.268 -1.8182  0.1446  0.5449
 6553TIP3   OH241217   4.456   1.313   7.247  0.0681  0.1233  0.0207
 6553TIP3    H141218   4.376   1.271   7.217 -0.7058  0.6871  1.2502
 6553TIP3    H241219   4.515   1.240   7.266 -1.4471 -0.5130  2.6313
 6554TIP3   OH241220   4.895   7.214   8.320  0.0388  0.1491 -0.4213
 6554TIP3    H141221   4.907   7.246   8.409  0.8312 -0.8539 -0.1596
 6554TIP3    H241222   4.961   7.146   8.310 -1.6208 -1.4123 -0.9747
 6555TIP3   OH241223   5.015   6.286   1.361 -0.0706  0.4512 -0.0951
 6555TIP3    H141224   4.954   6.232   1.312 -1.0708  0.7179  0.8165
 6555TIP3    H241225   5.097   6.237   1.360 -0.6940 -0.6169 -0.1100
 6556TIP3   OH241226   5.018   4.506   0.861  0.1425 -0.0791 -0.0949
 6556TIP3    H141227   4.941   4.453   0.881 -1.1754  1.3918 -1.1476
 6556TIP3    H241228   5.064   4.457   0.793 -1.0395  0.0872 -1.0295
 6557TIP3   OH241229   2.482   6.100   0.303 -0.1720  0.7720 -0.5411
 6557TIP3    H141230   2.490   6.196   0.302  0.1958  0.7449 -0.4057
 6557TIP3    H241231   2.426   6.080   0.228 -0.1309  1.0861 -0.6581
 6558TIP3   OH241232   5.562   5.051   0.924  0.6258  0.1999  0.2483
 6558TIP3    H141233   5.479   5.041   0.971 -0.0479 -0.7099 -1.1050
 6558TIP3    H241234   5.627   5.011   0.981  0.1444  0.9317  1.3319
 6559TIP3   OH241235   3.037   4.553   1.944 -0.1146 -0.2697  0.1476
 6559TIP3    H141236   3.032   4.631   1.998  2.3616  0.5632 -0.7785
 6559TIP3    H241237   3.080   4.488   1.999 -1.5643 -0.8077  0.6788
 6560TIP3   OH241238   3.114   7.107   8.039 -0.8060 -0.5777  0.3403
 6560TIP3    H141239   3.068   7.032   8.001 -2.7581  1.0378 -0.5634
 6560TIP3    H241240   3.122   7.085   8.132  1.2082 -3.1503 -0.3921
 6561TIP3   OH241241   5.692   5.110   8.306  0.2090  0.2007  0.1719
 6561TIP3    H141242   5.623   5.176   8.306  1.7926  1.8916  1.3762
 6561TIP3    H241243   5.661   5.044   8.244 -1.1373  2.3395 -1.5187
 6562TIP3   OH241244   6.269   7.193   0.806 -0.5814  0.2575  0.0546
 6562TIP3    H141245   6.235   7.280   0.827  1.3808  0.8649  0.8404
 6562TIP3    H241246   6.269   7.190   0.710  1.0711  1.8720 -0.0285
 6563TIP3   OH241247   4.374   4.873   1.406  0.0222  0.3066  0.5975
 6563TIP3    H141248   4.467   4.894   1.394  0.0487 -0.1038  0.0741
 6563TIP3    H241249   4.332   4.902   1.326 -0.2884  0.4023  0.7950
 6564TIP3   OH241250   4.783   3.984   1.681  0.0328 -0.2518 -0.0115
 6564TIP3    H141251   4.794   3.992   1.776 -0.5108 -0.0159  0.0358
 6564TIP3    H241252   4.688   3.983   1.669  0.0925 -1.0580 -0.4874
 6565TIP3   OH241253   0.187   6.602   0.297 -0.2774 -0.2633 -0.8920
 6565TIP3    H141254   0.255   6.655   0.338  0.4864 -1.4886 -0.5411
 6565TIP3    H241255   0.229   6.563   0.221 -0.9882  0.0571 -1.4508
 6566TIP3   OH241256   7.136   4.128   0.778  0.4979  0.2595 -0.0707
 6566TIP3    H141257   7.131   4.129   0.874 -1.2729  0.2756 -0.1394
 6566TIP3    H241258   7.063   4.182   0.750  0.5881 -0.3106 -1.4424
 6567TIP3   OH241259   3.331   5.486   8.324 -0.1081 -0.2577 -0.4052
 6567TIP3    H141260   3.338   5.407   8.377  0.2615 -0.1379 -0.2693
 6567TIP3    H241261   3.420   5.498   8.289 -0.0686  0.3106 -0.1121
 6568TIP3   OH241262   5.587   6.462   1.385  0.4561 -0.4718  0.0809
 6568TIP3    H141263   5.605   6.414   1.304  0.3608  0.1643 -0.3169
 6568TIP3    H241264   5.664   6.517   1.398 -0.2217  0.6071 -0.4340
 6569TIP3   OH241265   3.035   6.679   0.346  1.0403  0.8066  0.2505
 6569TIP3    H141266   3.046   6.610   0.412 -0.5668  0.6082  0.3160
 6569TIP3    H241267   2.954   6.657   0.300 -0.9435  4.0163  1.9883
 6570TIP3   OH241268   4.633   5.090   1.391  0.2480  0.5956  0.3589
 6570TIP3    H141269   4.661   4.998   1.386  2.3713  1.1288  1.6333
 6570TIP3    H241270   4.641   5.122   1.301  3.4061  0.5734  0.5727
 6571TIP3   OH241271   4.360   7.040   7.129  0.1328  0.6217 -0.2244
 6571TIP3    H141272   4.431   7.047   7.192 -0.6858  0.3769  0.7378
 6571TIP3    H241273   4.309   6.964   7.158 -2.5758  2.8842  1.2363
 6572TIP3   OH241274   4.835   6.462   0.393 -0.4278  0.0721  0.4501
 6572TIP3    H141275   4.784   6.476   0.312  0.0765 -1.5922 -0.1768
 6572TIP3    H241276   4.903   6.529   0.390 -1.2200  0.8725  0.1515
 6573TIP3   OH241277   6.297   5.943   1.403  0.4535  0.0521 -0.3258
 6573TIP3    H141278   6.271   6.010   1.339  1.0718  0.4726 -0.1406
 6573TIP3    H241279   6.253   5.970   1.484  1.1734  0.5657 -0.1022
 6574TIP3   OH241280   5.836   7.220   1.106 -0.7653 -0.3037  0.5485
 6574TIP3    H141281   5.788   7.138   1.115  0.6342 -1.3307 -1.1450
 6574TIP3    H241282   5.928   7.194   1.102 -0.3156  1.3350 -0.1311
 6575TIP3   OH241283   6.641   6.417   7.090 -0.2222 -0.4998  0.4069
 6575TIP3    H141284   6.552   6.423   7.055  0.0456 -0.6160 -0.3030
 6575TIP3    H241285   6.653   6.497   7.142 -0.9029 -0.7095  0.8925
 6576TIP3   OH241286   5.028   6.745   1.110  0.0513  0.1081 -0.1426
 6576TIP3    H141287   5.029   6.680   1.180 -1.3840 -0.5070 -0.6759
 6576TIP3    H241288   4.992   6.824   1.150  0.5407  0.1741  0.1685
 6577TIP3   OH241289   5.831   5.228   0.031  0.4877 -0.0440  0.0941
 6577TIP3    H141290   5.801   5.183  -0.048  0.4242 -1.8727  1.1185
 6577TIP3    H241291   5.776   5.192   0.101  1.7294  0.2292  1.2293
 6578TIP3   OH241292   4.987   5.231   2.258 -0.3416 -0.1270 -0.3637
 6578TIP3    H141293   4.993   5.321   2.289 -1.2803 -0.4639  0.8342
 6578TIP3    H241294   5.004   5.237   2.164  0.6035  1.1645 -0.1314
 6579TIP3   OH241295   3.770   7.158   1.990 -0.1220  0.6303 -0.5306
 6579TIP3    H141296   3.696   7.124   2.040  0.1885  0.3189 -0.2813
 6579TIP3    H241297   3.817   7.079   1.961 -0.6541  0.7842 -1.8418
 6580TIP3   OH241298   3.946   6.925   1.909  0.5915  0.3921  0.3792
 6580TIP3    H141299   4.010   6.944   1.841 -1.1205  0.6033 -1.2216
 6580TIP3    H241300   3.996   6.881   1.978  1.9571 -1.8205 -1.9498
 6581TIP3   OH241301   4.514   5.750   1.240  0.2977 -0.2947 -0.7839
 6581TIP3    H141302   4.526   5.821   1.177 -0.7689  1.6975  1.2164
 6581TIP3    H241303   4.580   5.766   1.307 -1.2928 -0.0148  0.7286
 6582TIP3   OH241304   5.974   0.169   1.874 -0.6826 -0.0222 -0.2161
 6582TIP3    H141305   5.901   0.188   1.815  0.2139 -0.3437 -1.4472
 6582TIP3    H241306   6.031   0.111   1.825 -0.5706 -1.3734  1.4662
 6583TIP3   OH241307   6.889   6.273   0.711 -0.0954 -0.0219  0.3287
 6583TIP3    H141308   6.809   6.222   0.725 -0.1662 -0.0778 -0.2913
 6583TIP3    H241309   6.905   6.315   0.796 -0.3808 -0.5779  0.6600
 6584TIP3   OH241310   6.911   0.044   7.253  0.0529 -0.6385 -0.1889
 6584TIP3    H141311   6.859   0.108   7.302 -0.2990  0.6712 -2.2023
 6584TIP3    H241312   6.989   0.031   7.307 -0.9326 -0.2740  1.3681
 6585TIP3   OH241313   2.565   6.654   1.600  0.0829  0.0308 -0.8561
 6585TIP3    H141314   2.628   6.631   1.668  0.3560  3.6923  0.2379
 6585TIP3    H241315   2.570   6.750   1.594 -2.5894  0.0796 -3.4631
 6586TIP3   OH241316   4.447   5.994   0.887 -0.2381 -0.6632  0.2451
 6586TIP3    H141317   4.486   6.047   0.818 -1.4889  0.8817  0.6918
 6586TIP3    H241318   4.511   5.997   0.958  1.2710 -2.6495 -0.9594
 6587TIP3   OH241319   4.357   6.401   8.147 -0.1163  0.4934  0.1292
 6587TIP3    H141320   4.346   6.466   8.077  1.2273 -0.1995 -0.7607
 6587TIP3    H241321   4.316   6.322   8.112 -0.8415  0.5696  0.7912
 6588TIP3   OH241322   4.255   4.964   0.387  0.0554  0.1907  0.3641
 6588TIP3    H141323   4.198   4.967   0.311  1.1862  1.8538 -0.4342
 6588TIP3    H241324   4.309   4.885   0.374  1.3613  1.3490 -1.3920
 6589TIP3   OH241325   3.655   6.245   7.678  0.3180 -0.1846  0.8533
 6589TIP3    H141326   3.664   6.191   7.757 -0.3318 -0.9422  0.4143
 6589TIP3    H241327   3.585   6.307   7.699 -1.4694 -1.8806  0.0621
 6590TIP3   OH241328   4.531   7.174   6.670 -0.1826 -0.6528 -0.5465
 6590TIP3    H141329   4.463   7.150   6.607 -2.1271  1.8813  0.5236
 6590TIP3    H241330   4.496   7.145   6.755 -0.2885  1.2710  0.0948
 6591TIP3   OH241331   2.037   5.694   1.745  0.0013 -0.3806  0.3301
 6591TIP3    H141332   2.064   5.761   1.808 -1.3881  1.3293 -0.8632
 6591TIP3    H241333   2.027   5.615   1.798  1.3029  0.4218  1.8248
 6592TIP3   OH241334   5.281   6.581   0.786 -0.1383  0.1100 -0.6135
 6592TIP3    H141335   5.277   6.664   0.833  1.0737 -0.5172  0.6382
 6592TIP3    H241336   5.214   6.527   0.828  0.4546 -0.2089 -0.0654
 6593TIP3   OH241337   2.463   6.762   2.403 -0.2440 -0.2950 -0.0520
 6593TIP3    H141338   2.558   6.776   2.414 -0.3214  1.2438 -1.2079
 6593TIP3    H241339   2.429   6.848   2.379 -1.7512 -1.1359 -0.9869
 6594TIP3   OH241340   6.589   5.561   0.556  0.2480 -0.0717 -0.0318
 6594TIP3    H141341   6.600   5.555   0.461 -0.1660  0.7594 -0.1298
 6594TIP3    H241342   6.514   5.503   0.575  2.6471 -3.2362  0.2623
 6595TIP3   OH241343   3.010   0.574   1.164  0.4351 -0.1057  0.0512
 6595TIP3    H141344   3.006   0.551   1.257  1.7057 -0.0624  0.1251
 6595TIP3    H241345   2.970   0.660   1.158 -2.6084 -1.4460  0.0641
 6596TIP3   OH241346   4.449   4.863   1.956 -0.2969  0.2662 -0.2259
 6596TIP3    H141347   4.395   4.809   1.898 -0.5769  0.1840  0.1096
 6596TIP3    H241348   4.530   4.878   1.906 -0.1684 -0.5625 -0.2781
 6597TIP3   OH241349   6.765   6.820   0.402 -0.4082  0.7598  0.3569
 6597TIP3    H141350   6.856   6.789   0.404  0.6105  3.5609  0.2717
 6597TIP3    H241351   6.713   6.745   0.430  2.0983 -0.3574  2.1706
 6598TIP3   OH241352   4.966   6.979   2.069  0.2625 -0.2287 -0.2524
 6598TIP3    H141353   5.006   7.028   2.142 -1.4472  0.3179  0.3355
 6598TIP3    H241354   4.900   6.924   2.111  0.3117 -1.0363 -1.2332
 6599TIP3   OH241355   6.160   5.801   7.840 -0.3935 -0.5453  0.2807
 6599TIP3    H141356   6.114   5.799   7.924 -0.2791 -0.8899  0.3363
 6599TIP3    H241357   6.096   5.836   7.778 -1.7104 -3.5882 -0.2091
 6600TIP3   OH241358   4.947   6.403   1.965  0.2669 -0.3838  0.7615
 6600TIP3    H141359   5.014   6.466   1.941 -0.3913 -0.0556 -0.2437
 6600TIP3    H241360   4.977   6.320   1.929  0.0080 -0.1833  0.0773
 6601TIP3   OH241361   4.182   5.323   0.028  0.7360  0.6099 -0.3273
 6601TIP3    H141362   4.234   5.341  -0.050  0.5788 -0.8952 -0.8054
 6601TIP3    H241363   4.216   5.238   0.059 -0.7366  0.1128 -0.0626
 6602TIP3   OH241364   3.974   6.483   8.408 -0.2771 -0.1199  0.8452
 6602TIP3    H141365   4.011   6.562   8.370 -1.6705 -0.7984 -2.1067
 6602TIP3    H241366   4.048   6.421   8.412 -0.4599 -0.7751 -3.0265
 6603TIP3   OH241367   3.462   6.403   1.682  0.1692  0.1911  0.4029
 6603TIP3    H141368   3.371   6.430   1.679 -0.1112 -0.7170  0.6943
 6603TIP3    H241369   3.476   6.373   1.772  0.5397 -0.3691  0.1655
 6604TIP3   OH241370   6.590   5.939   0.464  0.1301 -0.0681  0.4522
 6604TIP3    H141371   6.557   6.023   0.433 -0.0667 -0.6764 -1.0259
 6604TIP3    H241372   6.680   5.957   0.491 -0.3279  0.8860  1.3309
 6605TIP3   OH241373   5.151   6.778   1.501  0.9652  0.6375 -0.3861
 6605TIP3    H141374   5.164   6.858   1.451 -2.2348  0.1651 -2.1286
 6605TIP3    H241375   5.090   6.726   1.447  0.1491 -1.3875  2.3794
 6606TIP3   OH241376   7.265   0.597   0.156 -0.1410 -0.0842 -0.3224
 6606TIP3    H141377   7.281   0.655   0.230  1.0864  0.1411 -0.7520
 6606TIP3    H241378   7.229   0.655   0.088 -1.7407 -0.3782  0.2393
 6607TIP3   OH241379   3.378   6.062   0.452 -0.4766 -0.6148 -0.2810
 6607TIP3    H141380   3.316   6.025   0.514 -0.7694  2.7733  1.5297
 6607TIP3    H241381   3.452   6.090   0.505  1.3103 -1.8361 -2.0460
 6608TIP3   OH241382   2.099   4.396   1.997 -0.5791  0.2441  0.4693
 6608TIP3    H141383   2.085   4.450   2.075  0.1159  1.4677 -0.2563
 6608TIP3    H241384   2.180   4.429   1.958 -0.6367 -0.7113 -0.4901
 6609TIP3   OH241385   2.943   6.810   0.879 -0.0119  0.1405  0.1808
 6609TIP3    H141386   2.857   6.832   0.914  0.2515  1.0075  0.3071
 6609TIP3    H241387   2.926   6.746   0.810 -1.0228  2.3907 -1.7068
 6610TIP3   OH241388   5.296   6.631   1.856  0.9015  0.0228 -0.0042
 6610TIP3    H141389   5.325   6.592   1.939 -0.4199 -0.3666  0.2834
 6610TIP3    H241390   5.300   6.725   1.871 -0.8960 -0.0497  1.0719
 6611TIP3   OH241391   4.294   1.096   0.367  0.2543 -0.0953 -0.3899
 6611TIP3    H141392   4.350   1.151   0.422  1.0265 -0.3879 -0.8840
 6611TIP3    H241393   4.231   1.158   0.329 -0.2273  0.1237  0.7391
 6612TIP3   OH241394   6.689   6.947   1.719 -0.3366 -0.2991  0.2244
 6612TIP3    H141395   6.708   6.854   1.714  0.2457 -0.2689  1.7603
 6612TIP3    H241396   6.758   6.989   1.668 -0.0820 -0.6382  0.2913
 6613TIP3   OH241397   4.705   0.924   7.620 -0.1059  0.0179  0.1384
 6613TIP3    H141398   4.766   0.906   7.548 -0.3254 -1.8155  0.3758
 6613TIP3    H241399   4.761   0.946   7.694  0.1025  2.5099 -0.7290
 6614TIP3   OH241400   3.587   6.898   0.608 -0.7351  0.7010  1.1239
 6614TIP3    H141401   3.653   6.839   0.645 -0.5628 -1.8097 -2.9950
 6614TIP3    H241402   3.522   6.907   0.678 -0.1564 -3.4175  2.3483
 6615TIP3   OH241403   2.093   4.529   1.353  0.0083 -0.2824 -0.0665
 6615TIP3    H141404   2.030   4.504   1.285  1.2390  1.4171 -1.8650
 6615TIP3    H241405   2.039   4.560   1.425 -1.3259 -2.3328 -0.1275
 6616TIP3   OH241406   4.318   4.526   2.199 -0.3455 -0.0874  0.3906
 6616TIP3    H141407   4.413   4.530   2.192 -0.1203  0.2746  3.1115
 6616TIP3    H241408   4.298   4.433   2.209 -0.2670 -0.1465  0.0016
 6617TIP3   OH241409   6.774   6.253   1.606  0.2278  0.1709 -0.0731
 6617TIP3    H141410   6.781   6.157   1.604 -0.7335  0.1019 -0.4219
 6617TIP3    H241411   6.855   6.282   1.648  0.7973 -0.7651 -0.5062
 6618TIP3   OH241412   5.363   6.487   2.086  0.3530 -0.6092  0.5899
 6618TIP3    H141413   5.345   6.417   2.023 -0.5201  0.1349  0.0206
 6618TIP3    H241414   5.325   6.456   2.168 -1.9484  0.1381 -0.1652
 6619TIP3   OH241415   5.691   5.410   7.971  0.2034  0.7206  0.1931
 6619TIP3    H141416   5.663   5.458   7.893 -0.6775  0.6141  0.4315
 6619TIP3    H241417   5.767   5.457   8.003 -0.1454  1.4593 -0.0630
 6620TIP3   OH241418   4.371   7.236   1.301  0.7095 -0.5702  0.2571
 6620TIP3    H141419   4.391   7.296   1.373 -0.7749  1.6934 -1.1581
 6620TIP3    H241420   4.397   7.284   1.222 -0.2859 -1.8899 -0.8939
 6621TIP3   OH241421   2.763   6.613   8.116 -0.1988 -0.2546  0.4315
 6621TIP3    H141422   2.694   6.679   8.114 -0.1604 -0.2334 -0.4689
 6621TIP3    H241423   2.725   6.537   8.072  0.6141  0.0303 -0.7873
 6622TIP3   OH241424   2.847   7.007   7.950 -0.2005  0.2268 -0.0881
 6622TIP3    H141425   2.856   7.103   7.946 -0.3388  0.2664  0.5172
 6622TIP3    H241426   2.827   6.989   8.042  0.0624 -0.4051 -0.1550
 6623TIP3   OH241427   5.274   6.909   6.864  0.0806  0.5694  0.3608
 6623TIP3    H141428   5.228   6.835   6.824 -0.1495 -0.2404  2.0569
 6623TIP3    H241429   5.255   6.901   6.958 -0.6953  3.3071  0.4844
 6624TIP3   OH241430   4.071   4.420   1.125  0.9117 -0.0191 -0.8417
 6624TIP3    H141431   4.038   4.378   1.046 -0.0997  0.5341 -0.7224
 6624TIP3    H241432   3.995   4.463   1.163  1.6494  0.7651 -0.2247
 6625TIP3   OH241433   5.309   6.313   1.329  0.2756  0.2243 -0.5441
 6625TIP3    H141434   5.321   6.231   1.378  0.3423  0.5757  0.0356
 6625TIP3    H241435   5.373   6.373   1.368 -0.8814  1.0374  0.1383
 6626TIP3   OH241436   5.409   5.894   1.973 -0.3267 -0.1206 -0.7136
 6626TIP3    H141437   5.377   5.806   1.990 -0.9337  0.3580  0.6737
 6626TIP3    H241438   5.361   5.950   2.034  0.0381  1.1796 -1.5796
 6627TIP3   OH241439   4.525   5.450   1.228 -0.0926 -0.1937  0.7563
 6627TIP3    H141440   4.539   5.409   1.314 -0.5277  0.3336  1.0785
 6627TIP3    H241441   4.513   5.543   1.248  0.6551  0.0574  0.0451
 6628TIP3   OH241442   4.760   7.249   2.017  0.0368  0.2531  0.2629
 6628TIP3    H141443   4.799   7.211   2.096 -1.6348 -0.8302  0.6166
 6628TIP3    H241444   4.688   7.303   2.049 -0.6116 -0.1363 -0.5059
 6629TIP3   OH241445   6.073   5.725   1.689  0.3245 -0.6575 -0.0861
 6629TIP3    H141446   6.018   5.666   1.636  0.6153 -0.8964 -0.1194
 6629TIP3    H241447   6.137   5.668   1.730 -0.4003 -0.5775  1.1682
 6630TIP3   OH241448   3.300   5.589   2.218 -0.5921  0.4180  0.4078
 6630TIP3    H141449   3.347   5.673   2.212 -1.0130  0.5147 -1.8268
 6630TIP3    H241450   3.358   5.534   2.270  0.5279  1.5471  0.4058
 6631TIP3   OH241451   6.039   6.317   1.308  0.3267  0.2828 -0.0038
 6631TIP3    H141452   6.107   6.333   1.244  0.5923  1.9132  0.6493
 6631TIP3    H241453   6.085   6.281   1.384  0.9213  3.8354  1.4268
 6632TIP3   OH241454   6.031   7.044   1.389  0.1708 -0.1748  0.0253
 6632TIP3    H141455   6.032   6.949   1.396 -1.9021 -0.2541 -0.2242
 6632TIP3    H241456   6.039   7.062   1.296 -3.7108 -0.3295 -0.4532
 6633TIP3   OH241457   3.976   5.472   2.063  0.7235  0.2084 -0.2964
 6633TIP3    H141458   3.999   5.455   2.154  0.2547 -0.2940 -0.2707
 6633TIP3    H241459   4.009   5.396   2.015  0.1868  0.0589 -0.4254
 6634TIP3   OH241460   4.592   6.011   1.105 -0.0715 -0.1521 -0.1468
 6634TIP3    H141461   4.683   6.041   1.114  0.4217 -1.1679 -1.5643
 6634TIP3    H241462   4.540   6.083   1.141  1.2854  0.4673  0.6254
 6635TIP3   OH241463   4.150   4.649   1.271  0.1654 -0.1992 -0.1099
 6635TIP3    H141464   4.155   4.634   1.176 -1.5331  0.0942 -0.2532
 6635TIP3    H241465   4.203   4.578   1.308  1.5196  0.1514 -1.2982
 6636TIP3   OH241466   4.097   5.781   1.207  0.0801 -0.0500 -0.1124
 6636TIP3    H141467   4.150   5.782   1.287  0.1385  0.4717 -0.1592
 6636TIP3    H241468   4.087   5.688   1.186 -1.6425 -0.2747  1.6103
 6637TIP3   OH241469   3.178   0.225   0.025 -0.0002 -0.6225 -0.6901
 6637TIP3    H141470   3.173   0.155   0.090 -0.7507  0.3113  0.2787
 6637TIP3    H241471   3.215   0.183  -0.053 -1.5077 -2.3490 -0.5043
 6638TIP3   OH241472   0.200   4.993   7.675 -0.1830  0.1641  0.3670
 6638TIP3    H141473   0.137   5.033   7.735  0.0921  0.6717  0.3196
 6638TIP3    H241474   0.163   4.907   7.656 -0.9917  0.5619  0.1283
 6639TIP3   OH241475   6.225   6.654   7.595 -0.3464 -0.5380 -0.2859
 6639TIP3    H141476   6.244   6.745   7.571  0.9357 -0.6851  0.1396
 6639TIP3    H241477   6.290   6.602   7.548 -0.7203 -1.1911 -0.0920
 6640TIP3   OH241478   5.973   6.454   0.673  0.4742  0.2742  0.6006
 6640TIP3    H141479   5.970   6.549   0.677  0.0095  0.3373 -0.9745
 6640TIP3    H241480   6.009   6.434   0.587  2.5903 -0.9736  1.7014
 6641TIP3   OH241481   4.714   5.281   2.350 -0.3591  0.5267 -1.1915
 6641TIP3    H141482   4.720   5.364   2.397 -0.3635  0.9217 -1.8759
 6641TIP3    H241483   4.804   5.263   2.322 -0.0505 -0.5977  0.4637
 6642TIP3   OH241484   4.881   1.444   7.298  0.0611 -0.5060  0.0018
 6642TIP3    H141485   4.795   1.475   7.326 -0.4968 -2.0318  0.0441
 6642TIP3    H241486   4.940   1.518   7.314 -0.7513 -0.3348  2.4832
 6643TIP3   OH241487   3.517   5.700   1.380 -0.3506  0.0271  0.0366
 6643TIP3    H141488   3.567   5.637   1.433  2.1260  1.1807 -0.8633
 6643TIP3    H241489   3.504   5.655   1.296  2.3683  1.0351 -0.9949
 6644TIP3   OH241490   7.100   0.373   1.751  0.1072 -0.0858  0.3426
 6644TIP3    H141491   7.156   0.330   1.686  0.4443  1.3760 -0.3659
 6644TIP3    H241492   7.065   0.302   1.804  2.3628 -1.0503  0.5692
 6645TIP3   OH241493   1.991   5.931   8.045 -0.1593 -0.6158  0.2990
 6645TIP3    H141494   2.023   5.976   8.122  0.5685 -0.8197  0.1141
 6645TIP3    H241495   2.066   5.883   8.011 -0.3031 -0.0099 -0.9133
 6646TIP3   OH241496   6.682   6.653   1.681 -0.2098 -0.7322 -0.0992
 6646TIP3    H141497   6.774   6.650   1.657 -0.0265 -2.2270  0.7492
 6646TIP3    H241498   6.640   6.586   1.627  0.0346 -3.4146  2.9223
 6647TIP3   OH241499   5.262   6.540   1.600 -0.3336 -0.8243 -0.7157
 6647TIP3    H141500   5.251   6.570   1.690 -0.1035  0.0353 -0.9722
 6647TIP3    H241501   5.278   6.620   1.549 -0.0540 -1.3393 -1.4525
 6648TIP3   OH241502   5.494   5.647   0.254  0.0113  0.2701 -0.4467
 6648TIP3    H141503   5.532   5.574   0.206 -0.1220 -0.8133  1.0448
 6648TIP3    H241504   5.530   5.639   0.342 -0.1527  1.9006 -0.2118
 6649TIP3   OH241505   4.178   4.679   8.233 -0.3682 -0.1810 -0.1260
 6649TIP3    H141506   4.149   4.677   8.142  1.0341  2.7252 -0.6942
 6649TIP3    H241507   4.098   4.689   8.284 -0.9306  0.8511 -1.2042
 6650TIP3   OH241508   1.370   7.294   0.442  0.1812  0.8786  0.0859
 6650TIP3    H141509   1.453   7.280   0.395  0.6133 -0.3732  1.1547
 6650TIP3    H241510   1.340   7.380   0.414  3.0201  2.3924  1.3823
 6651TIP3   OH241511   5.632   6.593   2.395  0.7301 -0.7551  0.1132
 6651TIP3    H141512   5.560   6.531   2.386 -0.5688  0.9523 -1.5732
 6651TIP3    H241513   5.648   6.599   2.489 -0.2133 -2.4036  0.3889
 6652TIP3   OH241514   5.169   6.286   1.701  0.0457  0.2572  0.2530
 6652TIP3    H141515   5.156   6.203   1.655  1.3291  0.3708 -0.3616
 6652TIP3    H241516   5.193   6.347   1.632  1.8856  0.4620  1.0503
 6653TIP3   OH241517   4.703   6.503   0.167  0.9725 -0.6610  0.1407
 6653TIP3    H141518   4.741   6.552   0.094 -1.2969  1.9828  0.6563
 6653TIP3    H241519   4.610   6.495   0.144  0.3422 -0.2744  2.4532
 6654TIP3   OH241520   5.530   6.284   0.777  0.4455  0.3295 -0.1506
 6654TIP3    H141521   5.495   6.268   0.864 -1.3249  0.2537 -0.8469
 6654TIP3    H241522   5.508   6.205   0.727  1.7262  0.2369 -0.5827
 6655TIP3   OH241523   6.920   6.167   2.342  0.3569 -0.4033 -0.5690
 6655TIP3    H141524   7.008   6.205   2.346  0.1951 -0.0330 -0.4570
 6655TIP3    H241525   6.920   6.099   2.409  0.7726 -0.8637 -1.0317
 6656TIP3   OH241526   2.708   6.442   1.404  0.1987 -0.6049 -0.1297
 6656TIP3    H141527   2.647   6.380   1.365 -0.4697  0.7463 -1.3198
 6656TIP3    H241528   2.653   6.517   1.430  1.2033  0.2116 -0.3074
 6657TIP3   OH241529   6.257   5.595   2.345 -0.2604 -0.2727 -0.2404
 6657TIP3    H141530   6.267   5.690   2.348  0.2846 -0.3443  0.1824
 6657TIP3    H241531   6.178   5.578   2.397  1.0122 -0.2551  1.7478
 6658TIP3   OH241532   7.239   5.851   2.363 -0.3480  0.0687  0.8086
 6658TIP3    H141533   7.251   5.765   2.403 -0.1088  0.3723  1.4017
 6658TIP3    H241534   7.327   5.879   2.339 -0.2120  0.8834  2.1812
 6659TIP3   OH241535   3.196   0.925   1.357  0.7424 -0.0236  0.1884
 6659TIP3    H141536   3.280   0.949   1.396  0.6467  0.5094  0.0708
 6659TIP3    H241537   3.168   1.004   1.310 -1.2069  0.7675  2.5630
 6660TIP3   OH241538   3.869   5.234   0.109  0.1855  1.0207  0.3393
 6660TIP3    H141539   3.792   5.178   0.117  0.6719 -0.0719 -2.3600
 6660TIP3    H241540   3.938   5.176   0.079  1.2173  2.6572 -0.5444
 6661TIP3   OH241541   6.429   0.268   1.922  0.1331 -0.2094  0.8561
 6661TIP3    H141542   6.506   0.303   1.877 -0.7176  0.0783 -0.3902
 6661TIP3    H241543   6.371   0.239   1.852  0.0105 -2.4278  1.8118
 6662TIP3   OH241544   4.721   0.909   8.111 -0.3492 -0.2507 -0.5828
 6662TIP3    H141545   4.676   0.876   8.033 -0.5784  1.0151 -1.0103
 6662TIP3    H241546   4.661   0.974   8.148 -0.6198 -1.4677  1.1690
 6663TIP3   OH241547   7.131   3.987   1.277  0.1780  0.0437  0.3614
 6663TIP3    H141548   7.061   3.929   1.307  0.8125 -0.7679  0.2828
 6663TIP3    H241549   7.211   3.937   1.289  0.6463  0.5363 -0.6073
 6664TIP3   OH241550   4.178   4.470   8.483  0.2938 -0.6419  0.7734
 6664TIP3    H141551   4.221   4.547   8.518  1.0895 -0.6339 -0.1989
 6664TIP3    H241552   4.229   4.447   8.405 -0.0199 -2.0510  0.9614
 6665TIP3   OH241553   3.903   5.066   0.827 -0.1245  0.3679 -0.1712
 6665TIP3    H141554   3.990   5.097   0.853  1.1471 -0.6703 -2.9785
 6665TIP3    H241555   3.871   5.134   0.768 -1.1335  0.6389  0.6889
 6666TIP3   OH241556   5.673   4.740   1.896  0.2639 -0.4563  0.0567
 6666TIP3    H141557   5.614   4.718   1.825 -1.2874 -1.1764  1.5219
 6666TIP3    H241558   5.740   4.672   1.894  1.9218  1.1664 -2.5156
 6667TIP3   OH241559   6.408   0.101   0.094  0.4802 -0.5377 -0.4438
 6667TIP3    H141560   6.356   0.022   0.110  0.4400 -0.7940 -1.7760
 6667TIP3    H241561   6.498   0.072   0.106  0.5107 -0.9856 -1.6854
 6668TIP3   OH241562   2.337   3.126   1.714 -0.4878 -0.7695  0.2933
 6668TIP3    H141563   2.430   3.108   1.720 -0.1823  0.0003 -1.7591
 6668TIP3    H241564   2.330   3.221   1.717 -1.0817 -0.7607 -0.8835
 6669TIP3   OH241565   0.782   6.576   0.196  0.3599  0.0741  0.3903
 6669TIP3    H141566   0.709   6.617   0.242 -1.6963 -0.1684 -2.5078
 6669TIP3    H241567   0.850   6.643   0.193 -1.6572  2.1286 -1.2376
 6670TIP3   OH241568   4.487   5.561   8.124 -0.1327 -0.6643  0.0448
 6670TIP3    H141569   4.532   5.619   8.186  1.0711  0.6611 -2.0057
 6670TIP3    H241570   4.558   5.517   8.077 -1.0298 -2.4553  0.3334
 6671TIP3   OH241571   0.592   6.290   0.604  0.1968 -0.0186  0.0464
 6671TIP3    H141572   0.632   6.303   0.690  1.1145 -0.1478 -0.3524
 6671TIP3    H241573   0.666   6.284   0.544 -0.4684  1.1741 -0.9170
 6672TIP3   OH241574   6.441   6.299   2.225  0.2805  0.1217 -0.0602
 6672TIP3    H141575   6.379   6.287   2.298 -3.4873 -0.8546 -3.2035
 6672TIP3    H241576   6.518   6.247   2.250 -1.1514 -0.6793  2.9439
 6673TIP3   OH241577   2.109   5.721   8.279  0.0200  0.3006  0.0069
 6673TIP3    H141578   2.046   5.650   8.290  0.1178  0.1708 -0.2608
 6673TIP3    H241579   2.183   5.680   8.234 -0.1778  0.7139 -0.7027
 6674TIP3   OH241580   2.932   5.433   7.898  0.0548  0.7746  0.3658
 6674TIP3    H141581   3.025   5.452   7.888 -0.1216  2.0676  1.0056
 6674TIP3    H241582   2.927   5.338   7.907  1.1529  0.5264 -1.3185
 6675TIP3   OH241583   3.629   6.824   8.496 -0.1075 -0.0714  0.4412
 6675TIP3    H141584   3.694   6.877   8.542 -0.4197  0.4666  0.2682
 6675TIP3    H241585   3.549   6.835   8.547 -0.7690  1.5012 -0.8753
 6676TIP3   OH241586   6.589   7.135   0.421 -0.0892 -0.1022  0.0148
 6676TIP3    H141587   6.633   7.132   0.335  0.5876  0.2256  0.3472
 6676TIP3    H241588   6.624   7.214   0.463 -0.6157 -0.1241  0.4884
 6677TIP3   OH241589   6.906   6.232   1.337  0.4028 -0.8461  0.3866
 6677TIP3    H141590   6.851   6.300   1.298  0.2575 -1.3649 -0.3191
 6677TIP3    H241591   6.875   6.226   1.428 -0.5320 -0.9488  0.0646
 6678TIP3   OH241592   6.870   6.209   2.875 -0.6917  0.2006 -0.1808
 6678TIP3    H141593   6.914   6.133   2.835  2.0194  0.9137  1.3147
 6678TIP3    H241594   6.788   6.173   2.908  0.5634 -2.1368  0.5669
 6679TIP3   OH241595   6.429   6.902   0.381  0.4865  0.2987  0.4364
 6679TIP3    H141596   6.500   6.960   0.411  0.2589  0.4212  0.7420
 6679TIP3    H241597   6.410   6.847   0.457  1.4315 -0.9179 -0.1807
 6680TIP3   OH241598   5.489   6.531   7.710 -0.7937 -0.1043 -0.2960
 6680TIP3    H141599   5.520   6.524   7.619  1.1815 -0.4882  0.3689
 6680TIP3    H241600   5.453   6.444   7.729 -0.9457 -0.1158 -0.6294
 6681TIP3   OH241601   6.348   6.446   1.993  0.2523 -0.1828 -0.8551
 6681TIP3    H141602   6.405   6.514   1.959 -0.4145  0.7418 -0.1379
 6681TIP3    H241603   6.399   6.403   2.061  0.3561  0.1644 -0.7143
 6682TIP3   OH241604   1.061   6.869   1.932 -0.0629 -0.0842 -0.0320
 6682TIP3    H141605   1.107   6.803   1.983 -0.9599  0.4905  1.5514
 6682TIP3    H241606   1.026   6.931   1.997  0.3451  1.6866 -1.4373
 6683TIP3   OH241607   6.648   6.650   1.319 -0.0820  0.2729 -0.3246
 6683TIP3    H141608   6.732   6.654   1.365  0.5228 -1.8468 -1.1544
 6683TIP3    H241609   6.583   6.633   1.388  0.2858  1.0789  0.2149
 6684TIP3   OH241610   6.586   6.611   0.488 -0.1841  0.0726 -0.1037
 6684TIP3    H141611   6.602   6.516   0.493  0.9084  0.2736  0.4657
 6684TIP3    H241612   6.495   6.622   0.515 -0.2751 -0.8062 -0.0328
 6685TIP3   OH241613   0.462   6.771   0.827 -0.1174 -0.6855  0.1975
 6685TIP3    H141614   0.408   6.801   0.754  0.6573 -0.0411 -0.1204
 6685TIP3    H241615   0.521   6.844   0.845  0.9878 -1.5517  0.1982
 6686TIP3   OH241616   6.481   0.148   0.948 -0.0828  1.0234 -0.0992
 6686TIP3    H141617   6.464   0.082   0.881 -0.2485  0.2521  0.6911
 6686TIP3    H241618   6.491   0.230   0.899 -0.5781  0.5370 -1.0287
 6687TIP3   OH241619   0.912   1.468   0.177  0.4037 -0.3045  0.1207
 6687TIP3    H141620   0.991   1.522   0.177  0.9403 -1.0863 -1.7639
 6687TIP3    H241621   0.935   1.392   0.231  0.7584 -0.2946 -0.0162
 6688TIP3   OH241622   1.250   5.346   0.471  0.6995 -0.6727 -0.4199
 6688TIP3    H141623   1.294   5.364   0.554  0.0385  1.2192 -0.4582
 6688TIP3    H241624   1.318   5.308   0.415  1.8813  0.6683  0.0717
 6689TIP3   OH241625   1.264   6.666   0.121  0.4183  0.1796  0.1647
 6689TIP3    H141626   1.218   6.731   0.067 -1.3206 -0.2768  1.0641
 6689TIP3    H241627   1.196   6.604   0.146  1.5141 -0.4329  1.6713
 6690TIP3   OH241628   4.721   0.590   7.404  0.2292  0.2824 -0.4081
 6690TIP3    H141629   4.687   0.517   7.352  0.1161 -0.9962  1.4137
 6690TIP3    H241630   4.712   0.561   7.495  2.6515  1.4861  0.2625
 6691TIP3   OH241631   5.932   1.101   1.046 -0.4935  0.6966  0.3205
 6691TIP3    H141632   5.953   1.040   1.117  2.0561  0.7454 -0.3331
 6691TIP3    H241633   5.886   1.047   0.982  2.3582 -0.8293 -0.5787
 6692TIP3   OH241634   5.657   0.097   1.230 -0.1185  0.4089  0.2736
 6692TIP3    H141635   5.715   0.097   1.306 -0.3153 -0.0808  0.4224
 6692TIP3    H241636   5.687   0.025   1.176 -1.8939 -1.1807  1.3559
 6693TIP3   OH241637   5.126   6.709   2.134  0.2086 -0.3669  0.4892
 6693TIP3    H141638   5.037   6.740   2.146 -0.3498 -1.3644 -0.9017
 6693TIP3    H241639   5.133   6.632   2.190  0.0469 -0.5577  0.2483
 6694TIP3   OH241640   6.791   7.261   0.599 -0.2557 -0.3972  0.0583
 6694TIP3    H141641   6.787   7.350   0.565  2.1826  0.0564  0.8082
 6694TIP3    H241642   6.766   7.269   0.691  0.0718 -0.4460  0.1547
 6695TIP3   OH241643   6.902   0.626   0.869  0.2625 -0.4544 -0.2406
 6695TIP3    H141644   6.834   0.560   0.881  2.4401 -2.8137 -0.3785
 6695TIP3    H241645   6.954   0.594   0.796  0.7070  2.0388 -1.0766
 6696TIP3   OH241646   0.006   5.664   2.070  0.0405 -0.0676  0.1275
 6696TIP3    H141647  -0.073   5.686   2.019  0.6232  1.3080 -0.2049
 6696TIP3    H241648   0.062   5.741   2.060  0.4140 -0.0194  2.3798
 6697TIP3   OH241649   6.142   7.214   1.169 -0.2912 -0.2771 -0.4926
 6697TIP3    H141650   6.200   7.263   1.227 -2.1541  0.8813  0.4611
 6697TIP3    H241651   6.192   7.203   1.088  1.0070  1.2356  0.0783
 6698TIP3   OH241652   0.289   1.151   1.455 -0.2223  0.1235  0.6047
 6698TIP3    H141653   0.366   1.097   1.433 -1.1267 -0.8092 -0.3560
 6698TIP3    H241654   0.326   1.231   1.492  1.3198  0.5558 -1.6913
 6699TIP3   OH241655   0.106   0.390   2.337 -0.4792  0.4121 -0.0513
 6699TIP3    H141656   0.027   0.350   2.374  0.3687 -1.2605 -0.0011
 6699TIP3    H241657   0.161   0.316   2.313  1.3188  1.5730  0.4192
 6700TIP3   OH241658   6.097   7.179   7.792  0.5257  0.2023  0.5147
 6700TIP3    H141659   6.177   7.194   7.842  0.4843  0.2932  0.5533
 6700TIP3    H241660   6.035   7.146   7.856  1.1552 -1.8641  0.0955
 6701TIP3   OH241661   1.246   6.234   8.039  0.1792  0.6859 -0.2138
 6701TIP3    H141662   1.257   6.147   8.077  0.2585  0.4036 -0.8858
 6701TIP3    H241663   1.334   6.272   8.041  0.5013  0.0272 -1.6793
 6702TIP3   OH241664   1.090   0.368   1.515 -0.3180 -0.0772 -0.3097
 6702TIP3    H141665   1.095   0.364   1.610  2.0552  2.6530 -0.2669
 6702TIP3    H241666   1.173   0.408   1.488 -1.5192  0.4538 -3.4264
 6703TIP3   OH241667   7.296   6.843   8.072 -0.4009 -0.0165  0.7639
 6703TIP3    H141668   7.370   6.901   8.085 -0.3226  0.0344  0.1245
 6703TIP3    H241669   7.272   6.813   8.160  1.4022 -1.3130  0.8258
 6704TIP3   OH241670   0.763   0.186   1.617 -0.3194 -0.0722  0.1469
 6704TIP3    H141671   0.806   0.204   1.701 -0.0754 -0.6572  0.1553
 6704TIP3    H241672   0.713   0.105   1.633 -0.8012  0.1780 -0.0834
 6705TIP3   OH241673   6.144   6.151   8.021  0.5403 -0.2490  0.6828
 6705TIP3    H141674   6.083   6.213   7.980  0.3587 -1.5065 -1.0051
 6705TIP3    H241675   6.164   6.190   8.106 -2.2006  0.4499  1.0675
 6706TIP3   OH241676   5.804   5.167   7.922  0.3369 -0.2204  0.3196
 6706TIP3    H141677   5.757   5.247   7.943 -0.8303 -0.9262  0.4701
 6706TIP3    H241678   5.896   5.192   7.920  0.1029  0.8135  1.8336
 6707TIP3   OH241679   0.898   0.233   1.378  0.3662 -0.6064 -0.4545
 6707TIP3    H141680   0.982   0.271   1.405  0.3709 -0.4429 -0.6995
 6707TIP3    H241681   0.852   0.216   1.461  0.0511  0.6458 -0.3593
 6708TIP3   OH241682   0.716   6.540   1.723 -0.1211  0.3453  0.8153
 6708TIP3    H141683   0.658   6.517   1.651 -0.8907 -0.6934  1.7396
 6708TIP3    H241684   0.794   6.485   1.710 -0.6356 -0.5073  1.2590
 6709TIP3   OH241685   5.163   7.175   7.237  0.1071  0.3670 -0.8377
 6709TIP3    H141686   5.155   7.201   7.329 -0.8422 -2.2691 -0.1473
 6709TIP3    H241687   5.108   7.239   7.190 -0.8547  0.6534  0.6219
 6710TIP3   OH241688   2.607   5.523   7.534 -0.4250 -0.3837 -0.1056
 6710TIP3    H141689   2.677   5.531   7.471 -1.0652 -0.0604 -0.7815
 6710TIP3    H241690   2.651   5.505   7.617  0.5990  2.1550 -0.0494
 6711TIP3   OH241691   1.059   1.066   1.309  0.0838  0.0911  0.0616
 6711TIP3    H141692   1.132   1.004   1.310  0.0284  0.0291  0.2305
 6711TIP3    H241693   1.062   1.107   1.396  0.7627  1.0712 -0.4119
 6712TIP3   OH241694   2.829   6.282   0.239  0.0906 -0.0674 -0.3810
 6712TIP3    H141695   2.920   6.286   0.267  0.1523 -1.3644 -0.3691
 6712TIP3    H241696   2.800   6.193   0.262 -0.1956 -0.7953 -3.3175
 6713TIP3   OH241697   5.457   0.318   1.453  0.8631  0.2602 -0.3673
 6713TIP3    H141698   5.488   0.384   1.515 -0.6414  0.3540  0.3260
 6713TIP3    H241699   5.403   0.259   1.506 -1.4526  1.0325 -1.7636
 6714TIP3   OH241700   5.717   6.350   8.397  0.1729 -0.2838  0.5663
 6714TIP3    H141701   5.702   6.256   8.393 -0.4932 -0.2029  0.9785
 6714TIP3    H241702   5.638   6.388   8.359 -0.1121  0.1348  1.5676
 6715TIP3   OH241703   5.188   4.717   1.446  0.3917 -0.5952  0.2788
 6715TIP3    H141704   5.222   4.630   1.467  0.4608 -0.9141 -1.0841
 6715TIP3    H241705   5.111   4.727   1.502  0.9989 -1.0936  1.2163
 6716TIP3   OH241706   0.977   2.907   0.986  0.6064 -0.5479  0.4894
 6716TIP3    H141707   1.063   2.868   1.002  0.9768  0.6699  1.5157
 6716TIP3    H241708   0.939   2.853   0.917  1.7858 -1.7087  0.7271
 6717TIP3   OH241709   5.879   6.721   2.180  0.5309  0.5481  0.8377
 6717TIP3    H141710   5.960   6.674   2.198  0.9164  0.8651 -0.0251
 6717TIP3    H241711   5.860   6.703   2.088 -0.2837  0.6195  0.9844
 6718TIP3   OH241712   5.538   5.415   1.322  0.0652 -0.8337  0.8569
 6718TIP3    H141713   5.491   5.457   1.395 -1.5683 -0.8096 -0.1747
 6718TIP3    H241714   5.627   5.404   1.354  0.0146  1.5552  1.8994
 6719TIP3   OH241715   6.135   0.565   1.103 -0.1872  0.3545  0.0662
 6719TIP3    H141716   6.145   0.648   1.056  1.6842 -0.0493 -0.3048
 6719TIP3    H241717   6.184   0.502   1.049  0.2453 -0.5350  1.4871
 6720TIP3   OH241718   6.612   6.830   1.091 -0.5196  0.0008  0.2626
 6720TIP3    H141719   6.640   6.770   1.161  0.7773 -0.6871 -0.8136
 6720TIP3    H241720   6.653   6.795   1.012  1.7408  3.3142 -0.1366
 6721TIP3   OH241721   6.649   0.197   1.471 -0.0178 -0.3901 -0.5414
 6721TIP3    H141722   6.599   0.240   1.540  0.6069 -2.1860  1.0678
 6721TIP3    H241723   6.680   0.269   1.415 -1.3487  1.0011  0.4684
 6722TIP3   OH241724   0.178   6.642   2.572 -0.2484  0.4566  0.3124
 6722TIP3    H141725   0.161   6.565   2.518  0.5276  0.7065 -0.2867
 6722TIP3    H241726   0.110   6.704   2.547  0.6166  0.8999 -1.0239
 6723TIP3   OH241727   6.985   7.107   8.098  0.0480  0.6973 -0.2802
 6723TIP3    H141728   7.053   7.161   8.139  1.3638 -0.5332 -0.7788
 6723TIP3    H241729   6.980   7.029   8.153 -0.8133  0.6924 -0.3726
 6724TIP3   OH241730   6.991   6.002   1.239  0.2148 -0.1751  0.7058
 6724TIP3    H141731   6.977   6.086   1.282 -1.2414  0.2678 -0.6030
 6724TIP3    H241732   7.000   5.940   1.312 -0.4979  0.8330  1.6760
 6725TIP3   OH241733   2.883   4.401   1.454 -0.1441  0.6267 -0.2528
 6725TIP3    H141734   2.937   4.471   1.490  0.9356 -0.4097  0.1791
 6725TIP3    H241735   2.834   4.368   1.530 -1.5630  1.6979 -0.6775
 6726TIP3   OH241736   7.208   0.259   7.822 -0.3124  0.2012 -0.3424
 6726TIP3    H141737   7.151   0.211   7.762 -0.0909 -0.6132  0.0964
 6726TIP3    H241738   7.276   0.197   7.846 -0.3961  0.5194  0.7558
 6727TIP3   OH241739   6.746   0.188   7.389 -0.4540 -0.3646  0.3302
 6727TIP3    H141740   6.658   0.205   7.356 -0.4447 -1.4163 -0.2564
 6727TIP3    H241741   6.731   0.147   7.475 -0.5166 -0.0006  0.4970
 6728TIP3   OH241742   6.421   6.707   8.217  0.2535  0.1957  0.4610
 6728TIP3    H141743   6.379   6.684   8.134  0.6749  2.5148 -0.4093
 6728TIP3    H241744   6.487   6.639   8.230 -0.0983 -0.4181 -0.8811
 6729TIP3   OH241745   5.851   6.645   1.916  0.1750 -0.4420 -0.1809
 6729TIP3    H141746   5.828   6.679   1.830  2.4173  0.7654 -0.3184
 6729TIP3    H241747   5.852   6.550   1.904 -0.8051 -0.3429 -1.1441
 6730TIP3   OH241748   1.513   4.433   0.168 -0.1730 -0.1642  0.8191
 6730TIP3    H141749   1.497   4.358   0.111  1.2079 -0.2461  0.5167
 6730TIP3    H241750   1.510   4.508   0.109  0.0759 -0.1312  0.8503
 6731TIP3   OH241751   0.941   6.871   0.803  0.3378  0.1562  0.2373
 6731TIP3    H141752   0.869   6.809   0.814 -0.5074  0.7564 -1.7439
 6731TIP3    H241753   1.020   6.819   0.822 -0.4840 -0.9928  0.5850
 6732TIP3   OH241754   6.957   5.016   2.340 -0.8427  0.2230 -0.0536
 6732TIP3    H141755   7.017   4.942   2.335 -0.3831  0.5570  0.4345
 6732TIP3    H241756   6.871   4.979   2.321 -0.8412 -0.7274  1.7174
 6733TIP3   OH241757   6.817   5.982   1.552  0.0085 -0.3160 -0.3398
 6733TIP3    H141758   6.911   5.966   1.548  0.1014  0.0982  0.2067
 6733TIP3    H241759   6.785   5.918   1.616  0.0795  0.2886  0.3008
 6734TIP3   OH241760   6.168   6.247   2.118 -0.2249  0.1255  0.5369
 6734TIP3    H141761   6.159   6.219   2.209 -2.7115  1.1712  0.6627
 6734TIP3    H241762   6.213   6.331   2.123 -0.9823  0.5208  0.8857
 6735TIP3   OH241763   7.039   5.299   0.102 -0.0093 -0.4042  0.1736
 6735TIP3    H141764   6.995   5.329   0.022 -0.8005 -1.8012  0.0765
 6735TIP3    H241765   7.127   5.334   0.095 -1.0287  2.3704  0.3091
 6736TIP3   OH241766   5.903   5.462   0.271  0.2795 -0.4558 -0.9280
 6736TIP3    H141767   5.948   5.380   0.249 -2.4192 -2.2423 -0.1064
 6736TIP3    H241768   5.878   5.499   0.186  0.1510 -1.3150 -1.2760
 6737TIP3   OH241769   5.469   5.958   7.097  0.1291  0.3759 -0.3969
 6737TIP3    H141770   5.399   6.017   7.124  0.1331  0.3003 -0.2182
 6737TIP3    H241771   5.527   6.012   7.044  0.2312  0.5788 -0.0785
 6738TIP3   OH241772   0.450   0.996   1.839  0.5546  0.6743 -0.1060
 6738TIP3    H141773   0.496   1.079   1.826 -0.5878  1.1882 -0.9471
 6738TIP3    H241774   0.474   0.943   1.763  0.8562  0.4324  0.1578
 6739TIP3   OH241775   0.122   6.254   8.025 -0.1026 -0.4397  1.0109
 6739TIP3    H141776   0.181   6.272   8.099 -0.6530  1.6856  0.9616
 6739TIP3    H241777   0.049   6.313   8.039 -1.8992 -2.5151  0.6482
 6740TIP3   OH241778   4.152   5.965   7.633  0.6026  0.0428  0.5873
 6740TIP3    H141779   4.188   5.881   7.603 -0.9950 -0.2230 -0.6556
 6740TIP3    H241780   4.087   5.940   7.699 -0.2275  0.2592 -0.1409
 6741TIP3   OH241781   6.307   7.209   0.478 -0.0818 -0.1747  0.0870
 6741TIP3    H141782   6.391   7.168   0.459  0.5493  2.3346 -2.9162
 6741TIP3    H241783   6.256   7.199   0.398 -1.7675  0.4408  1.0386
 6742TIP3   OH241784   0.137   5.584   0.292 -0.4908  0.2778  0.3722
 6742TIP3    H141785   0.152   5.558   0.383 -2.4599 -0.9378  0.3799
 6742TIP3    H241786   0.079   5.661   0.299  0.3085  0.8978  0.1796
 6743TIP3   OH241787   6.878   0.231   7.767 -0.1470 -0.5200  0.1815
 6743TIP3    H141788   6.920   0.150   7.794 -0.1566  0.0929  2.1447
 6743TIP3    H241789   6.789   0.205   7.743 -0.1947 -1.0805  0.9389
 6744TIP3   OH241790   0.104   6.146   2.269 -0.5644 -0.1379  0.2506
 6744TIP3    H141791   0.039   6.192   2.217  2.2012  3.9358  0.1183
 6744TIP3    H241792   0.181   6.141   2.212  0.1220 -2.4699  1.3187
 6745TIP3   OH241793   6.247   0.821   7.677 -0.5286 -0.4785  0.0278
 6745TIP3    H141794   6.290   0.736   7.685 -0.9880 -0.6790  0.3981
 6745TIP3    H241795   6.170   0.804   7.623 -0.6084 -0.2926  0.0794
 6746TIP3   OH241796   1.463   4.608   1.944 -0.4836 -0.2432  0.1970
 6746TIP3    H141797   1.442   4.675   1.879 -0.8455 -0.7413 -0.1946
 6746TIP3    H241798   1.506   4.539   1.894 -0.0775 -0.2930  0.6111
 6747TIP3   OH241799   1.459   1.900   7.808  0.0962  0.4380  0.1174
 6747TIP3    H141800   1.469   1.805   7.816  0.0767  0.2874 -1.4936
 6747TIP3    H241801   1.377   1.912   7.760 -0.6481  1.3179  1.5818
 6748TIP3   OH241802   7.270   6.890   0.119 -0.4780  0.3692 -0.0533
 6748TIP3    H141803   7.193   6.939   0.090 -0.5783  0.1330 -0.1838
 6748TIP3    H241804   7.265   6.807   0.072  0.4968  0.8290 -0.9940
 6749TIP3   OH241805   0.177   7.069   8.408  0.0944 -0.1672  0.2897
 6749TIP3    H141806   0.087   7.050   8.433 -0.7168  0.0364 -2.3540
 6749TIP3    H241807   0.230   7.038   8.482 -2.1880  0.7242  2.3529
 6750TIP3   OH241808   1.002   7.105   7.962  1.1219 -0.1655 -0.0097
 6750TIP3    H141809   0.989   7.200   7.956 -0.6382 -0.4160 -0.2102
 6750TIP3    H241810   0.914   7.068   7.956  1.9791 -1.9305 -2.1706
 6751TIP3   OH241811   2.217   5.936   1.262  0.8074 -0.0870 -0.2129
 6751TIP3    H141812   2.164   5.857   1.269  0.7423 -0.2540 -2.4439
 6751TIP3    H241813   2.157   6.007   1.285  0.3732 -0.5129 -0.0219
 6752TIP3   OH241814   7.071   1.188   8.395 -0.3667  0.0705  0.0955
 6752TIP3    H141815   7.115   1.241   8.329 -1.5862  1.3663  0.2908
 6752TIP3    H241816   7.135   1.179   8.466  0.2232  0.3876 -0.4009
 6753TIP3   OH241817   5.414   7.246   6.574  0.5199 -0.1639 -0.2692
 6753TIP3    H141818   5.483   7.213   6.515  0.3201  0.6868 -0.9837
 6753TIP3    H241819   5.342   7.270   6.516  1.3401  3.2892  0.0202
 6754TIP3   OH241820   5.671   7.195   6.402  0.1298 -0.0457 -0.0703
 6754TIP3    H141821   5.692   7.274   6.353  1.5868 -0.6516 -0.4458
 6754TIP3    H241822   5.630   7.137   6.338  1.9513 -0.8027 -0.5906
 6755TIP3   OH241823   6.218   7.256   1.927 -0.1728 -0.2600  0.3703
 6755TIP3    H141824   6.193   7.220   2.012  1.2795 -0.5011  0.7012
 6755TIP3    H241825   6.161   7.211   1.865  1.0022 -2.5222  0.8611
 6756TIP3   OH241826   4.227   6.514   1.913  0.3732  0.4027 -0.1953
 6756TIP3    H141827   4.159   6.450   1.897 -1.1790  2.0994 -0.5257
 6756TIP3    H241828   4.275   6.480   1.989 -1.2010 -0.5039  0.4081
 6757TIP3   OH241829   0.124   6.768   1.180  0.9304 -0.0180  0.6940
 6757TIP3    H141830   0.179   6.840   1.150 -0.3379  0.4034 -0.6962
 6757TIP3    H241831   0.083   6.800   1.260 -0.0859  1.0444 -0.2433
 6758TIP3   OH241832   6.575   1.482   0.543  0.4199 -0.2119 -0.2875
 6758TIP3    H141833   6.541   1.453   0.628  0.4615 -2.0572 -0.8975
 6758TIP3    H241834   6.503   1.469   0.482  0.8745 -0.2660 -0.8162
 6759TIP3   OH241835   5.521   0.751   1.742 -0.0164  0.2080  0.4354
 6759TIP3    H141836   5.479   0.837   1.739 -1.2551 -0.3959  0.2040
 6759TIP3    H241837   5.504   0.713   1.656 -0.8978 -0.9261  1.0939
 6760TIP3   OH241838   5.418   5.569   8.453  0.2719 -0.2345  0.1169
 6760TIP3    H141839   5.498   5.607   8.415  0.3736 -0.7473 -0.1919
 6760TIP3    H241840   5.450   5.496   8.507 -0.0792 -1.3791 -1.1779
 6761TIP3   OH241841   7.086   1.375   0.595 -0.0990 -0.5406  0.2158
 6761TIP3    H141842   7.151   1.440   0.569  0.3909 -1.0292  0.2221
 6761TIP3    H241843   7.118   1.340   0.677  0.6237 -2.1348 -0.7234
 6762TIP3   OH241844   6.285   0.475   1.708 -0.5272 -0.0193  0.4325
 6762TIP3    H141845   6.366   0.447   1.665 -0.3872  1.1903 -0.1289
 6762TIP3    H241846   6.215   0.434   1.657 -0.4897  3.4929 -2.6889
 6763TIP3   OH241847   6.672   6.852   0.090 -0.3917 -0.3094  0.2209
 6763TIP3    H141848   6.656   6.847   0.185 -1.1210 -0.4606  0.0944
 6763TIP3    H241849   6.767   6.857   0.082 -0.3791  0.9677  1.0217
 6764TIP3   OH241850   0.395   6.031   7.313  0.1513 -0.2786  0.2789
 6764TIP3    H141851   0.471   5.974   7.300 -0.3751 -0.5169 -1.8665
 6764TIP3    H241852   0.407   6.102   7.251 -0.7659  0.3438  0.8013
 6765TIP3   OH241853   4.928   6.108   7.998  0.0918  0.1370  0.4027
 6765TIP3    H141854   4.872   6.162   7.943  2.8282  1.6807 -0.9424
 6765TIP3    H241855   4.982   6.171   8.046 -0.1335 -1.2876  2.5807
 6766TIP3   OH241856   1.417   4.826   7.941  0.4492  0.3328  0.6045
 6766TIP3    H141857   1.422   4.917   7.910  0.4790  0.6522  1.5112
 6766TIP3    H241858   1.509   4.800   7.950  0.4395 -0.2788 -1.0394
 6767TIP3   OH241859   5.804   0.268   0.863 -0.6383  1.0163  0.3844
 6767TIP3    H141860   5.746   0.309   0.926 -1.1473 -1.1551  1.3969
 6767TIP3    H241861   5.877   0.233   0.916 -0.7151 -0.2092 -0.2841
 6768TIP3   OH241862   4.697   0.749   6.638  0.3898 -0.1359  0.0675
 6768TIP3    H141863   4.655   0.750   6.552  1.5942 -0.9924 -0.5511
 6768TIP3    H241864   4.739   0.835   6.645 -0.2727  0.1935  0.1031
 6769TIP3   OH241865   6.264   6.439   1.191  0.2888 -0.5016  0.3605
 6769TIP3    H141866   6.266   6.456   1.097 -2.5280  0.4204  0.4244
 6769TIP3    H241867   6.350   6.402   1.210  1.0863 -0.2569 -2.4801
 6770TIP3   OH241868   0.284   6.754   7.275  0.0071  0.0854 -0.4415
 6770TIP3    H141869   0.243   6.841   7.280 -2.7680 -1.1809 -0.0677
 6770TIP3    H241870   0.311   6.735   7.365 -1.6368 -0.4320 -0.0309
 6771TIP3   OH241871   1.374   3.401   0.501  0.2930 -0.2504  1.0056
 6771TIP3    H141872   1.433   3.465   0.462  1.1502 -0.5993  1.7221
 6771TIP3    H241873   1.297   3.453   0.526 -0.5631 -0.1310 -1.7060
 6772TIP3   OH241874   6.877   6.916   8.286  0.4198  0.2005  0.2145
 6772TIP3    H141875   6.813   6.934   8.356  0.9727 -1.1346  1.0876
 6772TIP3    H241876   6.832   6.855   8.228  0.4206  0.3169  0.0911
 6773TIP3   OH241877   1.211   6.863   6.971 -0.2404  0.3325  0.1528
 6773TIP3    H141878   1.301   6.835   6.988 -0.8077 -1.5716  0.1482
 6773TIP3    H241879   1.209   6.955   6.997  2.0570  0.7859 -1.1476
 6774TIP3   OH241880   6.826   0.406   1.923  0.7351  0.6324  0.0157
 6774TIP3    H141881   6.904   0.363   1.957  0.1006 -0.9505 -0.4825
 6774TIP3    H241882   6.787   0.341   1.864  0.1818  2.1833 -1.3699
 6775TIP3   OH241883   0.919   6.800   0.284 -0.5847  0.5889  0.0611
 6775TIP3    H141884   1.004   6.789   0.326 -1.3708 -1.1442  1.2189
 6775TIP3    H241885   0.867   6.850   0.346 -1.0942 -0.1994  0.2710
 6776TIP3   OH241886   0.786   0.413   0.773  0.3034  0.4074  0.4211
 6776TIP3    H141887   0.836   0.481   0.728  0.5382  0.6301  1.0060
 6776TIP3    H241888   0.782   0.443   0.864  0.2306 -0.2606  0.6403
 6777TIP3   OH241889   6.150   0.538   6.840  0.4951 -0.2434 -0.1115
 6777TIP3    H141890   6.060   0.565   6.825  0.6814  0.4520  0.0355
 6777TIP3    H241891   6.185   0.521   6.752  0.5976  0.6921 -0.2555
 6778TIP3   OH241892   6.772   5.859   2.060  0.2499 -0.2619  0.4691
 6778TIP3    H141893   6.717   5.815   2.125  1.1741 -1.7803  0.2588
 6778TIP3    H241894   6.851   5.885   2.108  0.4989 -0.4856  0.1855
 6779TIP3   OH241895   0.697   5.378   0.350 -0.3427  0.1443  0.4701
 6779TIP3    H141896   0.753   5.393   0.274 -0.7625 -0.0570  0.1117
 6779TIP3    H241897   0.671   5.465   0.378 -0.3421  0.2142  0.2585
 6780TIP3   OH241898   0.204   6.338   1.646 -0.1216  0.1545 -0.5033
 6780TIP3    H141899   0.153   6.286   1.584 -0.8223  0.1428  0.0757
 6780TIP3    H241900   0.157   6.421   1.651  0.2475  0.3552 -0.4143
 6781TIP3   OH241901   7.216   5.847   0.177  0.0261  0.0290  0.4355
 6781TIP3    H141902   7.196   5.785   0.106 -1.3289  2.6802 -1.5695
 6781TIP3    H241903   7.211   5.794   0.256 -1.8925 -2.2645 -1.1412
 6782TIP3   OH241904   4.709   5.088   1.985 -0.6600  0.1067 -0.1542
 6782TIP3    H141905   4.660   5.107   2.065 -0.3621  0.0832  0.0327
 6782TIP3    H241906   4.702   5.168   1.933  1.1075  0.9743  0.8939
 6783TIP3   OH241907   4.654   6.084   1.749 -0.2302  0.0789 -0.2989
 6783TIP3    H141908   4.721   6.057   1.687  1.6926 -1.4435  2.3339
 6783TIP3    H241909   4.645   6.178   1.735  1.9326  0.1783 -1.2087
 6784TIP3   OH241910   6.538   7.225   0.808  0.2275  0.0248  0.4536
 6784TIP3    H141911   6.602   7.155   0.798  0.7893  0.6788 -0.6979
 6784TIP3    H241912   6.457   7.181   0.833 -0.0909 -1.3311 -2.7072
 6785TIP3   OH241913   6.394   0.667   6.547  0.1183 -0.1830 -0.1057
 6785TIP3    H141914   6.458   0.723   6.590  0.1507 -0.5027  0.2681
 6785TIP3    H241915   6.332   0.728   6.507 -0.0070  0.1236  0.5347
 6786TIP3   OH241916   5.202   0.659   7.294 -0.3753  0.1516 -0.2834
 6786TIP3    H141917   5.259   0.606   7.350 -0.0289 -1.0387 -1.7179
 6786TIP3    H241918   5.259   0.691   7.225 -0.6391  2.2478  0.4136
 6787TIP3   OH241919   6.058   0.305   7.298 -0.6755  0.0484 -0.1448
 6787TIP3    H141920   6.130   0.367   7.286 -1.7021  0.7255 -2.9207
 6787TIP3    H241921   6.080   0.231   7.241 -1.5642 -0.3001 -0.0436
 6788TIP3   OH241922   6.793   6.365   2.120  0.0258 -0.0316  0.8646
 6788TIP3    H141923   6.811   6.294   2.182  2.4933  0.0656  0.2962
 6788TIP3    H241924   6.701   6.386   2.134 -0.9891 -3.8750  0.4974
 6789TIP3   OH241925   5.203   5.097   8.438 -0.6653  0.3223 -0.7056
 6789TIP3    H141926   5.151   5.046   8.376 -0.3521  1.7922 -2.2286
 6789TIP3    H241927   5.264   5.146   8.383  0.5450  0.6317  0.8761
 6790TIP3   OH241928   0.193   5.869   2.085  0.4414  0.1027 -0.0906
 6790TIP3    H141929   0.235   5.804   2.141 -1.1019  1.0526  2.2512
 6790TIP3    H241930   0.248   5.946   2.092 -0.6637  0.7562  1.4847
 6791TIP3   OH241931   0.827   0.976   0.908  0.9159  0.4481 -0.0416
 6791TIP3    H141932   0.810   1.012   0.821  0.1091 -0.0521 -0.0960
 6791TIP3    H241933   0.748   0.998   0.959  0.7750 -0.4841  0.1625
 6792TIP3   OH241934   6.730   0.212   1.767  0.7386 -0.0304  0.1950
 6792TIP3    H141935   6.774   0.188   1.686 -1.0708  0.9020 -1.0827
 6792TIP3    H241936   6.761   0.148   1.831  1.3079 -1.4779 -1.5030
 6793TIP3   OH241937   0.454   6.651   8.335  0.2632  0.2754  0.0673
 6793TIP3    H141938   0.540   6.627   8.302 -0.0180 -0.0141 -0.4653
 6793TIP3    H241939   0.471   6.721   8.398  0.8104  0.8508 -0.7087
 6794TIP3   OH241940   6.909   1.078   0.951 -0.9324 -0.2668 -0.0841
 6794TIP3    H141941   6.866   1.069   1.036  0.0659  0.9040  0.5631
 6794TIP3    H241942   6.868   1.154   0.910 -1.3055 -0.7355 -0.6001
 6795TIP3   OH241943   5.083   5.038   1.491 -0.2079 -0.1882  0.3673
 6795TIP3    H141944   5.002   5.089   1.496  0.0327  0.1087  1.2696
 6795TIP3    H241945   5.074   4.970   1.558  0.1625 -0.3494  0.2596
 6796TIP3   OH241946   7.138   6.068   0.949  0.5272 -0.3308  0.0316
 6796TIP3    H141947   7.133   6.149   1.000  1.5033  0.3551 -0.9543
 6796TIP3    H241948   7.136   5.999   1.015 -2.5426  0.3790  0.7951
 6797TIP3   OH241949   1.536   5.201   0.711  0.2157 -0.0266  0.5129
 6797TIP3    H141950   1.471   5.262   0.747  0.5879 -0.2015  1.5220
 6797TIP3    H241951   1.593   5.255   0.656 -0.2122  0.3016  0.3912
 6798TIP3   OH241952   5.488   5.701   1.187 -0.6405 -0.4479  0.3927
 6798TIP3    H141953   5.551   5.684   1.118 -0.0834  1.1844  0.4771
 6798TIP3    H241954   5.439   5.778   1.157 -0.7089 -0.0045  1.5797
 6799TIP3   OH241955   6.979   5.901   2.229  0.1753  0.5005  0.4743
 6799TIP3    H141956   6.926   5.907   2.308  0.5462 -0.2803  0.7866
 6799TIP3    H241957   7.068   5.919   2.259  0.8575 -3.1302  0.8768
 6800TIP3   OH241958   6.592   6.497   0.028 -0.1528  0.3755 -0.3243
 6800TIP3    H141959   6.587   6.524  -0.064  2.5493 -2.0458 -1.2539
 6800TIP3    H241960   6.535   6.420   0.033 -1.1336  1.1266  0.3198
 6801TIP3   OH241961   1.154   5.925   0.380  0.5493 -0.1160  0.6079
 6801TIP3    H141962   1.229   5.959   0.331 -0.7404  0.7421 -0.8393
 6801TIP3    H241963   1.182   5.838   0.409  1.4245 -0.6089 -1.5807
 6802TIP3   OH241964   5.722   6.128   7.211 -0.4737  0.4390  0.5682
 6802TIP3    H141965   5.802   6.076   7.221 -0.0435  0.8590 -0.6075
 6802TIP3    H241966   5.752   6.219   7.209 -0.8270  0.5393 -1.2242
 6803TIP3   OH241967   3.742   5.997   8.431 -0.9123 -0.1082 -0.0185
 6803TIP3    H141968   3.718   6.012   8.340  1.6368  0.0677 -0.7007
 6803TIP3    H241969   3.718   6.078   8.476  0.0562  0.7534 -1.0161
 6804TIP3   OH241970   6.537   5.567   2.392 -0.3716 -0.1789 -0.7258
 6804TIP3    H141971   6.557   5.479   2.358 -0.3811  0.2064 -1.7366
 6804TIP3    H241972   6.442   5.575   2.384 -0.1676  0.6968 -2.5758
 6805TIP3   OH241973   6.669   4.602   7.008 -0.0131 -0.1205 -0.7474
 6805TIP3    H141974   6.761   4.579   6.994  0.1743  0.3630 -0.3260
 6805TIP3    H241975   6.669   4.698   7.015 -0.2659 -0.2600  1.3076
 6806TIP3   OH241976   6.822   5.780   1.731 -0.0707  0.4634 -0.4771
 6806TIP3    H141977   6.895   5.822   1.777  0.0641  1.1586 -1.3264
 6806TIP3    H241978   6.786   5.719   1.795  1.4475 -0.1048 -0.1366
 6807TIP3   OH241979   4.848   5.686   0.904 -0.1144  0.0481 -0.4546
 6807TIP3    H141980   4.924   5.666   0.849  0.5521  0.9330  0.1416
 6807TIP3    H241981   4.791   5.739   0.847 -0.6969 -1.3182 -1.1811
 6808TIP3   OH241982   6.128   6.722   1.913  0.6439  0.2695  0.8535
 6808TIP3    H141983   6.131   6.673   1.995  0.6259 -1.5724 -0.2308
 6808TIP3    H241984   6.034   6.732   1.895  0.6478 -1.7009 -0.3280
 6809TIP3   OH241985   6.159   6.597   1.413  0.7498  0.1602  0.0432
 6809TIP3    H141986   6.204   6.675   1.379  0.4690  0.3032  0.0034
 6809TIP3    H241987   6.166   6.532   1.343  1.3043  0.0286  0.2178
 6810TIP3   OH241988   3.729   5.486   8.024  0.0210  0.0245  0.3566
 6810TIP3    H141989   3.796   5.529   7.971 -0.0887  0.7929  0.8311
 6810TIP3    H241990   3.766   5.401   8.045 -0.1948 -0.5341 -1.4780
 6811TIP3   OH241991   0.082   1.246   7.520 -0.5622 -0.1334  0.7723
 6811TIP3    H141992   0.055   1.293   7.441 -1.0271 -0.9606  0.4266
 6811TIP3    H241993   0.175   1.229   7.507 -0.8739 -1.2261 -0.1068
 6812TIP3   OH241994   2.032   6.748   0.724 -0.3395  0.0982  0.7283
 6812TIP3    H141995   2.014   6.687   0.796  0.1769  0.2923  1.0251
 6812TIP3    H241996   2.079   6.820   0.765 -0.8804  0.6546  0.3587
 6813TIP3   OH241997   6.859   5.819   1.036  0.3081 -0.7616  0.1648
 6813TIP3    H141998   6.770   5.814   1.071  1.0614 -2.9250  1.8076
 6813TIP3    H241999   6.905   5.878   1.095  0.5091 -1.2229  0.4652
 6814TIP3   OH242000   6.908   5.129   1.516 -1.0925  0.1725  0.0806
 6814TIP3    H142001   6.968   5.066   1.476 -0.8461  0.6691 -0.3497
 6814TIP3    H242002   6.821   5.098   1.492 -1.1051 -1.6329  2.3204
 6815TIP3   OH242003   6.823   0.981   0.255  0.2761 -1.1462  0.2554
 6815TIP3    H142004   6.848   1.073   0.253  0.6059 -1.2212  0.7709
 6815TIP3    H242005   6.832   0.956   0.347  1.0634 -1.9420 -0.0340
 6816TIP3   OH242006   1.901   6.869   0.136 -0.1424  0.0517 -0.1010
 6816TIP3    H142007   1.980   6.816   0.127  0.3095  0.6034  0.5579
 6816TIP3    H242008   1.838   6.811   0.179  0.6169  0.3004  1.3630
 6817TIP3   OH242009   1.897   0.012   0.414 -0.3410  0.7577 -0.3133
 6817TIP3    H142010   1.812   0.001   0.457 -0.1788  2.0572  0.3867
 6817TIP3    H242011   1.876   0.039   0.325 -0.6805  2.0976  0.1560
 6818TIP3   OH242012   4.964   6.954   0.077 -0.3796 -0.1488  0.4385
 6818TIP3    H142013   5.038   6.893   0.076  0.0462  0.3541  0.4044
 6818TIP3    H242014   4.928   6.950  -0.011  2.3291  2.8091 -0.9305
 6819TIP3   OH242015   2.864   6.546   0.197 -0.2039  0.2872 -0.3626
 6819TIP3    H142016   2.867   6.450   0.187  0.1869  0.2166  0.3764
 6819TIP3    H242017   2.772   6.568   0.183 -0.3070 -0.1985 -0.4920
 6820TIP3   OH242018   6.348   6.725   0.590  0.2174 -0.0831  0.3188
 6820TIP3    H142019   6.272   6.756   0.641  0.2808  0.5497  0.0272
 6820TIP3    H242020   6.325   6.636   0.566  0.2376 -0.4416  1.5685
 6821TIP3   OH242021   4.268   6.249   0.938 -0.7248  0.4433  0.1840
 6821TIP3    H142022   4.315   6.282   1.015  0.4322 -0.4220 -0.1399
 6821TIP3    H242023   4.317   6.171   0.911 -1.2359  0.6281 -1.3210
 6822TIP3   OH242024   6.396   0.003   1.349  0.0395 -0.5837  0.3233
 6822TIP3    H142025   6.478  -0.007   1.397 -0.1756 -1.2226  0.5601
 6822TIP3    H242026   6.373  -0.086   1.322  1.0697 -0.0688 -2.4966
 6823TIP3   OH242027   4.459   5.140   2.464 -0.1088 -0.3985  0.0491
 6823TIP3    H142028   4.552   5.161   2.452 -0.2698 -0.2043 -0.9188
 6823TIP3    H242029   4.433   5.099   2.382 -0.6933 -1.1502  0.6101
 6824TIP3   OH242030   0.180   5.895   0.777 -0.8986  0.3447 -0.0462
 6824TIP3    H142031   0.102   5.840   0.772  0.4341 -1.7371  1.1961
 6824TIP3    H242032   0.165   5.951   0.854 -3.1838  3.3243 -2.5130
 6825TIP3   OH242033   0.217   6.788   1.623 -0.1550 -0.0268 -0.2024
 6825TIP3    H142034   0.185   6.833   1.701  1.2951  0.4040  0.1639
 6825TIP3    H242035   0.282   6.848   1.586  0.0365 -0.7572 -1.0655
 6826TIP3   OH242036   0.750   1.463   1.789 -0.8885  0.1074  0.6209
 6826TIP3    H142037   0.706   1.547   1.783  0.5632  0.9886  2.0241
 6826TIP3    H242038   0.811   1.462   1.715 -1.6453 -0.1525  0.0013
 6827TIP3   OH242039   6.381   4.277   0.973  0.2467 -0.1931  0.0575
 6827TIP3    H142040   6.358   4.291   0.881 -0.3268 -2.4769 -0.1710
 6827TIP3    H242041   6.350   4.356   1.017 -1.6145 -0.0966 -1.3564
 6828TIP3   OH242042   0.570   6.176   1.756  0.8128 -0.3799  0.0639
 6828TIP3    H142043   0.609   6.115   1.819 -0.0557 -0.3654  0.6172
 6828TIP3    H242044   0.477   6.175   1.776  0.7052  0.6115 -0.3753
 6829TIP3   OH242045   5.122   5.320   0.593  0.3024 -0.6299 -0.1603
 6829TIP3    H142046   5.168   5.403   0.581 -0.1861 -0.5247 -1.3196
 6829TIP3    H242047   5.192   5.256   0.611  0.8259 -0.3153 -1.0942
 6830TIP3   OH242048   7.303   6.146   8.434 -0.5501  0.2767 -0.0516
 6830TIP3    H142049   7.382   6.101   8.404  0.0857  0.9293  0.6228
 6830TIP3    H242050   7.235   6.079   8.432 -0.0537 -0.2046 -0.9595
 6831TIP3   OH242051   5.835   6.130   1.233 -0.3041  0.9059 -0.3779
 6831TIP3    H142052   5.842   6.197   1.301 -1.1130  1.2135 -0.5982
 6831TIP3    H242053   5.926   6.115   1.205  0.1356  0.1955  1.3159
 6832TIP3   OH242054   1.131   6.661   2.712 -0.1084  0.0410  0.0272
 6832TIP3    H142055   1.210   6.707   2.741 -0.5943  0.3420  0.8780
 6832TIP3    H242056   1.163   6.577   2.679  0.5335 -0.0162  0.7740
 6833TIP3   OH242057   1.770   0.076   0.990  0.2145 -0.0561  0.0082
 6833TIP3    H142058   1.687   0.104   0.952  0.4366 -1.2228 -1.3682
 6833TIP3    H242059   1.754   0.076   1.084 -0.6892  1.7769 -0.1248
 6834TIP3   OH242060   0.277   5.901   1.316 -0.8091 -0.2635  0.4795
 6834TIP3    H142061   0.277   5.807   1.301 -0.2745 -0.0979 -0.5967
 6834TIP3    H242062   0.369   5.924   1.325 -0.7842  0.4803 -1.4369
 6835TIP3   OH242063   5.922   6.972   1.900 -0.6663  0.5325 -0.7828
 6835TIP3    H142064   5.969   7.037   1.952  0.8893  0.0650 -1.5559
 6835TIP3    H242065   5.932   7.002   1.810 -1.5873  0.2477 -0.9819
 6836TIP3   OH242066   3.364   6.189   0.200 -0.7593  0.1553 -0.0466
 6836TIP3    H142067   3.357   6.138   0.281 -2.1070  1.5020  0.7085
 6836TIP3    H242068   3.454   6.220   0.199 -0.4460 -0.7304  0.4143
 6837TIP3   OH242069   0.147   6.137   1.255  0.3603  0.0695  0.1613
 6837TIP3    H142070   0.203   6.059   1.253 -0.6280 -0.6112 -1.6167
 6837TIP3    H242071   0.200   6.205   1.213  0.0177 -0.4729 -1.1668
 6838TIP3   OH242072   1.294   5.895   1.255  0.3003  0.3263  0.2033
 6838TIP3    H142073   1.289   5.962   1.323  0.0884 -0.3598  0.8750
 6838TIP3    H242074   1.339   5.822   1.297 -1.3418 -0.7491  0.1569
 6839TIP3   OH242075   0.763   7.066   2.210  0.1201 -0.1123  0.1194
 6839TIP3    H142076   0.850   7.037   2.182 -1.3904 -3.4672 -1.3973
 6839TIP3    H242077   0.740   7.008   2.282 -0.3402  1.6410  1.4146
 6840TIP3   OH242078   2.482   1.684   0.575 -0.4074 -0.0902  0.2402
 6840TIP3    H142079   2.444   1.747   0.514 -2.4809 -0.3211  1.2646
 6840TIP3    H242080   2.489   1.731   0.658  1.2180 -0.1754  0.1729
 6841TIP3   OH242081   1.107   2.069   2.414 -0.4839  0.2548 -0.2694
 6841TIP3    H142082   1.177   2.123   2.376  0.3832 -1.7767 -1.6508
 6841TIP3    H242083   1.107   2.092   2.506  1.6358  0.7439 -0.3544
 6842TIP3   OH242084   1.888   0.211   1.812 -0.3730 -0.0832 -0.3200
 6842TIP3    H142085   1.818   0.275   1.826  0.4834  0.6016  0.9521
 6842TIP3    H242086   1.855   0.130   1.849 -0.0966  0.4965  1.2193
 6843TIP3   OH242087   1.905   2.054   2.738  0.3817  0.8004  0.2628
 6843TIP3    H142088   1.901   2.131   2.680  0.5215  1.0405  0.5688
 6843TIP3    H242089   1.824   2.059   2.789  0.1164  0.4205 -0.1263
 6844TIP3   OH242090   0.560   0.412   1.994 -0.2599  0.5978 -0.5749
 6844TIP3    H142091   0.595   0.377   2.075 -2.2621  0.6286  0.3455
 6844TIP3    H242092   0.544   0.335   1.940  0.7005  0.5470 -0.7909
 6845TIP3   OH242093   7.019   0.597   2.196 -0.0501  0.0770  0.0041
 6845TIP3    H142094   6.952   0.530   2.181 -0.2156  0.3494 -0.4865
 6845TIP3    H242095   7.029   0.641   2.111  0.0164  0.7128  0.3342
 6846TIP3   OH242096   0.296   0.456   1.673 -0.7909  0.4999  0.0808
 6846TIP3    H142097   0.317   0.413   1.590 -0.3315 -0.6869  0.7968
 6846TIP3    H242098   0.370   0.513   1.690 -1.3359  1.4937 -0.8029
 6847TIP3   OH242099   0.740   0.048   2.237 -0.5016 -0.5950 -0.5956
 6847TIP3    H142100   0.648   0.056   2.263  0.2221  2.1638  1.3711
 6847TIP3    H242101   0.756  -0.047   2.235 -2.6993 -1.0727  1.6605
 6848TIP3   OH242102   0.750   0.503   1.700  0.2738  0.0975  0.5668
 6848TIP3    H142103   0.689   0.480   1.770 -1.0993  0.7088 -0.3966
 6848TIP3    H242104   0.697   0.553   1.637  1.7598  0.6217 -0.3095
 6849TIP3   OH242105   1.762   0.465   1.503  0.2251  0.4541  0.2799
 6849TIP3    H142106   1.724   0.404   1.440  1.3306 -0.8394  0.8473
 6849TIP3    H242107   1.688   0.519   1.532 -0.6842 -0.3465 -0.5313
 6850TIP3   OH242108   0.490   3.534   0.766  0.1421  0.2098 -0.7382
 6850TIP3    H142109   0.430   3.528   0.692 -0.1231  0.7468 -0.5714
 6850TIP3    H242110   0.561   3.590   0.736  0.9987 -1.1440 -1.2265
 6851TIP3   OH242111   6.569   1.573   0.935  0.1303 -0.1297  0.3549
 6851TIP3    H142112   6.552   1.654   0.984  1.2222  1.0603 -1.2028
 6851TIP3    H242113   6.620   1.600   0.860  0.4996 -2.2914 -0.2139
 6852TIP3   OH242114   1.077   2.355   2.834  0.6840  0.6142 -0.0273
 6852TIP3    H142115   0.996   2.388   2.874 -0.0365 -1.3216  0.1735
 6852TIP3    H242116   1.139   2.349   2.907  0.4046  0.2539  0.1804
 6853TIP3   OH242117   6.732   7.271   1.306  0.3698 -0.0978  0.4934
 6853TIP3    H142118   6.707   7.342   1.366  0.3286  0.1786  0.1527
 6853TIP3    H242119   6.827   7.271   1.307  0.3814 -1.2844  1.9496
 6854TIP3   OH242120   2.542   2.066   2.008  0.0644  0.0062 -0.2347
 6854TIP3    H142121   2.477   2.035   2.071  0.7980 -1.1407 -0.0275
 6854TIP3    H242122   2.519   2.023   1.925  2.4205 -2.9775  0.5682
 6855TIP3   OH242123   1.225   1.852   2.217  0.6408  0.1164  0.6237
 6855TIP3    H142124   1.275   1.776   2.247  0.1400 -0.8091 -0.8160
 6855TIP3    H242125   1.186   1.888   2.296  1.7621 -0.4750  1.4672
 6856TIP3   OH242126   0.498   0.171   1.863  0.0106  0.0294  0.4055
 6856TIP3    H142127   0.569   0.147   1.804  0.5848  0.7006  0.8175
 6856TIP3    H242128   0.452   0.088   1.880  0.4463 -0.3347 -0.1781
 6857TIP3   OH242129   0.687   0.542   2.529  0.3577  0.1842  0.2190
 6857TIP3    H142130   0.638   0.460   2.536 -0.0393  0.3364 -0.6762
 6857TIP3    H242131   0.656   0.582   2.448 -0.5602  1.9671  1.4097
 6858TIP3   OH242132   2.229   0.816   2.228  0.0484 -0.0065 -0.0439
 6858TIP3    H142133   2.293   0.858   2.287  0.9915  1.0373 -1.7847
 6858TIP3    H242134   2.145   0.831   2.271  0.8182 -0.2597  1.6291
 6859TIP3   OH242135   2.949   0.770   1.399 -0.4787  0.3514 -0.0418
 6859TIP3    H142136   2.906   0.814   1.472  0.2377  0.4903  0.3019
 6859TIP3    H242137   3.035   0.810   1.394  0.1007 -0.8313  0.1310
 6860TIP3   OH242138   2.515   7.301   1.498  0.1670  0.1525  0.3549
 6860TIP3    H142139   2.551   7.284   1.411 -0.3577 -1.3118  0.4218
 6860TIP3    H242140   2.447   7.236   1.509 -1.0725  1.5460  1.1075
 6861TIP3   OH242141   2.433   0.456   2.355  0.0932  0.5903 -0.0707
 6861TIP3    H142142   2.341   0.435   2.364  0.0510  0.9698  0.4124
 6861TIP3    H242143   2.474   0.375   2.323 -0.3900  0.4067 -0.2253
 6862TIP3   OH242144   0.250   7.261   1.727  0.1453 -0.0338  0.1543
 6862TIP3    H142145   0.312   7.225   1.791  0.8670  2.0693  0.6868
 6862TIP3    H242146   0.302   7.273   1.648  0.6566  2.4430  0.8253
 6863TIP3   OH242147   2.425   0.375   1.663 -0.3966  0.1349 -0.1164
 6863TIP3    H142148   2.421   0.433   1.739  0.7447  1.8741 -1.3509
 6863TIP3    H242149   2.451   0.432   1.590 -1.8688 -1.4303 -1.9007
 6864TIP3   OH242150   2.736   6.648   1.822 -0.2676  0.3299 -0.2291
 6864TIP3    H142151   2.735   6.675   1.914 -0.5350  0.6852 -0.3323
 6864TIP3    H242152   2.816   6.688   1.786  0.1641 -0.3251 -0.0029
 6865TIP3   OH242153   1.782   6.720   1.085 -0.5736  0.0704  0.1734
 6865TIP3    H142154   1.808   6.784   1.152  1.0163 -0.7110  0.3192
 6865TIP3    H242155   1.722   6.769   1.028  0.7128  1.7363  0.2129
 6866TIP3   OH242156   3.908   1.012   2.275  0.5020  0.2946  0.2800
 6866TIP3    H142157   3.955   0.965   2.206  0.7381  0.7667  0.1218
 6866TIP3    H242158   3.974   1.067   2.316 -0.0165  1.3268 -0.2643
 6867TIP3   OH242159   0.531   1.569   0.987  0.0844 -0.0730 -0.1446
 6867TIP3    H142160   0.590   1.633   0.948  1.1290  0.5462  2.3324
 6867TIP3    H242161   0.498   1.611   1.066  0.2812 -2.3073  1.1874
 6868TIP3   OH242162   2.689   1.661   2.650 -0.1738 -0.0701  0.2983
 6868TIP3    H142163   2.622   1.667   2.719 -0.9029  0.6282 -0.4594
 6868TIP3    H242164   2.665   1.583   2.601 -1.2081  0.8738 -0.7489
 6869TIP3   OH242165   3.195   2.599   2.272 -0.2685  0.0622 -1.1568
 6869TIP3    H142166   3.199   2.510   2.237 -2.1231 -0.1392 -0.8805
 6869TIP3    H242167   3.276   2.640   2.241  2.0450 -2.5619  1.0898
 6870TIP3   OH242168   1.969   0.888   1.970  0.0941 -0.0215  0.3657
 6870TIP3    H142169   1.983   0.959   2.032  0.8360 -1.2248  1.6131
 6870TIP3    H242170   2.044   0.892   1.911 -0.2437  0.6771 -0.0248
 6871TIP3   OH242171   3.155   2.668   1.228 -0.2791 -0.4612  0.0195
 6871TIP3    H142172   3.119   2.753   1.203  0.3722 -0.6443 -1.5926
 6871TIP3    H242173   3.250   2.682   1.232 -0.3926 -0.1611  3.5565
 6872TIP3   OH242174   3.451   6.314   1.955 -1.1850  0.5708  0.3236
 6872TIP3    H142175   3.495   6.229   1.950 -0.7585  0.8649 -1.7030
 6872TIP3    H242176   3.463   6.343   2.045 -0.0482 -0.8361  0.6387
 6873TIP3   OH242177   4.491   1.517   1.625 -0.0494 -0.3321  0.0938
 6873TIP3    H142178   4.443   1.572   1.688  1.5240  1.3624 -0.1229
 6873TIP3    H242179   4.461   1.547   1.540  0.7933  0.2038 -0.0252
 6874TIP3   OH242180   1.825   7.058   2.089  0.1380 -0.3969  0.0829
 6874TIP3    H142181   1.894   7.123   2.083  0.4122 -0.6780  0.1831
 6874TIP3    H242182   1.837   7.018   2.175  1.0620 -1.7939 -0.6681
 6875TIP3   OH242183   2.881   1.479   1.889  0.4231 -0.5639 -0.5383
 6875TIP3    H142184   2.856   1.489   1.981 -0.8184  0.0470 -0.9345
 6875TIP3    H242185   2.942   1.552   1.874 -1.6974  1.1714 -0.9880
 6876TIP3   OH242186   1.712   1.688   2.834  0.6669  0.4931  0.6901
 6876TIP3    H142187   1.657   1.765   2.850  0.3203  0.6348 -1.0882
 6876TIP3    H242188   1.794   1.707   2.878  0.2923  1.5295  0.9526
 6877TIP3   OH242189   4.559   1.472   2.250 -0.5482 -0.2736  0.5157
 6877TIP3    H142190   4.509   1.536   2.301  0.0912  1.2400 -0.7091
 6877TIP3    H242191   4.497   1.442   2.183 -0.3986  0.2040  0.1574
 6878TIP3   OH242192   4.951   0.698   8.095  0.2853  0.8040 -1.0461
 6878TIP3    H142193   5.029   0.643   8.102  1.3978  2.5422  0.8336
 6878TIP3    H242194   4.926   0.692   8.003  0.6881 -2.3520 -1.0124
 6879TIP3   OH242195   3.197   7.005   1.428 -0.1875 -0.8753  0.0945
 6879TIP3    H142196   3.195   7.067   1.501 -1.8236  0.9216 -1.4189
 6879TIP3    H242197   3.288   7.009   1.397  0.1753 -0.6068  1.1428
 6880TIP3   OH242198   6.906   6.711   1.363 -0.3036 -0.1956  0.4475
 6880TIP3    H142199   6.979   6.727   1.304 -1.1394  1.2508 -0.2043
 6880TIP3    H242200   6.925   6.764   1.441  0.3858 -1.4600  1.1581
 6881TIP3   OH242201   4.629   1.278   0.753  0.7509  0.4325 -0.0343
 6881TIP3    H142202   4.663   1.211   0.694  0.2906  0.8263 -0.7554
 6881TIP3    H242203   4.695   1.286   0.821  2.1199  1.2304 -1.4443
 6882TIP3   OH242204   5.561   1.400   1.660 -0.3091 -0.4186 -0.2361
 6882TIP3    H142205   5.496   1.382   1.592  1.9586 -0.8784 -2.3626
 6882TIP3    H242206   5.547   1.331   1.724 -0.0955 -2.2053 -2.0589
 6883TIP3   OH242207   4.807   1.340   2.622 -0.2704  0.4624  0.0012
 6883TIP3    H142208   4.725   1.336   2.573  0.3197  0.8442 -1.0395
 6883TIP3    H242209   4.791   1.406   2.690 -0.4755  1.3267 -0.8741
 6884TIP3   OH242210   4.532   1.348   2.522  0.1681  0.7668 -0.8479
 6884TIP3    H142211   4.473   1.421   2.541  0.5533  1.4450 -2.2096
 6884TIP3    H242212   4.485   1.296   2.457 -0.4438 -0.6455  0.6842
 6885TIP3   OH242213   4.506   0.486   2.071 -0.5693  0.3227 -0.3284
 6885TIP3    H142214   4.439   0.418   2.059 -1.1243  0.8253 -0.1132
 6885TIP3    H242215   4.577   0.460   2.012  0.8413 -2.4888  2.4443
 6886TIP3   OH242216   3.701   6.845   1.814 -0.2573 -0.3516 -0.2672
 6886TIP3    H142217   3.658   6.808   1.891 -0.8512 -1.1760 -0.9933
 6886TIP3    H242218   3.790   6.865   1.844 -0.9125  0.6748  1.0285
 6887TIP3   OH242219   5.783   6.817   0.957 -0.4075 -0.0268  0.1645
 6887TIP3    H142220   5.830   6.825   1.040  0.1623  3.4978 -0.4395
 6887TIP3    H242221   5.696   6.853   0.975 -0.1574  1.1121 -0.8384
 6888TIP3   OH242222   3.787   2.711   0.383  0.2107  0.2513  0.1536
 6888TIP3    H142223   3.876   2.674   0.384 -0.4230 -1.3436  0.0051
 6888TIP3    H242224   3.735   2.649   0.436 -1.1445  0.2533 -1.1432
 6889TIP3   OH242225   3.858   2.955   1.577 -0.0860 -0.2172 -0.8339
 6889TIP3    H142226   3.801   2.881   1.556  0.9112 -1.6055  1.1414
 6889TIP3    H242227   3.799   3.021   1.613 -1.2335  0.6684 -4.1922
 6890TIP3   OH242228   4.146   1.335   2.503 -0.0875  0.1111 -0.1729
 6890TIP3    H142229   4.126   1.365   2.592 -0.9589  0.4106 -0.4582
 6890TIP3    H242230   4.214   1.395   2.472 -0.9705  1.0686 -0.3055
 6891TIP3   OH242231   5.759   0.783   1.496 -0.4951 -0.4342 -0.0892
 6891TIP3    H142232   5.850   0.781   1.465 -0.1784 -1.5423  0.8860
 6891TIP3    H242233   5.736   0.691   1.508 -1.3797 -0.1059  0.7314
 6892TIP3   OH242234   4.279   0.311   2.140 -0.1514  1.1408  0.1983
 6892TIP3    H142235   4.184   0.319   2.142 -0.3288 -0.4784 -0.7812
 6892TIP3    H242236   4.304   0.296   2.231 -0.8516  1.3280  0.4259
 6893TIP3   OH242237   5.703   7.067   1.759 -0.2307  0.7352  0.2598
 6893TIP3    H142238   5.639   7.138   1.763 -1.0577 -0.0427  1.1375
 6893TIP3    H242239   5.750   7.073   1.843  0.1033  0.6198  0.0808
 6894TIP3   OH242240   4.152   1.097   2.384 -0.3385  0.2313 -0.8177
 6894TIP3    H142241   4.222   1.042   2.418 -2.2244 -1.2686  0.7846
 6894TIP3    H242242   4.155   1.177   2.437  0.0996  0.1418 -0.7118
 6895TIP3   OH242243   4.851   0.722   2.000  0.2805 -0.2586  0.5083
 6895TIP3    H142244   4.795   0.740   2.075 -0.1510  0.5998 -0.0195
 6895TIP3    H242245   4.937   0.703   2.038  0.2365  0.8738  1.1896
 6896TIP3   OH242246   0.761   1.044   0.365 -0.1167 -0.3415 -0.0078
 6896TIP3    H142247   0.840   0.994   0.386  0.3521  0.5998  0.4629
 6896TIP3    H242248   0.709   0.984   0.312 -0.5656 -2.1692  2.3929
 6897TIP3   OH242249   5.081   6.555   1.308  0.0201  0.2219  0.4838
 6897TIP3    H142250   5.169   6.520   1.322 -0.3170 -0.9443 -0.2914
 6897TIP3    H242251   5.023   6.482   1.325 -0.7258  0.5633 -0.5530
 6898TIP3   OH242252   5.684   5.870   0.131 -0.1989  0.2191  0.1159
 6898TIP3    H142253   5.611   5.904   0.183 -1.1158 -1.2902 -0.1518
 6898TIP3    H242254   5.644   5.844   0.048  0.2456 -2.4877  0.6857
 6899TIP3   OH242255   7.054   0.965   2.301  0.2066 -0.3282 -0.8189
 6899TIP3    H142256   7.036   0.885   2.350 -1.9670  0.4360 -0.2980
 6899TIP3    H242257   7.097   0.936   2.221  0.5648 -1.9100 -0.0615
 6900TIP3   OH242258   6.371   6.447   0.585 -0.2726  0.3741  0.4177
 6900TIP3    H142259   6.301   6.394   0.547  1.0139 -1.5943  0.7242
 6900TIP3    H242260   6.451   6.397   0.569  1.2634  3.2009 -1.0612
 6901TIP3   OH242261   0.618   0.875   2.202 -0.3058 -0.3416  0.3578
 6901TIP3    H142262   0.678   0.890   2.275 -1.1022  1.2301  0.7068
 6901TIP3    H242263   0.670   0.824   2.139  1.0698  0.1277  1.0833
 6902TIP3   OH242264   0.252   6.349   1.107 -0.4573 -0.1006  0.2370
 6902TIP3    H142265   0.200   6.368   1.029  0.7200 -0.1242 -0.5666
 6902TIP3    H242266   0.285   6.435   1.134 -0.6223 -0.1318  0.5414
 6903TIP3   OH242267   1.048   3.250   1.236 -0.0712  0.4564  0.2184
 6903TIP3    H142268   0.996   3.201   1.299 -0.0255 -0.1978 -0.2535
 6903TIP3    H242269   1.026   3.342   1.253 -2.2484  0.1435 -0.7167
 6904TIP3   OH242270   7.241   1.787   1.543  0.0473  0.3809  0.0341
 6904TIP3    H142271   7.318   1.734   1.525 -0.4764 -0.5979  0.5852
 6904TIP3    H242272   7.171   1.723   1.556 -1.1317  1.2819 -1.7227
 6905TIP3   OH242273   6.789   3.373   2.218  0.0981 -0.1678  0.0552
 6905TIP3    H142274   6.713   3.322   2.189  1.9424 -3.1703  0.2276
 6905TIP3    H242275   6.847   3.374   2.142  1.1484 -0.4955  0.8346
 6906TIP3   OH242276   2.880   3.425   1.833  0.7228 -0.1210  0.0001
 6906TIP3    H142277   2.876   3.330   1.838  1.0804 -0.0747  1.4524
 6906TIP3    H242278   2.959   3.448   1.882  2.2461  0.7484 -2.7962
 6907TIP3   OH242279   6.705   2.612   1.182 -0.0040 -0.1932  1.0738
 6907TIP3    H142280   6.622   2.592   1.224 -1.0669  1.5693 -0.1429
 6907TIP3    H242281   6.698   2.571   1.095 -0.1162  0.9950  0.5109
 6908TIP3   OH242282   1.018   2.919   2.619  0.5500 -0.2021 -0.0934
 6908TIP3    H142283   0.981   2.972   2.549 -1.6713  0.5710  1.6443
 6908TIP3    H242284   1.108   2.951   2.628  0.5405  0.3822 -1.8792
 6909TIP3   OH242285   0.371   2.096   2.360  0.2595 -0.1446 -0.1427
 6909TIP3    H142286   0.379   2.157   2.433 -3.1651  0.5204 -0.2522
 6909TIP3    H242287   0.316   2.026   2.394 -2.3544  0.7405 -2.4135
 6910TIP3   OH242288   1.334   3.574   2.373  0.1855  0.2251  0.3176
 6910TIP3    H142289   1.392   3.629   2.426 -0.1832 -0.5690  1.5643
 6910TIP3    H242290   1.261   3.631   2.350  0.6097  0.7262  0.2006
 6911TIP3   OH242291   1.477   3.677   2.124  0.2633  0.1442  0.1092
 6911TIP3    H142292   1.508   3.663   2.213 -1.1845  0.2369  0.6429
 6911TIP3    H242293   1.488   3.593   2.080  2.1408  0.4287 -0.0020
 6912TIP3   OH242294   0.426   3.166   2.563 -0.2245  0.3697  0.2041
 6912TIP3    H142295   0.459   3.216   2.488  0.8109 -1.0606 -0.3203
 6912TIP3    H242296   0.481   3.088   2.565 -3.3202 -1.9008 -0.4228
 6913TIP3   OH242297   0.246   3.300   2.738  0.2946  0.1363 -0.0295
 6913TIP3    H142298   0.276   3.247   2.664  0.8674 -0.2667  0.4843
 6913TIP3    H242299   0.155   3.320   2.718  0.3997 -0.1020 -0.7691
 6914TIP3   OH242300   2.763   2.534   1.119  0.4515 -0.3572 -0.2341
 6914TIP3    H142301   2.803   2.459   1.162  0.3941 -0.6547 -0.7096
 6914TIP3    H242302   2.694   2.562   1.180  0.4552 -0.6989 -0.0737
 6915TIP3   OH242303   2.703   1.355   1.393  0.0171 -0.3373  0.3320
 6915TIP3    H142304   2.676   1.447   1.394  1.1081 -0.0016  1.1284
 6915TIP3    H242305   2.718   1.334   1.486  0.2875 -1.1602  0.1075
 6916TIP3   OH242306   0.166   1.675   2.238  0.0182 -0.0568 -0.7069
 6916TIP3    H142307   0.192   1.623   2.314  2.9355  2.3955  0.1080
 6916TIP3    H242308   0.196   1.624   2.162  0.7453 -0.6542 -0.0278
 6917TIP3   OH242309   2.390   2.581   1.923  0.5594 -0.2011 -0.0472
 6917TIP3    H142310   2.388   2.614   2.012 -1.4592  0.7824 -0.4285
 6917TIP3    H242311   2.419   2.490   1.931  0.1465 -0.1919  1.6219
 6918TIP3   OH242312   3.709   3.427   1.794  0.4256  0.5330  0.1036
 6918TIP3    H142313   3.654   3.488   1.745  0.6435  0.7320  0.1080
 6918TIP3    H242314   3.674   3.430   1.883 -0.1879 -0.0889 -0.1161
 6919TIP3   OH242315   4.068   1.970   2.281  0.3154 -0.0084  0.2165
 6919TIP3    H142316   3.979   1.953   2.312  0.1305  0.4275 -0.0576
 6919TIP3    H242317   4.125   1.920   2.339  0.0601  1.7215  1.9871
 6920TIP3   OH242318   2.274   5.434   0.860 -0.5315  0.4191  0.4596
 6920TIP3    H142319   2.224   5.479   0.792  1.6817 -0.0059 -1.5263
 6920TIP3    H242320   2.251   5.342   0.849 -0.1700  0.3493  0.2757
 6921TIP3   OH242321   2.342   2.411   1.425 -0.0117 -0.6911 -0.0793
 6921TIP3    H142322   2.379   2.401   1.513 -0.4520 -2.1042 -0.0459
 6921TIP3    H242323   2.305   2.326   1.405  0.8354 -0.6289 -2.0017
 6922TIP3   OH242324   3.024   2.624   2.490 -0.0122  0.2753  0.2202
 6922TIP3    H142325   2.957   2.556   2.489  1.5529 -1.3245 -3.0204
 6922TIP3    H242326   3.095   2.587   2.543 -1.0725  1.4165  2.5075
 6923TIP3   OH242327   3.173   1.234   1.794 -0.7136  0.1270  0.4841
 6923TIP3    H142328   3.219   1.238   1.878 -2.0368  0.8905  1.1864
 6923TIP3    H242329   3.081   1.219   1.817 -1.1943  0.9557 -0.7969
 6924TIP3   OH242330   2.353   2.477   2.733 -0.3436 -0.2664  0.4641
 6924TIP3    H142331   2.396   2.541   2.676  0.8022 -0.4709  1.0762
 6924TIP3    H242332   2.407   2.476   2.812 -0.4432 -1.8632  0.5253
 6925TIP3   OH242333   1.083   3.915   1.849  0.4500 -0.1088 -0.9266
 6925TIP3    H142334   1.067   3.932   1.942 -1.0798  1.3357 -1.4277
 6925TIP3    H242335   1.067   3.821   1.838 -0.7202 -0.0280  0.0071
 6926TIP3   OH242336   1.788   3.034   2.656  0.0306  0.1247 -0.2048
 6926TIP3    H142337   1.872   2.987   2.660  0.6342  1.2802  0.9530
 6926TIP3    H242338   1.788   3.076   2.570  0.0697 -0.8970 -0.7150
 6927TIP3   OH242339   2.405   4.149   1.000  0.7525  0.1965  0.3898
 6927TIP3    H142340   2.335   4.195   0.955  1.2141  2.0621  1.5232
 6927TIP3    H242341   2.478   4.150   0.938  0.1020 -0.8984 -0.4107
 6928TIP3   OH242342   2.488   2.669   2.601 -0.7190  0.8932 -0.1344
 6928TIP3    H142343   2.528   2.741   2.552  1.2452  1.5599  2.3282
 6928TIP3    H242344   2.562   2.615   2.628 -1.4754  1.6692  3.7997
 6929TIP3   OH242345   2.110   2.893   2.005 -0.4885  0.2151  0.2711
 6929TIP3    H142346   2.040   2.956   2.023  0.8094  1.4115  1.2537
 6929TIP3    H242347   2.155   2.882   2.089 -0.9020 -2.3127  0.1970
 6930TIP3   OH242348   2.954   3.079   0.454  0.6867  0.0933  0.5418
 6930TIP3    H142349   2.955   3.118   0.541  3.6197  0.9101  0.1918
 6930TIP3    H242350   3.035   3.027   0.450 -0.1478 -1.1359 -1.1728
 6931TIP3   OH242351   5.609   2.162   1.739  0.4592  0.0233 -0.4583
 6931TIP3    H142352   5.703   2.170   1.725  0.5272  0.6510  0.3394
 6931TIP3    H242353   5.589   2.227   1.806 -0.4300 -0.5791 -0.1350
 6932TIP3   OH242354   4.414   4.606   1.439 -0.2745  0.0615 -0.1758
 6932TIP3    H142355   4.383   4.692   1.409 -0.9965  0.4484  1.6091
 6932TIP3    H242356   4.388   4.602   1.531  1.2532 -1.3871  0.2129
 6933TIP3   OH242357   3.722   4.507   2.091 -0.0840 -0.0933 -0.1680
 6933TIP3    H142358   3.765   4.459   2.161  1.5248  1.1495 -0.2580
 6933TIP3    H242359   3.661   4.566   2.135  0.1817 -0.0408  0.1316
 6934TIP3   OH242360   3.740   2.373   0.866 -0.1026 -0.2765 -0.1212
 6934TIP3    H142361   3.661   2.333   0.830  0.0546 -0.9940  0.3344
 6934TIP3    H242362   3.786   2.302   0.910  0.0666  0.4554  0.8918
 6935TIP3   OH242363   5.162   3.407   2.418  0.1121 -0.1931  0.0762
 6935TIP3    H142364   5.076   3.417   2.459  0.5610 -0.6798  1.1450
 6935TIP3    H242365   5.212   3.482   2.448 -0.2549  0.6701 -1.4003
 6936TIP3   OH242366   5.015   2.794   1.659 -0.3718  0.6681 -0.4953
 6936TIP3    H142367   5.048   2.882   1.644 -2.9732  1.7109 -0.3363
 6936TIP3    H242368   4.987   2.793   1.750 -2.2804  0.3458 -1.0735
 6937TIP3   OH242369   4.781   3.485   2.011  0.1990 -0.1552 -0.0023
 6937TIP3    H142370   4.748   3.400   2.039 -0.8655 -0.3976 -1.9256
 6937TIP3    H242371   4.869   3.490   2.047 -0.7196 -0.9086  2.4293
 6938TIP3   OH242372   4.839   3.083   2.089 -0.2091  0.0807 -0.8541
 6938TIP3    H142373   4.792   3.155   2.131  0.6495  0.8652 -1.2237
 6938TIP3    H242374   4.902   3.054   2.155 -0.7485 -0.5420 -0.5984
 6939TIP3   OH242375   2.744   2.171   0.607 -0.3666 -0.2521  0.0166
 6939TIP3    H142376   2.801   2.234   0.562  0.2667 -1.6017 -1.1089
 6939TIP3    H242377   2.763   2.184   0.700  1.8758 -0.7403 -0.3347
 6940TIP3   OH242378   3.713   3.543   2.098  0.0553  0.0483 -0.3195
 6940TIP3    H142379   3.792   3.505   2.135  0.2214 -0.1552 -0.8868
 6940TIP3    H242380   3.666   3.578   2.174 -0.5050 -2.0038  0.2989
 6941TIP3   OH242381   3.322   1.658   0.542  0.2155 -0.2972  0.1624
 6941TIP3    H142382   3.387   1.653   0.471 -0.4385  1.1072 -0.5461
 6941TIP3    H242383   3.357   1.725   0.601 -0.7186  0.6505 -0.3565
 6942TIP3   OH242384   5.199   2.693   2.270  0.2585  0.1135 -0.5520
 6942TIP3    H142385   5.243   2.778   2.260 -1.3053  0.8857 -0.9915
 6942TIP3    H242386   5.123   2.712   2.325  0.8481 -1.3499  0.8146
 6943TIP3   OH242387   2.260   3.672   1.646 -0.1737 -0.1652 -0.4032
 6943TIP3    H142388   2.312   3.740   1.689 -1.7830  0.9377 -0.1609
 6943TIP3    H242389   2.263   3.695   1.553 -0.0176 -0.2457 -0.4178
 6944TIP3   OH242390   3.374   2.604   1.494  0.6636  0.0124 -0.3324
 6944TIP3    H142391   3.308   2.553   1.542  2.4498 -1.2195  0.8957
 6944TIP3    H242392   3.370   2.691   1.533  1.2948 -0.6684  1.3045
 6945TIP3   OH242393   1.695   2.330   1.118 -0.2725  0.1804 -0.6220
 6945TIP3    H142394   1.658   2.407   1.162  1.4513  1.0487 -0.6255
 6945TIP3    H242395   1.738   2.281   1.188  2.0117  1.2857 -1.2125
 6946TIP3   OH242396   5.428   2.440   1.529  0.2647 -0.0274 -0.4480
 6946TIP3    H142397   5.386   2.360   1.563  0.8555  0.1983  0.8584
 6946TIP3    H242398   5.510   2.410   1.492  0.2722 -0.0924 -0.3799
 6947TIP3   OH242399   3.513   3.564   2.621 -0.2214  0.7651  0.1479
 6947TIP3    H142400   3.578   3.502   2.654 -1.8307 -0.7445  0.6097
 6947TIP3    H242401   3.439   3.509   2.595 -1.1422  2.3970 -0.7886
 6948TIP3   OH242402   7.133   2.833   2.134  0.2889 -0.3591  0.6726
 6948TIP3    H142403   7.147   2.788   2.217  1.4903 -1.6781 -0.2186
 6948TIP3    H242404   7.059   2.891   2.150  2.5081  1.8232  3.6484
 6949TIP3   OH242405   0.558   3.131   1.321 -0.1085  0.1461  0.0598
 6949TIP3    H142406   0.519   3.172   1.244 -0.5367  0.1664  0.2880
 6949TIP3    H242407   0.494   3.144   1.390 -0.8625 -2.1346 -0.1921
 6950TIP3   OH242408   7.078   2.189   0.870 -0.6688 -0.2873 -0.4826
 6950TIP3    H142409   7.094   2.099   0.898  1.7631  0.3767  0.3606
 6950TIP3    H242410   7.105   2.242   0.945  0.0024  1.2302 -1.7853
 6951TIP3   OH242411   1.839   3.686   2.073  0.3576  0.5146  0.6775
 6951TIP3    H142412   1.758   3.723   2.107  0.7834  0.6974  1.5040
 6951TIP3    H242413   1.876   3.637   2.146  1.1958  0.7542  0.4231
 6952TIP3   OH242414   6.830   2.970   1.967 -0.2350  0.6227 -0.0890
 6952TIP3    H142415   6.827   2.959   2.062 -0.3439  3.6847  0.3191
 6952TIP3    H242416   6.739   2.962   1.938 -0.5327  2.1399  0.4006
 6953TIP3   OH242417   0.131   1.515   0.754  0.0544  0.1461  1.0407
 6953TIP3    H142418   0.118   1.463   0.675 -1.0235  1.9260  0.0179
 6953TIP3    H242419   0.046   1.516   0.797  0.0783  1.0168  1.0763
 6954TIP3   OH242420   6.387   3.274   1.471  0.3780 -0.3258  0.3192
 6954TIP3    H142421   6.312   3.214   1.472 -0.3145  0.5290  0.9621
 6954TIP3    H242422   6.444   3.243   1.542  1.1626 -1.6206 -0.8592
 6955TIP3   OH242423   5.256   2.457   2.143  0.1378 -0.3133  0.1442
 6955TIP3    H142424   5.226   2.540   2.181  2.3084  0.9042 -0.7497
 6955TIP3    H242425   5.318   2.423   2.207  1.1856  0.0301 -0.6809
 6956TIP3   OH242426   7.286   1.409   2.262  0.0196 -0.0065 -0.1410
 6956TIP3    H142427   7.238   1.327   2.250  0.0775 -0.1898  0.8429
 6956TIP3    H242428   7.373   1.391   2.226  0.1922 -0.5488  0.5279
 6957TIP3   OH242429   5.902   2.654   1.661  0.4005  0.7277 -0.0132
 6957TIP3    H142430   5.991   2.664   1.694  0.5986 -0.3530 -0.2112
 6957TIP3    H242431   5.882   2.739   1.622  0.6696  1.5792  1.6296
 6958TIP3   OH242432   1.839   2.902   2.306  0.7805 -0.5285  0.0126
 6958TIP3    H142433   1.873   2.875   2.392  0.9021 -1.2543 -0.2586
 6958TIP3    H242434   1.805   2.990   2.321  0.8243 -0.6361  0.8041
 6959TIP3   OH242435   2.841   6.662   0.676  0.1958  0.2266 -0.0939
 6959TIP3    H142436   2.774   6.599   0.701  0.1959  0.6470  1.0207
 6959TIP3    H242437   2.887   6.621   0.602 -2.0844  0.4991 -1.6816
 6960TIP3   OH242438   7.239   4.481   1.136 -0.0292 -0.0982 -0.5634
 6960TIP3    H142439   7.252   4.509   1.045  0.9873 -0.8253 -0.6566
 6960TIP3    H242440   7.320   4.434   1.158  0.1534  0.9392  1.0543
 6961TIP3   OH242441   0.694   4.400   1.099  0.1419 -0.0079  0.2438
 6961TIP3    H142442   0.670   4.444   1.181 -0.7784 -0.2293  0.0974
 6961TIP3    H242443   0.612   4.393   1.050  0.9059  1.2199 -1.2317
 6962TIP3   OH242444   0.206   5.029   2.562  0.1898 -0.0947  0.0671
 6962TIP3    H142445   0.271   5.001   2.498  0.5466  2.0758 -0.5889
 6962TIP3    H242446   0.206   5.125   2.555 -2.0434  0.0057  1.0800
 6963TIP3   OH242447   1.588   5.138   1.885  0.1389  0.0606  0.4318
 6963TIP3    H142448   1.565   5.231   1.888  0.5012  0.1341  1.0247
 6963TIP3    H242449   1.548   5.106   1.804 -1.4317  0.3313  1.0841
 6964TIP3   OH242450   6.990   4.857   0.843 -0.9449  0.8585  0.2652
 6964TIP3    H142451   7.083   4.870   0.826 -0.6677 -0.6915  0.5012
 6964TIP3    H242452   6.947   4.934   0.806  0.7179  3.1274  2.9083
 6965TIP3   OH242453   0.999   4.968   2.428 -0.0908 -0.1725  0.4151
 6965TIP3    H142454   0.980   5.049   2.475  0.0825  0.4208 -0.5423
 6965TIP3    H242455   1.043   4.995   2.348 -1.2228 -1.1220 -0.5479
 6966TIP3   OH242456   0.166   4.728   1.339 -0.0756 -0.0168 -0.2494
 6966TIP3    H142457   0.196   4.781   1.265  0.9333  0.7714  0.7082
 6966TIP3    H242458   0.165   4.789   1.413 -1.6639 -0.6443  0.2651
 6967TIP3   OH242459   2.139   5.449   1.915  0.0397  0.5806  0.3952
 6967TIP3    H142460   2.160   5.395   1.991 -0.9388 -0.2101  0.1194
 6967TIP3    H242461   2.203   5.520   1.917 -0.9788  1.4974  2.9035
 6968TIP3   OH242462   0.267   4.776   2.670  0.4070  0.1118  0.4165
 6968TIP3    H142463   0.329   4.821   2.727 -0.7148  1.3901  0.6486
 6968TIP3    H242464   0.239   4.843   2.607 -0.5487 -0.5111  0.1615
 6969TIP3   OH242465   1.417   6.511   2.502  0.3743  0.1956 -0.3043
 6969TIP3    H142466   1.356   6.451   2.544  0.3366  1.0408  0.9043
 6969TIP3    H242467   1.376   6.535   2.419 -0.1570 -0.5113 -0.2454
 6970TIP3   OH242468   2.531   5.566   0.239  0.8495  0.0329 -0.5178
 6970TIP3    H142469   2.468   5.567   0.166  1.5560 -1.9871 -1.1821
 6970TIP3    H242470   2.547   5.658   0.258 -0.2952  0.5765 -2.1075
 6971TIP3   OH242471   1.541   4.600   0.393 -0.4473 -0.0836 -0.4336
 6971TIP3    H142472   1.579   4.520   0.357 -0.6971  0.5161 -2.0730
 6971TIP3    H242473   1.552   4.666   0.324  1.7320  1.8953  1.6944
 6972TIP3   OH242474   3.216   4.893   2.390 -0.0865  0.1303 -0.1431
 6972TIP3    H142475   3.232   4.913   2.298  1.4428 -0.1199  0.0496
 6972TIP3    H242476   3.221   4.798   2.395 -1.3083  0.0754 -0.0034
 6973TIP3   OH242477   2.232   4.784   2.600  0.2285  0.5317  0.1251
 6973TIP3    H142478   2.283   4.704   2.586  0.0058  0.3932  0.1091
 6973TIP3    H242479   2.203   4.810   2.512 -1.1446 -0.3197  0.3228
 6974TIP3   OH242480   2.432   5.326   1.506  0.1233 -0.1491 -0.0138
 6974TIP3    H142481   2.527   5.331   1.511  0.0111  2.7779  0.1342
 6974TIP3    H242482   2.412   5.234   1.518  2.8978 -0.6776  0.8534
 6975TIP3   OH242483   2.333   6.786   0.924  0.2978  0.0348 -0.3218
 6975TIP3    H142484   2.304   6.724   0.991  1.5991  0.8958  1.0530
 6975TIP3    H242485   2.266   6.854   0.923  0.9164  0.6820  1.0260
 6976TIP3   OH242486   3.359   4.146   1.394  0.4396  0.4997  0.1415
 6976TIP3    H142487   3.436   4.114   1.441  1.0757 -0.0474 -1.2212
 6976TIP3    H242488   3.351   4.238   1.420  2.8790  1.1836 -1.3476
 6977TIP3   OH242489   0.820   4.748   1.100 -0.3793 -0.0920 -0.3813
 6977TIP3    H142490   0.903   4.746   1.147 -0.2904  0.3352 -0.5202
 6977TIP3    H242491   0.787   4.836   1.113 -2.1763 -1.0673  2.0347
 6978TIP3   OH242492   0.796   5.241   1.244  0.3058 -0.3661 -0.5240
 6978TIP3    H142493   0.763   5.246   1.334  0.6244 -0.3458 -0.4084
 6978TIP3    H242494   0.750   5.166   1.206 -1.1105  0.6507 -0.8778
 6979TIP3   OH242495   2.991   5.460   0.707 -0.4322  0.4632  0.5080
 6979TIP3    H142496   3.024   5.441   0.794  1.3825 -0.9327 -0.4475
 6979TIP3    H242497   3.025   5.389   0.652  0.9698  2.9073 -1.9053
 6980TIP3   OH242498   2.358   3.887   1.798  0.2020  0.1420  0.0399
 6980TIP3    H142499   2.339   3.967   1.749  0.0724  0.8313  1.1852
 6980TIP3    H242500   2.421   3.914   1.864 -0.9971 -0.3544  1.4177
 6981TIP3   OH242501   3.160   6.272   2.180 -0.3798  0.6432  0.4405
 6981TIP3    H142502   3.081   6.246   2.226  0.4323  1.8845  2.5847
 6981TIP3    H242503   3.195   6.190   2.145 -3.1880  0.2199 -1.5384
 6982TIP3   OH242504   3.947   5.010   8.150 -0.3275  0.3010 -0.2781
 6982TIP3    H142505   3.869   4.975   8.107 -1.3885  1.8424  0.3514
 6982TIP3    H242506   4.016   5.003   8.084 -0.9978 -1.0475 -0.8518
 6983TIP3   OH242507   3.478   3.847   1.875 -0.0314  0.3168  0.3436
 6983TIP3    H142508   3.405   3.858   1.935 -0.0042 -0.5378  0.5285
 6983TIP3    H242509   3.542   3.912   1.903  0.5476 -0.9810  2.0870
 6984TIP3   OH242510   4.025   3.117   2.231  0.0228  0.3306  0.0613
 6984TIP3    H142511   4.049   3.025   2.248 -0.0129 -0.3319 -3.1831
 6984TIP3    H242512   4.105   3.166   2.250  0.3780 -0.4964  0.7574
 6985TIP3   OH242513   4.365   6.013   1.373  0.7688 -0.1322 -0.2607
 6985TIP3    H142514   4.459   6.016   1.387  0.7369 -3.2985  1.2645
 6985TIP3    H242515   4.343   5.920   1.384 -2.2823  0.2830 -2.2321
 6986TIP3   OH242516   6.581   4.126   1.902  0.3055 -0.4692  0.0821
 6986TIP3    H142517   6.493   4.122   1.863  1.0170 -0.9110 -1.5135
 6986TIP3    H242518   6.597   4.219   1.915 -1.1027 -0.4597  2.0732
 6987TIP3   OH242519   3.359   4.631   2.054  0.6649  0.0922  0.2717
 6987TIP3    H142520   3.314   4.702   2.008 -1.8906 -1.5212  0.2059
 6987TIP3    H242521   3.420   4.595   1.989  0.0930  0.5292 -0.5055
 6988TIP3   OH242522   4.198   5.885   1.633 -0.0828 -0.1473 -0.7825
 6988TIP3    H142523   4.247   5.846   1.561 -0.5932  0.9590 -1.7482
 6988TIP3    H242524   4.237   5.972   1.644  0.1116 -0.3749  0.4017
 6989TIP3   OH242525   4.985   4.861   1.692  0.2143  0.1724  0.3285
 6989TIP3    H142526   4.947   4.780   1.657 -1.5740 -0.2890  3.1930
 6989TIP3    H242527   5.064   4.833   1.738  1.2092  0.4718 -1.1517
 6990TIP3   OH242528   4.033   4.540   2.184  0.4365 -0.0272 -0.1626
 6990TIP3    H142529   4.124   4.547   2.213  0.5579 -0.4237 -0.4434
 6990TIP3    H242530   3.996   4.469   2.237  0.0980  0.5726  0.4265
 6991TIP3   OH242531   3.387   5.203   0.734 -0.4047 -0.0562 -0.1707
 6991TIP3    H142532   3.352   5.198   0.823 -0.1978 -1.0239 -0.1384
 6991TIP3    H242533   3.480   5.184   0.743 -0.0666  1.4036 -0.4049
 6992TIP3   OH242534   4.490   4.831   2.425 -0.4400  0.2888 -0.7540
 6992TIP3    H142535   4.491   4.925   2.444  0.0138  0.3675 -1.1573
 6992TIP3    H242536   4.564   4.795   2.474 -0.8171  0.0884 -0.3321
 6993TIP3   OH242537   4.200   4.618   1.948  0.1306  0.1190 -0.2299
 6993TIP3    H142538   4.147   4.697   1.936  1.7545  1.1896 -0.5977
 6993TIP3    H242539   4.196   4.600   2.042 -0.3101  0.5996 -0.1550
 6994TIP3   OH242540   3.464   4.806   1.754  0.0543  0.0243 -0.3067
 6994TIP3    H142541   3.390   4.840   1.805 -0.3557  0.7102 -1.3369
 6994TIP3    H242542   3.541   4.824   1.808 -0.5748 -1.1238  0.9924
 6995TIP3   OH242543   5.379   7.227   1.744 -0.0671  0.8324  0.3597
 6995TIP3    H142544   5.435   7.290   1.789  0.4262  0.4389  0.2953
 6995TIP3    H242545   5.317   7.198   1.811  2.6882 -2.1826  1.6776
 6996TIP3   OH242546   6.058   3.788   2.391 -0.7058  0.2326  0.0928
 6996TIP3    H142547   6.128   3.746   2.341 -0.3872 -0.0624  0.7747
 6996TIP3    H242548   5.980   3.736   2.373 -0.5330 -0.0387  0.1296
 6997TIP3   OH242549   3.954   5.534   0.621 -0.0774  0.3363  0.1251
 6997TIP3    H142550   3.913   5.607   0.574 -1.1252 -0.4427 -0.1798
 6997TIP3    H242551   4.018   5.499   0.559  1.4720  1.8993  0.8014
 6998TIP3   OH242552   3.515   4.951   0.523  0.6217 -0.2523  0.4141
 6998TIP3    H142553   3.549   5.030   0.481  1.7820 -1.4513 -0.9449
 6998TIP3    H242554   3.569   4.941   0.602 -0.6641  1.2381  1.5248
 6999TIP3   OH242555   6.645   5.417   0.894 -0.1413  0.3295 -0.3268
 6999TIP3    H142556   6.696   5.351   0.848 -2.0419 -1.6979  0.4182
 6999TIP3    H242557   6.660   5.399   0.986  0.3462  1.7615 -0.1145
 7000TIP3   OH242558   6.325   4.090   1.840  0.2899 -0.1150 -0.0956
 7000TIP3    H142559   6.278   4.124   1.915  1.8760  2.8212 -0.3315
 7000TIP3    H242560   6.282   4.007   1.819 -1.8161  0.2954  2.4099
 7001TIP3   OH242561   7.286   4.301   2.800  0.0553 -0.0860 -0.0079
 7001TIP3    H142562   7.332   4.384   2.788  1.9835 -0.9891  0.9448
 7001TIP3    H242563   7.195   4.327   2.818  0.0372  1.6971 -2.3615
 7002TIP3   OH242564   6.457   4.251   1.281 -0.0865 -0.6322  0.1922
 7002TIP3    H142565   6.440   4.242   1.187  0.8375 -3.6897  0.2559
 7002TIP3    H242566   6.373   4.229   1.322 -0.8642  1.9778  0.1098
 7003TIP3   OH242567   5.899   3.287   1.709  0.1705  0.1575 -0.2702
 7003TIP3    H142568   5.863   3.244   1.632 -0.9351 -1.6384  1.2115
 7003TIP3    H242569   5.828   3.287   1.773 -0.0427  4.7076 -0.3540
 7004TIP3   OH242570   6.920   3.886   2.145  0.2360 -0.5813  0.7857
 7004TIP3    H142571   6.969   3.891   2.226  0.3099  1.4189  0.6433
 7004TIP3    H242572   6.985   3.897   2.076 -0.0319 -0.7900  0.4927
 7005TIP3   OH242573   0.403   5.765   0.276 -0.0507  0.4991 -0.0568
 7005TIP3    H142574   0.457   5.844   0.274 -2.1778  1.9608 -0.9714
 7005TIP3    H242575   0.390   5.748   0.369  0.2567  1.3272  0.1420
 7006TIP3   OH242576   5.849   5.507   1.818  0.0050 -0.0982 -0.5384
 7006TIP3    H142577   5.876   5.506   1.726  0.4129 -1.2567 -0.4259
 7006TIP3    H242578   5.932   5.509   1.866 -0.2299  2.0632 -0.1902
 7007TIP3   OH242579   6.131   0.919   7.920  0.2614  0.5234  0.0185
 7007TIP3    H142580   6.173   0.868   7.851 -0.6724 -1.1504  0.6594
 7007TIP3    H242581   6.202   0.971   7.958  1.5014 -1.2860  0.2292
 7008TIP3   OH242582   6.592   6.311   0.538  0.4695 -0.5258 -0.8542
 7008TIP3    H142583   6.654   6.293   0.467  0.5233 -1.3484 -0.6012
 7008TIP3    H242584   6.619   6.253   0.609  0.3607  0.2262 -0.1806
 7009TIP3   OH242585   6.784   4.923   1.209  0.0870 -0.2514  0.0885
 7009TIP3    H142586   6.763   4.837   1.174 -0.7880  0.9820 -2.5393
 7009TIP3    H242587   6.845   4.961   1.145  1.3934  0.6336  1.8182
 7010TIP3   OH242588   6.335   5.158   0.563 -0.0411 -0.5231 -0.0314
 7010TIP3    H142589   6.359   5.218   0.634  0.3463  0.3459 -0.9031
 7010TIP3    H242590   6.308   5.078   0.609 -0.2048  0.1748  1.1222
 7011TIP3   OH242591   0.098   4.565   2.677 -0.2901  0.3110 -0.2875
 7011TIP3    H142592   0.139   4.646   2.704 -0.1260  0.4083 -0.8183
 7011TIP3    H242593   0.015   4.592   2.637 -0.9294  0.1057  0.8969
 7012TIP3   OH242594   5.353   4.259   2.556  0.3609  0.1677 -0.1118
 7012TIP3    H142595   5.386   4.207   2.483  0.6698 -0.4030  0.4322
 7012TIP3    H242596   5.333   4.195   2.625 -1.2407  0.5565 -0.1869
 7013TIP3   OH242597   6.725   5.082   2.677  0.1304 -0.3808 -0.4235
 7013TIP3    H142598   6.669   5.099   2.601  0.3250  1.4422 -0.1874
 7013TIP3    H242599   6.813   5.101   2.645  0.1663  0.8147  0.3709
 7014TIP3   OH242600   1.048   0.740   0.184 -0.3496 -0.6453  0.1177
 7014TIP3    H142601   1.064   0.677   0.114 -1.1029  0.9173 -1.5009
 7014TIP3    H242602   0.953   0.734   0.200 -0.6441  0.8881 -0.8960
 7015TIP3   OH242603   2.054   0.337   1.158 -0.4274 -0.1559 -0.3553
 7015TIP3    H142604   2.028   0.367   1.071 -1.7913 -0.1756  0.0370
 7015TIP3    H242605   2.011   0.251   1.167  1.1543 -0.9687 -0.3647
 7016TIP3   OH242606   0.592   5.721   2.293  0.0177 -0.0227 -0.2521
 7016TIP3    H142607   0.624   5.705   2.382  0.1436  2.2669  0.1458
 7016TIP3    H242608   0.497   5.709   2.299 -0.0419  0.6746  0.3564
 7017TIP3   OH242609   1.790   6.695   2.645 -0.0354 -0.0953  0.1400
 7017TIP3    H142610   1.761   6.730   2.729 -0.6128 -1.1502  0.3883
 7017TIP3    H242611   1.876   6.735   2.631 -0.1410  0.4512  0.9964
 7018TIP3   OH242612   1.351   0.169   1.968  0.0062 -0.0476 -0.2289
 7018TIP3    H142613   1.295   0.237   1.931  0.5225  0.9750  0.8523
 7018TIP3    H242614   1.323   0.162   2.059 -0.9150 -2.1984 -0.6228
 7019TIP3   OH242615   0.536   0.641   1.612 -0.2500 -0.2378  0.0111
 7019TIP3    H142616   0.480   0.650   1.534 -0.3034  0.9672  0.1680
 7019TIP3    H242617   0.560   0.731   1.633 -0.4895 -0.5292  1.5702
 7020TIP3   OH242618   1.493   6.129   1.858  0.5131 -0.3893 -0.2446
 7020TIP3    H142619   1.490   6.159   1.949  2.0161 -1.6319  0.2406
 7020TIP3    H242620   1.409   6.086   1.843 -0.2923  1.0274  0.1168
 7021TIP3   OH242621   0.931   0.151   1.072  0.5921 -0.1838  0.1293
 7021TIP3    H142622   1.020   0.119   1.085  0.7219  0.9272  2.1672
 7021TIP3    H242623   0.925   0.228   1.128 -0.6602  1.6148 -2.3409
 7022TIP3   OH242624   0.328   7.111   0.155  0.5901 -0.2960 -0.2886
 7022TIP3    H142625   0.402   7.059   0.188  0.3875 -1.4767 -1.6647
 7022TIP3    H242626   0.263   7.105   0.225  1.6142  0.3983  0.7534
 7023TIP3   OH242627   2.332   0.786   8.204  0.2297  0.0480  0.3430
 7023TIP3    H142628   2.343   0.702   8.160 -0.5789  0.5848 -0.9352
 7023TIP3    H242629   2.241   0.810   8.188  0.5956  1.4293  0.1768
 7024TIP3   OH242630   0.988   6.171   1.857 -0.3087  0.1695  0.0340
 7024TIP3    H142631   0.969   6.082   1.828  1.4851  0.0467 -0.8246
 7024TIP3    H242632   0.949   6.177   1.944 -1.1758 -1.1724 -0.2525
 7025TIP3   OH242633   0.788   6.185   1.597  0.1312 -0.4365  0.5557
 7025TIP3    H142634   0.825   6.240   1.666 -1.3212  2.1567 -0.6561
 7025TIP3    H242635   0.697   6.171   1.624  0.0591 -0.9453  0.0604
 7026TIP3   OH242636   3.944   4.789   1.420 -0.2334  0.1905 -0.4592
 7026TIP3    H142637   3.988   4.732   1.358  3.6382  2.6329 -0.1529
 7026TIP3    H242638   3.967   4.753   1.506 -0.5708  0.2885 -0.3264
 7027TIP3   OH242639   3.050   6.593   1.479 -0.2489  0.3111 -0.8565
 7027TIP3    H142640   2.973   6.553   1.438  0.2669 -0.2359 -1.2908
 7027TIP3    H242641   3.096   6.636   1.408  0.9541 -1.1270 -0.9819
 7028TIP3   OH242642   4.540   7.047   7.645 -0.0414 -0.1795 -0.0430
 7028TIP3    H142643   4.514   7.031   7.735 -1.3029 -1.3765 -0.6045
 7028TIP3    H242644   4.608   6.982   7.627  1.9723  1.6102  0.7661
 7029TIP3   OH242645   1.869   0.666   0.585 -0.4139 -0.2418 -0.1481
 7029TIP3    H142646   1.932   0.698   0.650 -1.2215  0.8624  0.1088
 7029TIP3    H242647   1.891   0.713   0.505 -1.3548  0.7073  0.1305
 7030TIP3   OH242648   2.312   6.278   2.128 -0.2801 -0.4858  0.1159
 7030TIP3    H142649   2.312   6.311   2.218  0.4335 -0.3073  0.0556
 7030TIP3    H242650   2.263   6.196   2.132  0.6703 -1.0296  0.8795
 7031TIP3   OH242651   2.376   5.783   0.718  0.5358 -0.1502 -0.6250
 7031TIP3    H142652   2.462   5.795   0.759 -0.5203  0.3349  1.5379
 7031TIP3    H242653   2.379   5.839   0.640  0.4981  3.8621  2.0595
 7032TIP3   OH242654   2.659   1.667   0.312 -0.2430 -0.0454  0.0530
 7032TIP3    H142655   2.673   1.731   0.381 -1.5546  0.0017  0.2780
 7032TIP3    H242656   2.693   1.709   0.233 -0.8957  0.8379  0.2405
 7033TIP3   OH242657   5.389   0.372   1.173 -0.6295  0.1170  0.0797
 7033TIP3    H142658   5.370   0.464   1.193  2.0059  0.4581  1.2408
 7033TIP3    H242659   5.407   0.332   1.258 -0.7364 -1.2262 -0.5224
 7034TIP3   OH242660   3.067   0.012   2.153  0.3825 -0.0937  0.2810
 7034TIP3    H142661   3.018  -0.038   2.219 -0.1702  0.6960  0.4702
 7034TIP3    H242662   3.118   0.075   2.204  0.5395  0.0101 -0.0048
 7035TIP3   OH242663   2.247   7.223   2.287 -0.1575  0.4703 -0.5741
 7035TIP3    H142664   2.184   7.173   2.340 -0.4115  1.6793  0.2818
 7035TIP3    H242665   2.228   7.315   2.307 -0.3662  0.9707 -2.9047
 7036TIP3   OH242666   4.503   5.285   2.141  0.1776  0.2122 -0.2719
 7036TIP3    H142667   4.466   5.199   2.161  3.1313 -1.6084 -2.0988
 7036TIP3    H242668   4.556   5.306   2.218 -1.5384  1.0176  0.7098
 7037TIP3   OH242669   3.156   5.923   2.645  0.2296 -0.0789  0.7169
 7037TIP3    H142670   3.096   5.984   2.602  0.1657 -1.0923 -0.6360
 7037TIP3    H242671   3.098   5.864   2.694 -0.0403 -2.1927 -2.0398
 7038TIP3   OH242672   2.623   6.923   1.553  0.5815 -0.4820  0.4850
 7038TIP3    H142673   2.583   6.929   1.467  0.3664  0.4964  0.6479
 7038TIP3    H242674   2.711   6.958   1.542  0.9343 -1.3853  0.4213
 7039TIP3   OH242675   0.871   6.113   2.335 -0.4390  0.0077  0.0474
 7039TIP3    H142676   0.917   6.033   2.312 -0.1634  0.8630 -2.5370
 7039TIP3    H242677   0.814   6.088   2.408  1.5859 -1.8710  1.0451
 7040TIP3   OH242678   2.880   0.866   1.799  0.1812 -0.6735 -0.8534
 7040TIP3    H142679   2.845   0.909   1.721  0.4583  0.7042 -0.2287
 7040TIP3    H242680   2.828   0.786   1.807 -1.1811  0.1305 -1.3507
 7041TIP3   OH242681   1.426   0.382   1.055 -0.0920  0.1528  0.0135
 7041TIP3    H142682   1.337   0.349   1.072  0.3461 -0.7579  0.5610
 7041TIP3    H242683   1.436   0.455   1.116 -0.2959 -0.0315  0.2675
 7042TIP3   OH242684   3.484   0.562   1.454 -0.2173 -0.6615 -0.5797
 7042TIP3    H142685   3.414   0.599   1.400  0.6029 -0.1038 -1.2918
 7042TIP3    H242686   3.445   0.486   1.497 -1.6777  0.5268  0.2065
 7043TIP3   OH242687   2.393   6.618   1.401 -0.9089  0.2367 -0.3210
 7043TIP3    H142688   2.332   6.571   1.457 -1.0293  0.6719 -0.0806
 7043TIP3    H242689   2.459   6.652   1.461  0.0331 -0.9425 -0.6838
 7044TIP3   OH242690   3.186   4.497   0.739  0.0277  0.1083 -0.0522
 7044TIP3    H142691   3.207   4.559   0.808 -0.8814  1.0479 -0.5906
 7044TIP3    H242692   3.114   4.539   0.691  1.0027 -0.2582 -1.9048
 7045TIP3   OH242693   4.144   5.120   2.087 -0.2303  0.0404  0.3977
 7045TIP3    H142694   4.054   5.151   2.093 -0.7546 -1.2606 -0.4659
 7045TIP3    H242695   4.187   5.183   2.028 -0.5237  0.7530  0.9359
 7046TIP3   OH242696   2.040   6.405   2.321  0.1579  0.0485  0.1710
 7046TIP3    H142697   2.008   6.322   2.355 -0.2724 -0.1069 -0.6078
 7046TIP3    H242698   2.118   6.424   2.373 -0.0664 -0.5584  0.7308
 7047TIP3   OH242699   6.513   0.566   1.380 -0.5047 -0.2837  0.2299
 7047TIP3    H142700   6.440   0.504   1.385 -2.5084  1.8156 -1.9578
 7047TIP3    H242701   6.582   0.518   1.334 -1.0655 -1.7328  0.8460
 7048TIP3   OH242702   4.668   6.339   2.724  0.3318  0.0172 -0.2062
 7048TIP3    H142703   4.677   6.300   2.811  2.2230 -0.0678 -0.4205
 7048TIP3    H242704   4.679   6.265   2.663 -4.5181 -0.6004 -0.5426
 7049TIP3   OH242705   4.324   6.149   2.758  0.4990 -0.0149  0.1159
 7049TIP3    H142706   4.303   6.073   2.812 -2.2647  0.9451  0.4587
 7049TIP3    H242707   4.346   6.112   2.672  0.2771 -1.2597  0.5923
 7050TIP3   OH242708   5.535   6.365   1.708  0.4599 -0.0240 -0.5276
 7050TIP3    H142709   5.486   6.435   1.665  1.6828  1.7238  0.8997
 7050TIP3    H242710   5.469   6.314   1.755 -0.1580  1.5649  0.3399
 7051TIP3   OH242711   5.195   7.076   2.236 -0.2952 -0.1711  0.3432
 7051TIP3    H142712   5.167   6.998   2.284  1.0988 -0.3090  0.9593
 7051TIP3    H242713   5.284   7.055   2.208 -1.3356 -0.3972 -2.9773
 7052TIP3   OH242714   4.702   0.064   1.030  0.7293 -0.4811 -0.1586
 7052TIP3    H142715   4.702  -0.011   0.970  1.6864  0.3177 -1.1667
 7052TIP3    H242716   4.779   0.051   1.085  1.5627  0.3510 -1.1021
 7053TIP3   OH242717   2.938   5.409   0.273 -0.3848  0.2804  0.1717
 7053TIP3    H142718   2.890   5.361   0.340 -1.1872 -1.0293 -1.3234
 7053TIP3    H242719   2.962   5.343   0.208  2.3604  1.1463  0.2765
 7054TIP3   OH242720   5.395   6.476   2.393 -0.7685 -0.1246  0.0978
 7054TIP3    H142721   5.339   6.547   2.424 -0.7854 -0.9323  1.9649
 7054TIP3    H242722   5.334   6.404   2.377 -0.2880 -1.0462  2.2550
 7055TIP3   OH242723   3.157   5.025   0.825  0.3248  0.0546 -0.2279
 7055TIP3    H142724   3.063   5.020   0.809  0.4666 -1.3821 -0.6581
 7055TIP3    H242725   3.193   5.062   0.744  0.1324  0.6515 -0.0450
 7056TIP3   OH242726   5.141   7.184   1.987  0.2244 -0.1346 -0.1915
 7056TIP3    H142727   5.170   7.166   2.076 -0.0028 -1.0905 -0.3054
 7056TIP3    H242728   5.094   7.105   1.960  1.8478 -0.6037 -1.7901
 7057TIP3   OH242729   3.979   5.244   1.883  0.3424 -0.0185  0.1071
 7057TIP3    H142730   4.020   5.232   1.798 -1.9425  1.6575 -1.2713
 7057TIP3    H242731   3.895   5.200   1.876 -0.8479  2.1008  0.7035
 7058TIP3   OH242732   6.669   5.786   2.319 -0.2279  0.2249 -0.2336
 7058TIP3    H142733   6.608   5.841   2.369  0.0024 -0.0251  0.3269
 7058TIP3    H242734   6.643   5.697   2.340  2.5652  0.0653  2.8371
 7059TIP3   OH242735   5.073   5.505   1.021  0.1261 -0.0462 -0.3947
 7059TIP3    H142736   4.993   5.549   1.050  0.6658  1.0861 -0.6033
 7059TIP3    H242737   5.143   5.545   1.072  0.4966 -1.4800  0.2459
 7060TIP3   OH242738   4.789   6.928   1.794 -0.0395 -0.3600 -0.1127
 7060TIP3    H142739   4.882   6.921   1.775  0.1806  0.0007  0.8138
 7060TIP3    H242740   4.783   6.995   1.862 -1.0506  0.2415 -0.7827
 7061TIP3   OH242741   6.024   6.202   2.372  0.5606  0.0983  0.3015
 7061TIP3    H142742   6.111   6.162   2.383  0.2746 -0.0416  2.4356
 7061TIP3    H242743   5.964   6.137   2.408 -0.4514  0.1498 -1.2784
 7062TIP3   OH242744   3.489   6.983   0.856  0.4383  0.0214 -0.5960
 7062TIP3    H142745   3.444   7.060   0.890  0.1328 -0.6200  0.4883
 7062TIP3    H242746   3.581   6.998   0.876  0.4433  0.3558 -0.8744
 7063TIP3   OH242747   4.271   5.542   1.129  0.0762  0.1162  0.2536
 7063TIP3    H142748   4.314   5.619   1.092 -0.5932  0.3726  0.0110
 7063TIP3    H242749   4.329   5.469   1.105  1.1332  0.6352  1.1928
 7064TIP3   OH242750   5.419   4.993   0.129 -0.1370 -0.0464 -0.3617
 7064TIP3    H142751   5.346   5.020   0.073  0.6550 -1.8078 -2.2986
 7064TIP3    H242752   5.385   4.917   0.176  0.5070 -1.0264 -1.4579
 7065TIP3   OH242753   7.245   6.614   2.777  0.1551  0.1777 -0.4768
 7065TIP3    H142754   7.283   6.644   2.860 -0.0526  1.1209 -0.7261
 7065TIP3    H242755   7.315   6.624   2.713  1.1170 -2.8033  0.0145
 7066TIP3   OH242756   6.074   5.248   0.202  0.6120 -0.3188 -0.3403
 7066TIP3    H142757   6.036   5.165   0.173 -0.1234  0.7238 -2.4604
 7066TIP3    H242758   6.166   5.228   0.218  0.2899 -1.6943 -0.0989
 7067TIP3   OH242759   5.892   6.526   1.204 -0.3003  0.5769  0.0059
 7067TIP3    H142760   5.923   6.448   1.250  2.7520  2.1417  0.7078
 7067TIP3    H242761   5.831   6.567   1.265  1.7786  1.2665  1.6921
 7068TIP3   OH242762   0.135   6.255   2.543 -0.0735 -0.2056  0.2157
 7068TIP3    H142763   0.107   6.326   2.486  1.2793  0.3598  0.2318
 7068TIP3    H242764   0.114   6.175   2.494 -1.7099  0.1840  0.2502
 7069TIP3   OH242765   7.209   6.657   1.342 -0.5122 -0.7772  0.1679
 7069TIP3    H142766   7.189   6.566   1.364 -1.0472 -0.6037  0.3964
 7069TIP3    H242767   7.175   6.668   1.253 -0.5251 -0.7757  0.1732
 7070TIP3   OH242768   5.639   6.458   2.636  0.5147 -0.1589 -0.5570
 7070TIP3    H142769   5.576   6.388   2.650  1.2816 -0.4984  1.4736
 7070TIP3    H242770   5.725   6.415   2.642  0.9799  0.3321 -3.0386
 7071TIP3   OH242771   1.071   6.499   1.175 -0.4619 -0.1151  0.6374
 7071TIP3    H142772   1.017   6.456   1.242 -1.1251 -0.2114  0.0554
 7071TIP3    H242773   1.161   6.485   1.204 -0.6902 -1.3797  0.7735
 7072TIP3   OH242774   0.056   6.575   1.599 -0.7471 -0.4166  0.4899
 7072TIP3    H142775   0.099   6.653   1.634 -0.9295 -0.0777 -0.0413
 7072TIP3    H242776   0.018   6.604   1.516 -1.5735 -0.8421  0.7192
 7073TIP3   OH242777   5.699   6.892   2.046  0.7978  0.1806  0.2434
 7073TIP3    H142778   5.648   6.966   2.011 -0.0801 -1.0459 -1.1173
 7073TIP3    H242779   5.775   6.887   1.988  0.9575  0.1448  0.4574
 7074TIP3   OH242780   6.828   1.482   1.718  0.0954 -0.0700  0.1808
 7074TIP3    H142781   6.889   1.418   1.754 -0.8857 -0.3800  1.3146
 7074TIP3    H242782   6.775   1.510   1.793 -0.2275  1.2360 -0.5164
 7075TIP3   OH242783   7.238   0.537   1.984  0.4800 -0.5772  0.0408
 7075TIP3    H142784   7.190   0.496   1.911  0.6005 -0.4402 -0.1170
 7075TIP3    H242785   7.302   0.595   1.941  0.7799 -0.7528  0.2520
 7076TIP3   OH242786   2.219   6.335   0.814  0.7480  0.6000 -0.0467
 7076TIP3    H142787   2.126   6.359   0.811  0.9192  1.3925  0.6955
 7076TIP3    H242788   2.230   6.273   0.742 -0.3311  0.5935 -0.2187
 7077TIP3   OH242789   6.647   6.131   2.275  0.8366 -0.5050  0.1330
 7077TIP3    H142790   6.600   6.057   2.313  1.6796 -1.2934 -0.3663
 7077TIP3    H242791   6.732   6.131   2.318  1.9719 -1.6806 -2.0681
 7078TIP3   OH242792   0.217   5.585   1.893  0.1594 -0.2701 -0.2295
 7078TIP3    H142793   0.227   5.670   1.851  1.2104  0.1813  0.9057
 7078TIP3    H242794   0.135   5.592   1.943  0.3086  0.1279 -0.0357
   7.30356   7.30356   8.50000
