Title
42794
    1SAPS     N    1   3.887   3.690   6.259
    1SAPS   HN1    2   3.939   3.767   6.306
    1SAPS   HN2    3   3.941   3.652   6.179
    1SAPS   HN3    4   3.795   3.726   6.228
    1SAPS   C12    5   3.864   3.576   6.355
    1SAPS  H12A    6   3.960   3.550   6.396
    1SAPS   C13    7   3.772   3.607   6.474
    1SAPS  O13A    8   3.718   3.720   6.484
    1SAPS  O13B    9   3.760   3.520   6.565
    1SAPS   C11   10   3.805   3.456   6.276
    1SAPS  H11A   11   3.708   3.486   6.231
    1SAPS  H11B   12   3.782   3.373   6.346
    1SAPS     P   13   4.006   3.307   6.205
    1SAPS   O13   14   4.073   3.358   6.326
    1SAPS   O14   15   3.945   3.173   6.217
    1SAPS   O12   16   3.892   3.413   6.171
    1SAPS   O11   17   4.099   3.321   6.078
    1SAPS    C1   18   4.095   3.232   5.965
    1SAPS    HA   19   4.171   3.153   5.982
    1SAPS    HB   20   3.996   3.183   5.954
    1SAPS    C2   21   4.129   3.306   5.831
    1SAPS    HS   22   4.212   3.376   5.854
    1SAPS   O21   23   4.011   3.377   5.789
    1SAPS   C21   24   4.034   3.487   5.720
    1SAPS   O22   25   4.142   3.526   5.680
    1SAPS   C22   26   3.903   3.561   5.695
    1SAPS   H2R   27   3.851   3.574   5.793
    1SAPS   H2S   28   3.931   3.661   5.656
    1SAPS    C3   29   4.180   3.201   5.724
    1SAPS    HX   30   4.102   3.124   5.709
    1SAPS    HY   31   4.264   3.148   5.774
    1SAPS   O31   32   4.232   3.251   5.598
    1SAPS   C31   33   4.141   3.275   5.503
    1SAPS   O32   34   4.021   3.274   5.518
    1SAPS   C32   35   4.210   3.290   5.366
    1SAPS   H2X   36   4.237   3.188   5.333
    1SAPS   H2Y   37   4.303   3.350   5.379
    1SAPS   C23   38   3.812   3.489   5.594
    1SAPS   H3R   39   3.780   3.391   5.636
    1SAPS   H3S   40   3.869   3.466   5.502
    1SAPS   C24   41   3.687   3.571   5.554
    1SAPS   H4R   42   3.626   3.589   5.645
    1SAPS   H4S   43   3.626   3.509   5.485
    1SAPS   C25   44   3.721   3.701   5.487
    1SAPS   H5R   45   3.706   3.792   5.548
    1SAPS   C26   46   3.771   3.714   5.363
    1SAPS   H6R   47   3.794   3.815   5.325
    1SAPS   C27   48   3.801   3.601   5.268
    1SAPS   H7R   49   3.741   3.510   5.290
    1SAPS   H7S   50   3.907   3.570   5.283
    1SAPS   C28   51   3.779   3.642   5.125
    1SAPS   H8R   52   3.677   3.626   5.087
    1SAPS   C29   53   3.872   3.694   5.043
    1SAPS   H9R   54   3.841   3.724   4.941
    1SAPS  C210   55   4.016   3.723   5.078
    1SAPS  H10R   56   4.073   3.627   5.080
    1SAPS  H10S   57   4.024   3.763   5.181
    1SAPS  C211   58   4.081   3.818   4.981
    1SAPS  H11R   59   4.096   3.920   5.018
    1SAPS  C212   60   4.124   3.789   4.856
    1SAPS  H12R   61   4.169   3.868   4.795
    1SAPS  C213   62   4.115   3.654   4.790
    1SAPS  H13R   63   4.115   3.576   4.870
    1SAPS  H13S   64   4.209   3.637   4.734
    1SAPS  C214   65   3.993   3.633   4.705
    1SAPS  H14R   66   3.897   3.659   4.753
    1SAPS  C215   67   3.990   3.583   4.580
    1SAPS  H15R   68   3.893   3.574   4.529
    1SAPS  C216   69   4.109   3.538   4.501
    1SAPS  H16R   70   4.085   3.448   4.440
    1SAPS  H16S   71   4.194   3.509   4.567
    1SAPS  C217   72   4.158   3.652   4.410
    1SAPS  H17R   73   4.260   3.625   4.374
    1SAPS  H17S   74   4.166   3.746   4.467
    1SAPS  C218   75   4.073   3.671   4.284
    1SAPS  H18R   76   4.099   3.769   4.238
    1SAPS  H18S   77   3.966   3.675   4.312
    1SAPS  C219   78   4.098   3.561   4.180
    1SAPS  H19R   79   4.005   3.504   4.165
    1SAPS  H19S   80   4.174   3.490   4.219
    1SAPS  C220   81   4.149   3.615   4.045
    1SAPS  H20R   82   4.170   3.532   3.975
    1SAPS  H20S   83   4.242   3.675   4.059
    1SAPS  H20T   84   4.072   3.681   3.999
    1SAPS   C33   85   4.122   3.360   5.257
    1SAPS   H3X   86   4.107   3.465   5.288
    1SAPS   H3Y   87   4.022   3.311   5.253
    1SAPS   C34   88   4.183   3.358   5.115
    1SAPS   H4X   89   4.284   3.405   5.116
    1SAPS   H4Y   90   4.119   3.419   5.049
    1SAPS   C35   91   4.191   3.216   5.055
    1SAPS   H5X   92   4.087   3.176   5.053
    1SAPS   H5Y   93   4.249   3.152   5.124
    1SAPS   C36   94   4.255   3.202   4.916
    1SAPS   H6X   95   4.247   3.096   4.883
    1SAPS   H6Y   96   4.363   3.223   4.926
    1SAPS   C37   97   4.201   3.290   4.802
    1SAPS   H7X   98   4.270   3.279   4.716
    1SAPS   H7Y   99   4.206   3.397   4.832
    1SAPS   C38  100   4.060   3.255   4.750
    1SAPS   H8X  101   4.053   3.145   4.732
    1SAPS   H8Y  102   4.049   3.304   4.652
    1SAPS   C39  103   3.945   3.303   4.840
    1SAPS   H9X  104   3.967   3.406   4.875
    1SAPS   H9Y  105   3.935   3.238   4.929
    1SAPS  C310  106   3.811   3.306   4.765
    1SAPS  H10X  107   3.780   3.202   4.741
    1SAPS  H10Y  108   3.827   3.361   4.670
    1SAPS  C311  109   3.702   3.377   4.846
    1SAPS  H11X  110   3.728   3.484   4.855
    1SAPS  H11Y  111   3.700   3.334   4.948
    1SAPS  C312  112   3.561   3.364   4.785
    1SAPS  H12X  113   3.491   3.419   4.851
    1SAPS  H12Y  114   3.531   3.257   4.786
    1SAPS  C313  115   3.546   3.418   4.642
    1SAPS  H13X  116   3.608   3.509   4.629
    1SAPS  H13Y  117   3.440   3.448   4.628
    1SAPS  C314  118   3.578   3.314   4.535
    1SAPS  H14X  119   3.527   3.218   4.558
    1SAPS  H14Y  120   3.687   3.293   4.533
    1SAPS  C315  121   3.538   3.360   4.396
    1SAPS  H15X  122   3.578   3.463   4.381
    1SAPS  H15Y  123   3.427   3.365   4.387
    1SAPS  C316  124   3.595   3.267   4.290
    1SAPS  H16X  125   3.554   3.165   4.306
    1SAPS  H16Y  126   3.705   3.263   4.300
    1SAPS  C317  127   3.561   3.308   4.147
    1SAPS  H17X  128   3.455   3.279   4.127
    1SAPS  H17Y  129   3.627   3.253   4.077
    1SAPS  C318  130   3.571   3.456   4.120
    1SAPS  H18X  131   3.668   3.492   4.160
    1SAPS  H18Y  132   3.488   3.510   4.172
    1SAPS  H18Z  133   3.564   3.477   4.011
    2SAPS     N  134   4.633   5.332   6.203
    2SAPS   HN1  135   4.678   5.327   6.296
    2SAPS   HN2  136   4.687   5.278   6.133
    2SAPS   HN3  137   4.619   5.432   6.176
    2SAPS   C12  138   4.498   5.270   6.218
    2SAPS  H12A  139   4.447   5.280   6.124
    2SAPS   C13  140   4.509   5.118   6.249
    2SAPS  O13A  141   4.624   5.065   6.251
    2SAPS  O13B  142   4.402   5.053   6.258
    2SAPS   C11  143   4.416   5.345   6.330
    2SAPS  H11A  144   4.393   5.274   6.412
    2SAPS  H11B  145   4.317   5.374   6.288
    2SAPS     P  146   4.482   5.603   6.327
    2SAPS   O13  147   4.348   5.664   6.333
    2SAPS   O14  148   4.593   5.677   6.391
    2SAPS   O12  149   4.482   5.458   6.388
    2SAPS   O11  150   4.523   5.573   6.178
    2SAPS    C1  151   4.474   5.650   6.068
    2SAPS    HA  152   4.474   5.759   6.089
    2SAPS    HB  153   4.542   5.636   5.982
    2SAPS    C2  154   4.332   5.606   6.021
    2SAPS    HS  155   4.260   5.628   6.102
    2SAPS   O21  156   4.339   5.464   5.998
    2SAPS   C21  157   4.227   5.406   5.962
    2SAPS   O22  158   4.115   5.449   5.976
    2SAPS   C22  159   4.264   5.275   5.891
    2SAPS   H2R  160   4.309   5.207   5.965
    2SAPS   H2S  161   4.169   5.231   5.853
    2SAPS    C3  162   4.286   5.684   5.893
    2SAPS    HX  163   4.294   5.793   5.916
    2SAPS    HY  164   4.179   5.662   5.871
    2SAPS   O31  165   4.369   5.649   5.781
    2SAPS   C31  166   4.361   5.729   5.675
    2SAPS   O32  167   4.284   5.821   5.661
    2SAPS   C32  168   4.475   5.691   5.581
    2SAPS   H2X  169   4.525   5.600   5.620
    2SAPS   H2Y  170   4.546   5.776   5.588
    2SAPS   C23  171   4.361   5.302   5.774
    2SAPS   H3R  172   4.446   5.365   5.808
    2SAPS   H3S  173   4.307   5.361   5.696
    2SAPS   C24  174   4.419   5.174   5.712
    2SAPS   H4R  175   4.336   5.106   5.684
    2SAPS   H4S  176   4.480   5.121   5.789
    2SAPS   C25  177   4.504   5.209   5.593
    2SAPS   H5R  178   4.613   5.212   5.610
    2SAPS   C26  179   4.456   5.240   5.471
    2SAPS   H6R  180   4.527   5.266   5.390
    2SAPS   C27  181   4.310   5.244   5.432
    2SAPS   H7R  182   4.284   5.349   5.408
    2SAPS   H7S  183   4.244   5.218   5.517
    2SAPS   C28  184   4.279   5.152   5.317
    2SAPS   H8R  185   4.257   5.048   5.345
    2SAPS   C29  186   4.277   5.186   5.187
    2SAPS   H9R  187   4.254   5.108   5.112
    2SAPS  C210  188   4.307   5.322   5.131
    2SAPS  H10R  189   4.403   5.314   5.076
    2SAPS  H10S  190   4.325   5.398   5.210
    2SAPS  C211  191   4.204   5.375   5.034
    2SAPS  H11R  192   4.119   5.309   5.014
    2SAPS  C212  193   4.210   5.495   4.974
    2SAPS  H12R  194   4.131   5.524   4.903
    2SAPS  C213  195   4.317   5.599   4.991
    2SAPS  H13R  196   4.355   5.597   5.096
    2SAPS  H13S  197   4.273   5.701   4.980
    2SAPS  C214  198   4.431   5.584   4.894
    2SAPS  H14R  199   4.520   5.535   4.935
    2SAPS  C215  200   4.431   5.621   4.765
    2SAPS  H15R  201   4.520   5.602   4.702
    2SAPS  C216  202   4.314   5.684   4.695
    2SAPS  H16R  203   4.346   5.761   4.622
    2SAPS  H16S  204   4.248   5.737   4.768
    2SAPS  C217  205   4.230   5.576   4.626
    2SAPS  H17R  206   4.125   5.612   4.630
    2SAPS  H17S  207   4.232   5.481   4.683
    2SAPS  C218  208   4.270   5.548   4.481
    2SAPS  H18R  209   4.214   5.459   4.446
    2SAPS  H18S  210   4.378   5.525   4.478
    2SAPS  C219  211   4.244   5.663   4.382
    2SAPS  H19R  212   4.305   5.751   4.410
    2SAPS  H19S  213   4.137   5.694   4.387
    2SAPS  C220  214   4.277   5.622   4.239
    2SAPS  H20R  215   4.382   5.587   4.231
    2SAPS  H20S  216   4.263   5.708   4.170
    2SAPS  H20T  217   4.209   5.540   4.206
    2SAPS   C33  218   4.444   5.667   5.431
    2SAPS   H3X  219   4.381   5.748   5.388
    2SAPS   H3Y  220   4.390   5.571   5.418
    2SAPS   C34  221   4.579   5.663   5.358
    2SAPS   H4X  222   4.648   5.604   5.423
    2SAPS   H4Y  223   4.620   5.767   5.352
    2SAPS   C35  224   4.586   5.600   5.220
    2SAPS   H5X  225   4.549   5.673   5.145
    2SAPS   H5Y  226   4.523   5.509   5.216
    2SAPS   C36  227   4.731   5.562   5.186
    2SAPS   H6X  228   4.767   5.487   5.259
    2SAPS   H6Y  229   4.794   5.653   5.199
    2SAPS   C37  230   4.752   5.509   5.044
    2SAPS   H7X  231   4.862   5.504   5.029
    2SAPS   H7Y  232   4.713   5.583   4.970
    2SAPS   C38  233   4.697   5.369   5.018
    2SAPS   H8X  234   4.589   5.369   5.042
    2SAPS   H8Y  235   4.745   5.296   5.087
    2SAPS   C39  236   4.717   5.323   4.873
    2SAPS   H9X  237   4.826   5.315   4.852
    2SAPS   H9Y  238   4.675   5.399   4.803
    2SAPS  C310  239   4.652   5.187   4.843
    2SAPS  H10X  240   4.683   5.115   4.921
    2SAPS  H10Y  241   4.691   5.149   4.746
    2SAPS  C311  242   4.498   5.194   4.836
    2SAPS  H11X  243   4.462   5.294   4.866
    2SAPS  H11Y  244   4.456   5.120   4.908
    2SAPS  C312  245   4.443   5.162   4.696
    2SAPS  H12X  246   4.333   5.148   4.703
    2SAPS  H12Y  247   4.489   5.067   4.662
    2SAPS  C313  248   4.473   5.271   4.593
    2SAPS  H13X  249   4.583   5.283   4.580
    2SAPS  H13Y  250   4.435   5.368   4.635
    2SAPS  C314  251   4.405   5.247   4.458
    2SAPS  H14X  252   4.418   5.338   4.395
    2SAPS  H14Y  253   4.296   5.236   4.475
    2SAPS  C315  254   4.455   5.125   4.379
    2SAPS  H15X  255   4.395   5.114   4.286
    2SAPS  H15Y  256   4.432   5.036   4.441
    2SAPS  C316  257   4.603   5.121   4.343
    2SAPS  H16X  258   4.637   5.015   4.340
    2SAPS  H16Y  259   4.665   5.173   4.419
    2SAPS  C317  260   4.628   5.181   4.204
    2SAPS  H17X  261   4.577   5.117   4.130
    2SAPS  H17Y  262   4.737   5.177   4.183
    2SAPS  C318  263   4.576   5.323   4.188
    2SAPS  H18X  264   4.465   5.327   4.186
    2SAPS  H18Y  265   4.614   5.369   4.094
    2SAPS  H18Z  266   4.606   5.384   4.276
    3SAPS     N  267   4.943   5.073   6.253
    3SAPS   HN1  268   4.967   5.042   6.157
    3SAPS   HN2  269   4.859   5.020   6.283
    3SAPS   HN3  270   4.925   5.175   6.260
    3SAPS   C12  271   5.061   5.036   6.337
    3SAPS  H12A  272   5.041   5.061   6.440
    3SAPS   C13  273   5.095   4.885   6.329
    3SAPS  O13A  274   5.038   4.819   6.238
    3SAPS  O13B  275   5.134   4.832   6.437
    3SAPS   C11  276   5.183   5.116   6.285
    3SAPS  H11A  277   5.158   5.224   6.282
    3SAPS  H11B  278   5.205   5.084   6.180
    3SAPS     P  279   5.437   5.153   6.323
    3SAPS   O13  280   5.404   5.260   6.227
    3SAPS   O14  281   5.506   5.193   6.448
    3SAPS   O12  282   5.297   5.095   6.369
    3SAPS   O11  283   5.513   5.031   6.258
    3SAPS    C1  284   5.445   4.917   6.206
    3SAPS    HA  285   5.493   4.825   6.246
    3SAPS    HB  286   5.338   4.910   6.236
    3SAPS    C2  287   5.451   4.906   6.051
    3SAPS    HS  288   5.555   4.874   6.028
    3SAPS   O21  289   5.420   5.030   5.984
    3SAPS   C21  290   5.447   5.020   5.853
    3SAPS   O22  291   5.500   4.922   5.803
    3SAPS   C22  292   5.388   5.138   5.775
    3SAPS   H2R  293   5.277   5.133   5.783
    3SAPS   H2S  294   5.419   5.231   5.827
    3SAPS    C3  295   5.351   4.795   6.009
    3SAPS    HX  296   5.344   4.720   6.091
    3SAPS    HY  297   5.398   4.747   5.921
    3SAPS   O31  298   5.219   4.848   5.980
    3SAPS   C31  299   5.153   4.773   5.894
    3SAPS   O32  300   5.193   4.667   5.848
    3SAPS   C32  301   5.020   4.835   5.857
    3SAPS   H2X  302   5.012   4.938   5.900
    3SAPS   H2Y  303   4.941   4.771   5.902
    3SAPS   C23  304   5.430   5.150   5.624
    3SAPS   H3R  305   5.528   5.202   5.620
    3SAPS   H3S  306   5.358   5.218   5.574
    3SAPS   C24  307   5.431   5.020   5.541
    3SAPS   H4R  308   5.336   4.967   5.561
    3SAPS   H4S  309   5.511   4.953   5.578
    3SAPS   C25  310   5.450   5.037   5.392
    3SAPS   H5R  311   5.467   5.140   5.356
    3SAPS   C26  312   5.446   4.934   5.306
    3SAPS   H6R  313   5.461   4.952   5.198
    3SAPS   C27  314   5.422   4.790   5.343
    3SAPS   H7R  315   5.484   4.764   5.431
    3SAPS   H7S  316   5.460   4.725   5.261
    3SAPS   C28  317   5.278   4.755   5.374
    3SAPS   H8R  318   5.262   4.719   5.477
    3SAPS   C29  319   5.170   4.762   5.292
    3SAPS   H9R  320   5.072   4.734   5.334
    3SAPS  C210  321   5.165   4.806   5.147
    3SAPS  H10R  322   5.234   4.892   5.132
    3SAPS  H10S  323   5.063   4.842   5.121
    3SAPS  C211  324   5.208   4.693   5.057
    3SAPS  H11R  325   5.287   4.632   5.101
    3SAPS  C212  326   5.166   4.658   4.933
    3SAPS  H12R  327   5.214   4.569   4.889
    3SAPS  C213  328   5.064   4.716   4.840
    3SAPS  H13R  329   4.996   4.787   4.892
    3SAPS  H13S  330   5.001   4.633   4.803
    3SAPS  C214  331   5.135   4.785   4.725
    3SAPS  H14R  332   5.158   4.890   4.751
    3SAPS  C215  333   5.171   4.743   4.602
    3SAPS  H15R  334   5.224   4.815   4.538
    3SAPS  C216  335   5.152   4.609   4.534
    3SAPS  H16R  336   5.164   4.621   4.424
    3SAPS  H16S  337   5.046   4.579   4.547
    3SAPS  C217  338   5.238   4.486   4.575
    3SAPS  H17R  339   5.172   4.398   4.583
    3SAPS  H17S  340   5.282   4.504   4.676
    3SAPS  C218  341   5.351   4.452   4.475
    3SAPS  H18R  342   5.397   4.549   4.446
    3SAPS  H18S  343   5.306   4.409   4.383
    3SAPS  C219  344   5.465   4.357   4.536
    3SAPS  H19R  345   5.531   4.408   4.463
    3SAPS  H19S  346   5.378   4.290   4.520
    3SAPS  C220  347   5.540   4.224   4.496
    3SAPS  H20R  348   5.516   4.143   4.568
    3SAPS  H20S  349   5.650   4.239   4.501
    3SAPS  H20T  350   5.514   4.191   4.393
    3SAPS   C33  351   5.005   4.837   5.704
    3SAPS   H3X  352   4.899   4.851   5.675
    3SAPS   H3Y  353   5.041   4.741   5.661
    3SAPS   C34  354   5.086   4.945   5.635
    3SAPS   H4X  355   5.153   4.892   5.564
    3SAPS   H4Y  356   5.151   4.999   5.707
    3SAPS   C35  357   5.003   5.042   5.552
    3SAPS   H5X  358   4.932   4.984   5.489
    3SAPS   H5Y  359   4.945   5.111   5.617
    3SAPS   C36  360   5.094   5.122   5.458
    3SAPS   H6X  361   5.166   5.053   5.409
    3SAPS   H6Y  362   5.154   5.194   5.518
    3SAPS   C37  363   5.019   5.196   5.348
    3SAPS   H7X  364   4.932   5.251   5.390
    3SAPS   H7Y  365   4.981   5.121   5.276
    3SAPS   C38  366   5.113   5.295   5.279
    3SAPS   H8X  367   5.213   5.248   5.266
    3SAPS   H8Y  368   5.128   5.382   5.347
    3SAPS   C39  369   5.060   5.344   5.144
    3SAPS   H9X  370   5.129   5.423   5.107
    3SAPS   H9Y  371   4.961   5.390   5.164
    3SAPS  C310  372   5.044   5.235   5.036
    3SAPS  H10X  373   5.021   5.284   4.939
    3SAPS  H10Y  374   4.957   5.171   5.062
    3SAPS  C311  375   5.167   5.145   5.017
    3SAPS  H11X  376   5.143   5.066   4.943
    3SAPS  H11Y  377   5.189   5.095   5.114
    3SAPS  C312  378   5.291   5.223   4.972
    3SAPS  H12X  379   5.310   5.307   5.042
    3SAPS  H12Y  380   5.272   5.267   4.872
    3SAPS  C313  381   5.418   5.137   4.969
    3SAPS  H13X  382   5.442   5.107   5.073
    3SAPS  H13Y  383   5.502   5.201   4.934
    3SAPS  C314  384   5.411   5.011   4.881
    3SAPS  H14X  385   5.340   4.939   4.926
    3SAPS  H14Y  386   5.511   4.962   4.881
    3SAPS  C315  387   5.370   5.036   4.734
    3SAPS  H15X  388   5.263   5.067   4.731
    3SAPS  H15Y  389   5.379   4.939   4.679
    3SAPS  C316  390   5.452   5.144   4.664
    3SAPS  H16X  391   5.560   5.129   4.686
    3SAPS  H16Y  392   5.422   5.241   4.709
    3SAPS  C317  393   5.434   5.153   4.512
    3SAPS  H17X  394   5.497   5.238   4.478
    3SAPS  H17Y  395   5.328   5.177   4.488
    3SAPS  C318  396   5.479   5.031   4.431
    3SAPS  H18X  397   5.585   5.008   4.453
    3SAPS  H18Y  398   5.469   5.051   4.322
    3SAPS  H18Z  399   5.417   4.942   4.456
    4SAPS     N  400   2.813   2.146   6.331
    4SAPS   HN1  401   2.815   2.178   6.430
    4SAPS   HN2  402   2.905   2.158   6.283
    4SAPS   HN3  403   2.735   2.195   6.281
    4SAPS   C12  404   2.778   2.002   6.346
    4SAPS  H12A  405   2.866   1.942   6.329
    4SAPS   C13  406   2.731   1.977   6.494
    4SAPS  O13A  407   2.730   2.079   6.570
    4SAPS  O13B  408   2.754   1.863   6.540
    4SAPS   C11  409   2.669   1.970   6.239
    4SAPS  H11A  410   2.699   2.017   6.143
    4SAPS  H11B  411   2.573   2.015   6.271
    4SAPS     P  412   2.526   1.765   6.155
    4SAPS   O13  413   2.525   1.625   6.200
    4SAPS   O14  414   2.411   1.853   6.192
    4SAPS   O12  415   2.658   1.830   6.215
    4SAPS   O11  416   2.549   1.774   5.998
    4SAPS    C1  417   2.545   1.896   5.922
    4SAPS    HA  418   2.556   1.985   5.987
    4SAPS    HB  419   2.629   1.897   5.849
    4SAPS    C2  420   2.412   1.915   5.842
    4SAPS    HS  421   2.331   1.868   5.902
    4SAPS   O21  422   2.421   1.850   5.713
    4SAPS   C21  423   2.307   1.851   5.643
    4SAPS   O22  424   2.200   1.892   5.685
    4SAPS   C22  425   2.327   1.787   5.505
    4SAPS   H2R  426   2.395   1.852   5.446
    4SAPS   H2S  427   2.376   1.689   5.520
    4SAPS    C3  428   2.380   2.068   5.829
    4SAPS    HX  429   2.375   2.107   5.933
    4SAPS    HY  430   2.279   2.085   5.787
    4SAPS   O31  431   2.483   2.141   5.759
    4SAPS   C31  432   2.465   2.149   5.627
    4SAPS   O32  433   2.369   2.107   5.566
    4SAPS   C32  434   2.582   2.216   5.558
    4SAPS   H2X  435   2.614   2.305   5.616
    4SAPS   H2Y  436   2.545   2.249   5.458
    4SAPS   C23  437   2.191   1.772   5.430
    4SAPS   H3R  438   2.161   1.872   5.391
    4SAPS   H3S  439   2.113   1.744   5.504
    4SAPS   C24  440   2.183   1.663   5.320
    4SAPS   H4R  441   2.111   1.586   5.354
    4SAPS   H4S  442   2.280   1.609   5.314
    4SAPS   C25  443   2.141   1.713   5.184
    4SAPS   H5R  444   2.048   1.669   5.144
    4SAPS   C26  445   2.209   1.801   5.107
    4SAPS   H6R  446   2.171   1.826   5.007
    4SAPS   C27  447   2.341   1.866   5.142
    4SAPS   H7R  448   2.331   1.932   5.231
    4SAPS   H7S  449   2.373   1.933   5.059
    4SAPS   C28  450   2.445   1.760   5.167
    4SAPS   H8R  451   2.453   1.726   5.271
    4SAPS   C29  452   2.528   1.706   5.078
    4SAPS   H9R  453   2.594   1.626   5.115
    4SAPS  C210  454   2.540   1.738   4.931
    4SAPS  H10R  455   2.649   1.731   4.909
    4SAPS  H10S  456   2.514   1.846   4.920
    4SAPS  C211  457   2.461   1.666   4.825
    4SAPS  H11R  458   2.355   1.648   4.849
    4SAPS  C212  459   2.511   1.620   4.708
    4SAPS  H12R  460   2.444   1.566   4.639
    4SAPS  C213  461   2.655   1.631   4.662
    4SAPS  H13R  462   2.708   1.538   4.690
    4SAPS  H13S  463   2.710   1.709   4.719
    4SAPS  C214  464   2.679   1.662   4.516
    4SAPS  H14R  465   2.620   1.745   4.476
    4SAPS  C215  466   2.767   1.599   4.435
    4SAPS  H15R  467   2.781   1.641   4.334
    4SAPS  C216  468   2.859   1.485   4.469
    4SAPS  H16R  469   2.819   1.422   4.551
    4SAPS  H16S  470   2.953   1.529   4.510
    4SAPS  C217  471   2.908   1.385   4.360
    4SAPS  H17R  472   2.872   1.284   4.385
    4SAPS  H17S  473   3.019   1.381   4.364
    4SAPS  C218  474   2.867   1.416   4.215
    4SAPS  H18R  475   2.924   1.349   4.147
    4SAPS  H18S  476   2.895   1.520   4.189
    4SAPS  C219  477   2.717   1.393   4.195
    4SAPS  H19R  478   2.672   1.371   4.294
    4SAPS  H19S  479   2.702   1.301   4.134
    4SAPS  C220  480   2.642   1.511   4.133
    4SAPS  H20R  481   2.687   1.609   4.162
    4SAPS  H20S  482   2.536   1.510   4.166
    4SAPS  H20T  483   2.644   1.505   4.022
    4SAPS   C33  484   2.696   2.114   5.539
    4SAPS   H3X  485   2.746   2.096   5.636
    4SAPS   H3Y  486   2.770   2.160   5.470
    4SAPS   C34  487   2.647   1.979   5.483
    4SAPS   H4X  488   2.592   1.995   5.388
    4SAPS   H4Y  489   2.576   1.933   5.555
    4SAPS   C35  490   2.758   1.875   5.464
    4SAPS   H5X  491   2.713   1.775   5.444
    4SAPS   H5Y  492   2.814   1.867   5.559
    4SAPS   C36  493   2.853   1.912   5.351
    4SAPS   H6X  494   2.948   1.857   5.366
    4SAPS   H6Y  495   2.877   2.020   5.360
    4SAPS   C37  496   2.798   1.886   5.210
    4SAPS   H7X  497   2.691   1.915   5.205
    4SAPS   H7Y  498   2.806   1.778   5.186
    4SAPS   C38  499   2.874   1.970   5.106
    4SAPS   H8X  500   2.983   1.945   5.113
    4SAPS   H8Y  501   2.861   2.076   5.136
    4SAPS   C39  502   2.833   1.955   4.960
    4SAPS   H9X  503   2.817   1.847   4.937
    4SAPS   H9Y  504   2.917   1.990   4.895
    4SAPS  C310  505   2.709   2.039   4.925
    4SAPS  H10X  506   2.730   2.147   4.940
    4SAPS  H10Y  507   2.628   2.011   4.995
    4SAPS  C311  508   2.662   2.016   4.780
    4SAPS  H11X  509   2.673   1.907   4.759
    4SAPS  H11Y  510   2.729   2.068   4.709
    4SAPS  C312  511   2.514   2.051   4.758
    4SAPS  H12X  512   2.460   2.044   4.855
    4SAPS  H12Y  513   2.469   1.974   4.693
    4SAPS  C313  514   2.489   2.191   4.699
    4SAPS  H13X  515   2.534   2.266   4.766
    4SAPS  H13Y  516   2.380   2.208   4.697
    4SAPS  C314  517   2.544   2.210   4.556
    4SAPS  H14X  518   2.654   2.198   4.556
    4SAPS  H14Y  519   2.521   2.314   4.523
    4SAPS  C315  520   2.482   2.111   4.456
    4SAPS  H15X  521   2.373   2.128   4.451
    4SAPS  H15Y  522   2.500   2.008   4.493
    4SAPS  C316  523   2.540   2.116   4.314
    4SAPS  H16X  524   2.651   2.110   4.319
    4SAPS  H16Y  525   2.513   2.212   4.265
    4SAPS  C317  526   2.487   1.998   4.230
    4SAPS  H17X  527   2.377   2.006   4.224
    4SAPS  H17Y  528   2.511   1.904   4.285
    4SAPS  C318  529   2.545   1.988   4.089
    4SAPS  H18X  530   2.516   2.077   4.030
    4SAPS  H18Y  531   2.505   1.898   4.037
    4SAPS  H18Z  532   2.655   1.980   4.092
    5SAPS     N  533   5.965   4.726   6.439
    5SAPS   HN1  534   5.864   4.712   6.419
    5SAPS   HN2  535   5.970   4.792   6.519
    5SAPS   HN3  536   6.014   4.763   6.355
    5SAPS   C12  537   6.027   4.596   6.481
    5SAPS  H12A  538   6.132   4.613   6.500
    5SAPS   C13  539   5.968   4.543   6.613
    5SAPS  O13A  540   5.902   4.621   6.687
    5SAPS  O13B  541   5.999   4.427   6.651
    5SAPS   C11  542   6.014   4.492   6.366
    5SAPS  H11A  543   5.912   4.496   6.322
    5SAPS  H11B  544   6.030   4.390   6.406
    5SAPS     P  545   6.110   4.463   6.123
    5SAPS   O13  546   6.241   4.400   6.094
    5SAPS   O14  547   5.992   4.374   6.111
    5SAPS   O12  548   6.115   4.519   6.271
    5SAPS   O11  549   6.090   4.598   6.041
    5SAPS    C1  550   6.037   4.713   6.111
    5SAPS    HA  551   5.942   4.685   6.162
    5SAPS    HB  552   6.109   4.750   6.187
    5SAPS    C2  553   5.998   4.835   6.020
    5SAPS    HS  554   5.908   4.882   6.065
    5SAPS   O21  555   5.969   4.790   5.888
    5SAPS   C21  556   5.874   4.700   5.878
    5SAPS   O22  557   5.788   4.677   5.962
    5SAPS   C22  558   5.888   4.628   5.745
    5SAPS   H2R  559   5.786   4.609   5.706
    5SAPS   H2S  560   5.941   4.694   5.672
    5SAPS    C3  561   6.107   4.947   6.012
    5SAPS    HX  562   6.146   4.972   6.113
    5SAPS    HY  563   6.059   5.041   5.976
    5SAPS   O31  564   6.211   4.913   5.919
    5SAPS   C31  565   6.299   4.830   5.970
    5SAPS   O32  566   6.323   4.815   6.089
    5SAPS   C32  567   6.360   4.744   5.861
    5SAPS   H2X  568   6.372   4.646   5.912
    5SAPS   H2Y  569   6.459   4.784   5.831
    5SAPS   C23  570   5.969   4.497   5.760
    5SAPS   H3R  571   5.920   4.431   5.835
    5SAPS   H3S  572   6.070   4.520   5.799
    5SAPS   C24  573   5.986   4.423   5.627
    5SAPS   H4R  574   6.053   4.337   5.641
    5SAPS   H4S  575   6.037   4.492   5.556
    5SAPS   C25  576   5.850   4.379   5.578
    5SAPS   H5R  577   5.793   4.317   5.649
    5SAPS   C26  578   5.794   4.413   5.461
    5SAPS   H6R  579   5.691   4.380   5.439
    5SAPS   C27  580   5.856   4.500   5.356
    5SAPS   H7R  581   5.828   4.458   5.257
    5SAPS   H7S  582   5.967   4.496   5.359
    5SAPS   C28  583   5.810   4.643   5.372
    5SAPS   H8R  584   5.776   4.674   5.472
    5SAPS   C29  585   5.811   4.734   5.274
    5SAPS   H9R  586   5.778   4.837   5.295
    5SAPS  C210  587   5.858   4.705   5.134
    5SAPS  H10R  588   5.862   4.596   5.112
    5SAPS  H10S  589   5.963   4.741   5.124
    5SAPS  C211  590   5.782   4.775   5.027
    5SAPS  H11R  591   5.707   4.850   5.057
    5SAPS  C212  592   5.800   4.747   4.898
    5SAPS  H12R  593   5.745   4.808   4.824
    5SAPS  C213  594   5.894   4.644   4.843
    5SAPS  H13R  595   5.963   4.605   4.921
    5SAPS  H13S  596   5.957   4.703   4.772
    5SAPS  C214  597   5.833   4.529   4.766
    5SAPS  H14R  598   5.777   4.561   4.677
    5SAPS  C215  599   5.831   4.397   4.795
    5SAPS  H15R  600   5.778   4.331   4.725
    5SAPS  C216  601   5.890   4.325   4.914
    5SAPS  H16R  602   5.811   4.293   4.985
    5SAPS  H16S  603   5.958   4.390   4.974
    5SAPS  C217  604   5.963   4.198   4.867
    5SAPS  H17R  605   6.030   4.161   4.947
    5SAPS  H17S  606   6.029   4.222   4.781
    5SAPS  C218  607   5.864   4.086   4.831
    5SAPS  H18R  608   5.764   4.127   4.806
    5SAPS  H18S  609   5.852   4.020   4.919
    5SAPS  C219  610   5.912   4.003   4.711
    5SAPS  H19R  611   5.855   3.908   4.708
    5SAPS  H19S  612   6.019   3.978   4.730
    5SAPS  C220  613   5.895   4.075   4.576
    5SAPS  H20R  614   5.932   4.012   4.493
    5SAPS  H20S  615   5.949   4.172   4.575
    5SAPS  H20T  616   5.787   4.093   4.558
    5SAPS   C33  617   6.270   4.714   5.740
    5SAPS   H3X  618   6.163   4.713   5.770
    5SAPS   H3Y  619   6.293   4.611   5.707
    5SAPS   C34  620   6.290   4.805   5.620
    5SAPS   H4X  621   6.398   4.824   5.602
    5SAPS   H4Y  622   6.241   4.903   5.639
    5SAPS   C35  623   6.229   4.737   5.498
    5SAPS   H5X  624   6.123   4.710   5.521
    5SAPS   H5Y  625   6.283   4.642   5.479
    5SAPS   C36  626   6.232   4.823   5.374
    5SAPS   H6X  627   6.334   4.862   5.354
    5SAPS   H6Y  628   6.163   4.908   5.391
    5SAPS   C37  629   6.179   4.746   5.253
    5SAPS   H7X  630   6.144   4.820   5.177
    5SAPS   H7Y  631   6.092   4.687   5.286
    5SAPS   C38  632   6.279   4.653   5.185
    5SAPS   H8X  633   6.319   4.579   5.258
    5SAPS   H8Y  634   6.364   4.713   5.145
    5SAPS   C39  635   6.208   4.581   5.071
    5SAPS   H9X  636   6.153   4.660   5.015
    5SAPS   H9Y  637   6.131   4.512   5.112
    5SAPS  C310  638   6.299   4.506   4.974
    5SAPS  H10X  639   6.341   4.416   5.023
    5SAPS  H10Y  640   6.385   4.571   4.946
    5SAPS  C311  641   6.223   4.467   4.847
    5SAPS  H11X  642   6.125   4.423   4.873
    5SAPS  H11Y  643   6.279   4.389   4.792
    5SAPS  C312  644   6.202   4.590   4.758
    5SAPS  H12X  645   6.304   4.632   4.752
    5SAPS  H12Y  646   6.144   4.668   4.811
    5SAPS  C313  647   6.141   4.564   4.618
    5SAPS  H13X  648   6.057   4.491   4.625
    5SAPS  H13Y  649   6.221   4.512   4.559
    5SAPS  C314  650   6.092   4.690   4.545
    5SAPS  H14X  651   6.149   4.780   4.575
    5SAPS  H14Y  652   5.988   4.713   4.578
    5SAPS  C315  653   6.085   4.690   4.391
    5SAPS  H15X  654   6.080   4.794   4.354
    5SAPS  H15Y  655   5.987   4.645   4.365
    5SAPS  C316  656   6.191   4.613   4.310
    5SAPS  H16X  657   6.247   4.538   4.369
    5SAPS  H16Y  658   6.266   4.686   4.270
    5SAPS  C317  659   6.124   4.539   4.194
    5SAPS  H17X  660   6.059   4.459   4.237
    5SAPS  H17Y  661   6.201   4.488   4.132
    5SAPS  C318  662   6.040   4.631   4.107
    5SAPS  H18X  663   5.962   4.687   4.164
    5SAPS  H18Y  664   5.986   4.575   4.027
    5SAPS  H18Z  665   6.108   4.706   4.061
    6SAPS     N  666   1.844   5.283   6.312
    6SAPS   HN1  667   1.882   5.310   6.405
    6SAPS   HN2  668   1.827   5.180   6.310
    6SAPS   HN3  669   1.908   5.315   6.236
    6SAPS   C12  670   1.709   5.346   6.300
    6SAPS  H12A  671   1.671   5.327   6.201
    6SAPS   C13  672   1.609   5.281   6.400
    6SAPS  O13A  673   1.647   5.178   6.463
    6SAPS  O13B  674   1.490   5.320   6.402
    6SAPS   C11  675   1.727   5.500   6.317
    6SAPS  H11A  676   1.823   5.529   6.270
    6SAPS  H11B  677   1.735   5.525   6.425
    6SAPS     P  678   1.638   5.721   6.212
    6SAPS   O13  679   1.628   5.810   6.330
    6SAPS   O14  680   1.765   5.729   6.136
    6SAPS   O12  681   1.618   5.571   6.258
    6SAPS   O11  682   1.517   5.756   6.116
    6SAPS    C1  683   1.411   5.664   6.085
    6SAPS    HA  684   1.425   5.564   6.132
    6SAPS    HB  685   1.315   5.704   6.125
    6SAPS    C2  686   1.392   5.640   5.932
    6SAPS    HS  687   1.315   5.562   5.919
    6SAPS   O21  688   1.517   5.601   5.871
    6SAPS   C21  689   1.549   5.475   5.888
    6SAPS   O22  690   1.480   5.390   5.942
    6SAPS   C22  691   1.685   5.444   5.825
    6SAPS   H2R  692   1.731   5.368   5.891
    6SAPS   H2S  693   1.666   5.396   5.726
    6SAPS    C3  694   1.339   5.766   5.857
    6SAPS    HX  695   1.409   5.849   5.880
    6SAPS    HY  696   1.239   5.795   5.896
    6SAPS   O31  697   1.337   5.747   5.714
    6SAPS   C31  698   1.242   5.667   5.666
    6SAPS   O32  699   1.145   5.626   5.728
    6SAPS   C32  700   1.279   5.629   5.522
    6SAPS   H2X  701   1.371   5.566   5.531
    6SAPS   H2Y  702   1.302   5.723   5.468
    6SAPS   C23  703   1.783   5.563   5.810
    6SAPS   H3R  704   1.885   5.521   5.825
    6SAPS   H3S  705   1.770   5.639   5.890
    6SAPS   C24  706   1.783   5.627   5.670
    6SAPS   H4R  707   1.744   5.553   5.596
    6SAPS   H4S  708   1.890   5.641   5.641
    6SAPS   C25  709   1.721   5.763   5.655
    6SAPS   H5R  710   1.745   5.836   5.733
    6SAPS   C26  711   1.637   5.799   5.556
    6SAPS   H6R  712   1.595   5.901   5.556
    6SAPS   C27  713   1.589   5.710   5.444
    6SAPS   H7R  714   1.502   5.759   5.396
    6SAPS   H7S  715   1.550   5.619   5.495
    6SAPS   C28  716   1.679   5.654   5.338
    6SAPS   H8R  717   1.724   5.557   5.363
    6SAPS   C29  718   1.711   5.709   5.220
    6SAPS   H9R  719   1.770   5.647   5.151
    6SAPS  C210  720   1.665   5.841   5.166
    6SAPS  H10R  721   1.704   5.922   5.231
    6SAPS  H10S  722   1.554   5.848   5.170
    6SAPS  C211  723   1.717   5.860   5.026
    6SAPS  H11R  724   1.811   5.916   5.017
    6SAPS  C212  725   1.659   5.812   4.915
    6SAPS  H12R  726   1.706   5.831   4.818
    6SAPS  C213  727   1.530   5.733   4.912
    6SAPS  H13R  728   1.453   5.784   4.974
    6SAPS  H13S  729   1.545   5.634   4.959
    6SAPS  C214  730   1.477   5.714   4.772
    6SAPS  H14R  731   1.484   5.612   4.733
    6SAPS  C215  732   1.423   5.810   4.694
    6SAPS  H15R  733   1.391   5.784   4.592
    6SAPS  C216  734   1.405   5.955   4.731
    6SAPS  H16R  735   1.382   5.966   4.839
    6SAPS  H16S  736   1.316   5.995   4.677
    6SAPS  C217  737   1.525   6.048   4.701
    6SAPS  H17R  738   1.603   6.034   4.778
    6SAPS  H17S  739   1.490   6.154   4.710
    6SAPS  C218  740   1.589   6.028   4.563
    6SAPS  H18R  741   1.631   5.926   4.557
    6SAPS  H18S  742   1.674   6.099   4.553
    6SAPS  C219  743   1.492   6.050   4.446
    6SAPS  H19R  744   1.448   6.151   4.453
    6SAPS  H19S  745   1.409   5.977   4.454
    6SAPS  C220  746   1.561   6.032   4.311
    6SAPS  H20R  747   1.613   5.933   4.310
    6SAPS  H20S  748   1.639   6.109   4.295
    6SAPS  H20T  749   1.488   6.036   4.228
    6SAPS   C33  750   1.177   5.544   5.443
    6SAPS   H3X  751   1.074   5.579   5.465
    6SAPS   H3Y  752   1.184   5.440   5.479
    6SAPS   C34  753   1.197   5.548   5.290
    6SAPS   H4X  754   1.159   5.645   5.252
    6SAPS   H4Y  755   1.132   5.469   5.245
    6SAPS   C35  756   1.340   5.529   5.234
    6SAPS   H5X  757   1.398   5.623   5.246
    6SAPS   H5Y  758   1.331   5.513   5.124
    6SAPS   C36  759   1.421   5.413   5.294
    6SAPS   H6X  760   1.352   5.351   5.355
    6SAPS   H6Y  761   1.498   5.450   5.364
    6SAPS   C37  762   1.486   5.319   5.191
    6SAPS   H7X  763   1.414   5.292   5.111
    6SAPS   H7Y  764   1.512   5.226   5.247
    6SAPS   C38  765   1.618   5.369   5.129
    6SAPS   H8X  766   1.683   5.404   5.212
    6SAPS   H8Y  767   1.598   5.456   5.062
    6SAPS   C39  768   1.695   5.259   5.054
    6SAPS   H9X  769   1.703   5.171   5.121
    6SAPS   H9Y  770   1.799   5.293   5.037
    6SAPS  C310  771   1.632   5.216   4.921
    6SAPS  H10X  772   1.525   5.191   4.936
    6SAPS  H10Y  773   1.683   5.123   4.887
    6SAPS  C311  774   1.646   5.321   4.809
    6SAPS  H11X  775   1.593   5.414   4.838
    6SAPS  H11Y  776   1.595   5.280   4.719
    6SAPS  C312  777   1.792   5.353   4.776
    6SAPS  H12X  778   1.846   5.258   4.758
    6SAPS  H12Y  779   1.840   5.404   4.863
    6SAPS  C313  780   1.811   5.442   4.653
    6SAPS  H13X  781   1.919   5.452   4.633
    6SAPS  H13Y  782   1.771   5.544   4.672
    6SAPS  C314  783   1.742   5.383   4.530
    6SAPS  H14X  784   1.634   5.408   4.532
    6SAPS  H14Y  785   1.751   5.273   4.532
    6SAPS  C315  786   1.802   5.433   4.399
    6SAPS  H15X  787   1.908   5.399   4.391
    6SAPS  H15Y  788   1.803   5.544   4.398
    6SAPS  C316  789   1.722   5.382   4.280
    6SAPS  H16X  790   1.619   5.421   4.286
    6SAPS  H16Y  791   1.717   5.271   4.284
    6SAPS  C317  792   1.785   5.425   4.149
    6SAPS  H17X  793   1.884   5.376   4.139
    6SAPS  H17Y  794   1.804   5.534   4.152
    6SAPS  C318  795   1.696   5.390   4.031
    6SAPS  H18X  796   1.603   5.451   4.030
    6SAPS  H18Y  797   1.664   5.284   4.038
    6SAPS  H18Z  798   1.749   5.407   3.934
    7SAPS     N  799   2.974   6.892   6.460
    7SAPS   HN1  800   3.050   6.824   6.482
    7SAPS   HN2  801   2.900   6.885   6.533
    7SAPS   HN3  802   2.932   6.872   6.367
    7SAPS   C12  803   3.032   7.029   6.446
    7SAPS  H12A  804   2.953   7.100   6.467
    7SAPS   C13  805   3.150   7.060   6.540
    7SAPS  O13A  806   3.184   6.975   6.628
    7SAPS  O13B  807   3.208   7.171   6.530
    7SAPS   C11  808   3.073   7.044   6.297
    7SAPS  H11A  809   3.162   6.982   6.276
    7SAPS  H11B  810   3.099   7.150   6.277
    7SAPS     P  811   2.967   7.010   6.059
    7SAPS   O13  812   3.094   6.947   6.016
    7SAPS   O14  813   2.838   6.953   6.014
    7SAPS   O12  814   2.963   7.002   6.217
    7SAPS   O11  815   2.971   7.166   6.034
    7SAPS    C1  816   2.887   7.254   6.109
    7SAPS    HA  817   2.813   7.199   6.171
    7SAPS    HB  818   2.949   0.011   6.179
    7SAPS    C2  819   2.803   0.050   6.022
    7SAPS    HS  820   2.706   0.063   6.075
    7SAPS   O21  821   2.786   7.303   5.888
    7SAPS   C21  822   2.664   7.265   5.857
    7SAPS   O22  823   2.568   7.265   5.935
    7SAPS   C22  824   2.651   7.223   5.711
    7SAPS   H2R  825   2.644   7.112   5.710
    7SAPS   H2S  826   2.556   7.266   5.673
    7SAPS    C3  827   2.866   0.192   6.019
    7SAPS    HX  828   2.853   0.236   6.120
    7SAPS    HY  829   2.807   0.255   5.949
    7SAPS   O31  830   3.006   0.190   5.988
    7SAPS   C31  831   3.032   0.191   5.858
    7SAPS   O32  832   2.951   0.209   5.769
    7SAPS   C32  833   3.183   0.172   5.839
    7SAPS   H2X  834   3.215   0.085   5.901
    7SAPS   H2Y  835   3.233   0.264   5.875
    7SAPS   C23  836   2.767   7.268   5.617
    7SAPS   H3R  837   2.859   7.213   5.645
    7SAPS   H3S  838   2.788   0.073   5.631
    7SAPS   C24  839   2.737   7.245   5.467
    7SAPS   H4R  840   2.827   7.265   5.406
    7SAPS   H4S  841   2.658   0.012   5.434
    7SAPS   C25  842   2.690   7.104   5.447
    7SAPS   H5R  843   2.584   7.088   5.470
    7SAPS   C26  844   2.762   6.999   5.405
    7SAPS   H6R  845   2.713   6.900   5.413
    7SAPS   C27  846   2.907   6.991   5.366
    7SAPS   H7R  847   2.971   7.033   5.446
    7SAPS   H7S  848   2.923   7.054   5.276
    7SAPS   C28  849   2.948   6.848   5.338
    7SAPS   H8R  850   3.002   6.798   5.420
    7SAPS   C29  851   2.921   6.776   5.227
    7SAPS   H9R  852   2.957   6.672   5.221
    7SAPS  C210  853   2.845   6.826   5.105
    7SAPS  H10R  854   2.893   6.919   5.069
    7SAPS  H10S  855   2.743   6.858   5.134
    7SAPS  C211  856   2.838   6.725   4.993
    7SAPS  H11R  857   2.745   6.667   4.982
    7SAPS  C212  858   2.937   6.703   4.904
    7SAPS  H12R  859   2.924   6.630   4.823
    7SAPS  C213  860   3.065   6.779   4.909
    7SAPS  H13R  861   3.090   6.806   5.013
    7SAPS  H13S  862   3.047   6.876   4.856
    7SAPS  C214  863   3.185   6.710   4.852
    7SAPS  H14R  864   3.231   6.636   4.920
    7SAPS  C215  865   3.246   6.741   4.736
    7SAPS  H15R  866   3.337   6.689   4.705
    7SAPS  C216  867   3.198   6.853   4.647
    7SAPS  H16R  868   3.208   6.949   4.702
    7SAPS  H16S  869   3.089   6.843   4.627
    7SAPS  C217  870   3.271   6.866   4.513
    7SAPS  H17R  871   3.253   6.777   4.448
    7SAPS  H17S  872   3.380   6.871   4.531
    7SAPS  C218  873   3.226   6.994   4.441
    7SAPS  H18R  874   3.172   7.058   4.513
    7SAPS  H18S  875   3.155   6.968   4.359
    7SAPS  C219  876   3.338   7.079   4.381
    7SAPS  H19R  877   3.393   7.019   4.305
    7SAPS  H19S  878   3.410   7.109   4.459
    7SAPS  C220  879   3.279   7.204   4.316
    7SAPS  H20R  880   3.245   7.276   4.394
    7SAPS  H20S  881   3.190   7.176   4.255
    7SAPS  H20T  882   3.353   7.255   4.250
    7SAPS   C33  883   3.217   0.147   5.691
    7SAPS   H3X  884   3.327   0.148   5.677
    7SAPS   H3Y  885   3.176   0.231   5.630
    7SAPS   C34  886   3.161   0.013   5.642
    7SAPS   H4X  887   3.056   0.001   5.675
    7SAPS   H4Y  888   3.219   7.234   5.690
    7SAPS   C35  889   3.164   7.300   5.490
    7SAPS   H5X  890   3.128   7.197   5.468
    7SAPS   H5Y  891   3.269   0.003   5.454
    7SAPS   C36  892   3.077   0.096   5.412
    7SAPS   H6X  893   3.119   0.199   5.420
    7SAPS   H6Y  894   2.975   0.099   5.456
    7SAPS   C37  895   3.073   0.050   5.266
    7SAPS   H7X  896   3.051   7.245   5.271
    7SAPS   H7Y  897   3.174   0.065   5.223
    7SAPS   C38  898   2.970   0.107   5.167
    7SAPS   H8X  899   3.005   0.204   5.126
    7SAPS   H8Y  900   2.873   0.123   5.219
    7SAPS   C39  901   2.950   0.006   5.052
    7SAPS   H9X  902   2.870   7.238   5.080
    7SAPS   H9Y  903   3.044   7.251   5.045
    7SAPS  C310  904   2.928   0.061   4.911
    7SAPS  H10X  905   3.020   0.113   4.876
    7SAPS  H10Y  906   2.846   0.136   4.911
    7SAPS  C311  907   2.893   7.251   4.814
    7SAPS  H11X  908   2.806   7.195   4.855
    7SAPS  H11Y  909   2.977   7.179   4.808
    7SAPS  C312  910   2.857   7.299   4.672
    7SAPS  H12X  911   2.950   0.030   4.621
    7SAPS  H12Y  912   2.789   0.082   4.682
    7SAPS  C313  913   2.787   7.193   4.586
    7SAPS  H13X  914   2.756   7.239   4.490
    7SAPS  H13Y  915   2.694   7.159   4.638
    7SAPS  C314  916   2.867   7.066   4.558
    7SAPS  H14X  917   2.891   7.014   4.653
    7SAPS  H14Y  918   2.963   7.095   4.509
    7SAPS  C315  919   2.791   6.971   4.465
    7SAPS  H15X  920   2.768   7.025   4.371
    7SAPS  H15Y  921   2.694   6.940   4.510
    7SAPS  C316  922   2.873   6.847   4.430
    7SAPS  H16X  923   2.979   6.878   4.419
    7SAPS  H16Y  924   2.842   6.806   4.331
    7SAPS  C317  925   2.867   6.735   4.534
    7SAPS  H17X  926   2.763   6.695   4.541
    7SAPS  H17Y  927   2.890   6.778   4.634
    7SAPS  C318  928   2.965   6.622   4.503
    7SAPS  H18X  929   3.067   6.663   4.486
    7SAPS  H18Y  930   2.935   6.569   4.410
    7SAPS  H18Z  931   2.970   6.549   4.587
    8SAPS     N  932   2.451   7.241   6.179
    8SAPS   HN1  933   2.497   7.274   6.092
    8SAPS   HN2  934   2.510   7.168   6.226
    8SAPS   HN3  935   2.361   7.195   6.157
    8SAPS   C12  936   2.428   0.042   6.284
    8SAPS  H12A  937   2.348   0.108   6.253
    8SAPS   C13  938   2.390   7.276   6.416
    8SAPS  O13A  939   2.425   7.156   6.432
    8SAPS  O13B  940   2.324   0.036   6.502
    8SAPS   C11  941   2.561   0.122   6.305
    8SAPS  H11A  942   2.601   0.148   6.204
    8SAPS  H11B  943   2.637   0.056   6.353
    8SAPS     P  944   2.534   0.385   6.322
    8SAPS   O13  945   2.399   0.438   6.349
    8SAPS   O14  946   2.652   0.464   6.366
    8SAPS   O12  947   2.544   0.239   6.385
    8SAPS   O11  948   2.546   0.358   6.166
    8SAPS    C1  949   2.606   0.454   6.078
    8SAPS    HA  950   2.636   0.547   6.129
    8SAPS    HB  951   2.696   0.410   6.031
    8SAPS    C2  952   2.509   0.494   5.964
    8SAPS    HS  953   2.425   0.547   6.014
    8SAPS   O21  954   2.464   0.377   5.892
    8SAPS   C21  955   2.335   0.371   5.863
    8SAPS   O22  956   2.246   0.437   5.914
    8SAPS   C22  957   2.312   0.263   5.755
    8SAPS   H2R  958   2.403   0.254   5.692
    8SAPS   H2S  959   2.298   0.168   5.811
    8SAPS    C3  960   2.578   0.596   5.869
    8SAPS    HX  961   2.636   0.667   5.932
    8SAPS    HY  962   2.500   0.658   5.819
    8SAPS   O31  963   2.668   0.538   5.771
    8SAPS   C31  964   2.607   0.499   5.659
    8SAPS   O32  965   2.488   0.489   5.642
    8SAPS   C32  966   2.706   0.478   5.548
    8SAPS   H2X  967   2.779   0.401   5.582
    8SAPS   H2Y  968   2.757   0.575   5.531
    8SAPS   C23  969   2.186   0.290   5.668
    8SAPS   H3R  970   2.110   0.339   5.731
    8SAPS   H3S  971   2.145   0.192   5.635
    8SAPS   C24  972   2.208   0.376   5.541
    8SAPS   H4R  973   2.255   0.472   5.570
    8SAPS   H4S  974   2.109   0.403   5.499
    8SAPS   C25  975   2.292   0.309   5.435
    8SAPS   H5R  976   2.395   0.287   5.469
    8SAPS   C26  977   2.256   0.271   5.311
    8SAPS   H6R  978   2.329   0.217   5.248
    8SAPS   C27  979   2.122   0.285   5.245
    8SAPS   H7R  980   2.046   0.296   5.325
    8SAPS   H7S  981   2.097   0.189   5.195
    8SAPS   C28  982   2.099   0.397   5.147
    8SAPS   H8R  983   2.028   0.474   5.183
    8SAPS   C29  984   2.153   0.415   5.025
    8SAPS   H9R  985   2.127   0.504   4.966
    8SAPS  C210  986   2.253   0.327   4.956
    8SAPS  H10R  987   2.228   0.319   4.848
    8SAPS  H10S  988   2.247   0.224   4.997
    8SAPS  C211  989   2.389   0.387   4.981
    8SAPS  H11R  990   2.423   0.379   5.085
    8SAPS  C212  991   2.469   0.450   4.894
    8SAPS  H12R  992   2.566   0.488   4.928
    8SAPS  C213  993   2.440   0.477   4.748
    8SAPS  H13R  994   2.357   0.413   4.711
    8SAPS  H13S  995   2.529   0.448   4.688
    8SAPS  C214  996   2.407   0.622   4.727
    8SAPS  H14R  997   2.391   0.684   4.816
    8SAPS  C215  998   2.391   0.678   4.606
    8SAPS  H15R  999   2.365   0.784   4.600
    8SAPS  C216 1000   2.404   0.605   4.475
    8SAPS  H16R 1001   2.414   0.495   4.490
    8SAPS  H16S 1002   2.495   0.638   4.420
    8SAPS  C217 1003   2.281   0.628   4.385
    8SAPS  H17R 1004   2.296   0.723   4.330
    8SAPS  H17S 1005   2.188   0.638   4.445
    8SAPS  C218 1006   2.260   0.513   4.286
    8SAPS  H18R 1007   2.358   0.472   4.254
    8SAPS  H18S 1008   2.208   0.553   4.197
    8SAPS  C219 1009   2.166   0.403   4.337
    8SAPS  H19R 1010   2.188   0.382   4.444
    8SAPS  H19S 1011   2.186   0.310   4.280
    8SAPS  C220 1012   2.019   0.441   4.317
    8SAPS  H20R 1013   1.996   0.451   4.209
    8SAPS  H20S 1014   1.998   0.538   4.365
    8SAPS  H20T 1015   1.951   0.364   4.360
    8SAPS   C33 1016   2.638   0.431   5.418
    8SAPS   H3X 1017   2.567   0.508   5.380
    8SAPS   H3Y 1018   2.582   0.337   5.437
    8SAPS   C34 1019   2.745   0.402   5.314
    8SAPS   H4X 1020   2.810   0.324   5.359
    8SAPS   H4Y 1021   2.805   0.494   5.298
    8SAPS   C35 1022   2.698   0.350   5.179
    8SAPS   H5X 1023   2.788   0.333   5.115
    8SAPS   H5Y 1024   2.636   0.427   5.129
    8SAPS   C36 1025   2.621   0.218   5.189
    8SAPS   H6X 1026   2.518   0.243   5.223
    8SAPS   H6Y 1027   2.666   0.152   5.266
    8SAPS   C37 1028   2.618   0.143   5.055
    8SAPS   H7X 1029   2.701   0.070   5.051
    8SAPS   H7Y 1030   2.635   0.218   4.975
    8SAPS   C38 1031   2.488   0.067   5.025
    8SAPS   H8X 1032   2.406   0.115   5.082
    8SAPS   H8Y 1033   2.496   7.266   5.060
    8SAPS   C39 1034   2.451   0.073   4.876
    8SAPS   H9X 1035   2.492   0.166   4.830
    8SAPS   H9Y 1036   2.341   0.081   4.867
    8SAPS  C310 1037   2.498   7.255   4.796
    8SAPS  H10X 1038   2.470   7.161   4.847
    8SAPS  H10Y 1039   2.609   7.260   4.793
    8SAPS  C311 1040   2.441   7.252   4.653
    8SAPS  H11X 1041   2.332   7.235   4.654
    8SAPS  H11Y 1042   2.485   7.165   4.599
    8SAPS  C312 1043   2.468   0.076   4.572
    8SAPS  H12X 1044   2.577   0.094   4.569
    8SAPS  H12Y 1045   2.420   0.164   4.621
    8SAPS  C313 1046   2.414   0.062   4.430
    8SAPS  H13X 1047   2.303   0.059   4.432
    8SAPS  H13Y 1048   2.449   7.268   4.391
    8SAPS  C314 1049   2.462   0.175   4.338
    8SAPS  H14X 1050   2.572   0.180   4.342
    8SAPS  H14Y 1051   2.422   0.272   4.375
    8SAPS  C315 1052   2.419   0.153   4.192
    8SAPS  H15X 1053   2.458   0.237   4.131
    8SAPS  H15Y 1054   2.308   0.154   4.185
    8SAPS  C316 1055   2.471   0.020   4.135
    8SAPS  H16X 1056   2.415   7.239   4.180
    8SAPS  H16Y 1057   2.578   0.008   4.163
    8SAPS  C317 1058   2.459   0.010   3.984
    8SAPS  H17X 1059   2.504   7.218   3.948
    8SAPS  H17Y 1060   2.520   0.093   3.941
    8SAPS  C318 1061   2.317   0.023   3.931
    8SAPS  H18X 1062   2.272   0.120   3.960
    8SAPS  H18Y 1063   2.253   7.245   3.971
    8SAPS  H18Z 1064   2.316   0.017   3.820
    9SAPS     N 1065   6.687   6.527   6.542
    9SAPS   HN1 1066   6.788   6.550   6.542
    9SAPS   HN2 1067   6.628   6.611   6.523
    9SAPS   HN3 1068   6.662   6.484   6.633
    9SAPS   C12 1069   6.662   6.422   6.439
    9SAPS  H12A 1070   6.737   6.430   6.362
    9SAPS   C13 1071   6.673   6.280   6.500
    9SAPS  O13A 1072   6.697   6.266   6.623
    9SAPS  O13B 1073   6.658   6.183   6.422
    9SAPS   C11 1074   6.523   6.446   6.376
    9SAPS  H11A 1075   6.447   6.456   6.457
    9SAPS  H11B 1076   6.494   6.358   6.314
    9SAPS     P 1077   6.399   6.639   6.252
    9SAPS   O13 1078   6.284   6.554   6.288
    9SAPS   O14 1079   6.409   6.770   6.322
    9SAPS   O12 1080   6.530   6.562   6.293
    9SAPS   O11 1081   6.410   6.655   6.095
    9SAPS    C1 1082   6.523   6.714   6.029
    9SAPS    HA 1083   6.507   6.823   6.020
    9SAPS    HB 1084   6.616   6.698   6.087
    9SAPS    C2 1085   6.551   6.656   5.886
    9SAPS    HS 1086   6.651   6.691   5.855
    9SAPS   O21 1087   6.450   6.700   5.791
    9SAPS   C21 1088   6.478   6.813   5.729
    9SAPS   O22 1089   6.565   6.892   5.761
    9SAPS   C22 1090   6.390   6.826   5.604
    9SAPS   H2R 1091   6.284   6.818   5.636
    9SAPS   H2S 1092   6.407   6.927   5.561
    9SAPS    C3 1093   6.557   6.501   5.882
    9SAPS    HX 1094   6.458   6.460   5.909
    9SAPS    HY 1095   6.629   6.469   5.960
    9SAPS   O31 1096   6.607   6.457   5.753
    9SAPS   C31 1097   6.521   6.397   5.671
    9SAPS   O32 1098   6.406   6.366   5.696
    9SAPS   C32 1099   6.589   6.379   5.534
    9SAPS   H2X 1100   6.675   6.310   5.549
    9SAPS   H2Y 1101   6.626   6.479   5.504
    9SAPS   C23 1102   6.421   6.716   5.499
    9SAPS   H3R 1103   6.415   6.618   5.550
    9SAPS   H3S 1104   6.524   6.728   5.460
    9SAPS   C24 1105   6.318   6.711   5.384
    9SAPS   H4R 1106   6.217   6.716   5.429
    9SAPS   H4S 1107   6.328   6.612   5.335
    9SAPS   C25 1108   6.336   6.818   5.280
    9SAPS   H5R 1109   6.426   6.880   5.291
    9SAPS   C26 1110   6.252   6.842   5.178
    9SAPS   H6R 1111   6.282   6.917   5.104
    9SAPS   C27 1112   6.124   6.769   5.148
    9SAPS   H7R 1113   6.046   6.798   5.221
    9SAPS   H7S 1114   6.140   6.660   5.162
    9SAPS   C28 1115   6.071   6.794   5.009
    9SAPS   H8R 1116   6.001   6.878   4.998
    9SAPS   C29 1117   6.106   6.722   4.900
    9SAPS   H9R 1118   6.062   6.748   4.803
    9SAPS  C210 1119   6.202   6.606   4.902
    9SAPS  H10R 1120   6.273   6.615   4.987
    9SAPS  H10S 1121   6.266   6.609   4.811
    9SAPS  C211 1122   6.131   6.473   4.906
    9SAPS  H11R 1123   6.030   6.473   4.863
    9SAPS  C212 1124   6.178   6.359   4.959
    9SAPS  H12R 1125   6.114   6.269   4.953
    9SAPS  C213 1126   6.311   6.337   5.026
    9SAPS  H13R 1127   6.295   6.298   5.129
    9SAPS  H13S 1128   6.366   6.433   5.041
    9SAPS  C214 1129   6.399   6.239   4.953
    9SAPS  H14R 1130   6.388   6.134   4.985
    9SAPS  C215 1131   6.484   6.270   4.854
    9SAPS  H15R 1132   6.542   6.189   4.806
    9SAPS  C216 1133   6.507   6.408   4.799
    9SAPS  H16R 1134   6.605   6.447   4.835
    9SAPS  H16S 1135   6.431   6.481   4.834
    9SAPS  C217 1136   6.504   6.406   4.645
    9SAPS  H17R 1137   6.574   6.327   4.609
    9SAPS  H17S 1138   6.543   6.503   4.607
    9SAPS  C218 1139   6.364   6.383   4.588
    9SAPS  H18R 1140   6.302   6.473   4.610
    9SAPS  H18S 1141   6.316   6.297   4.640
    9SAPS  C219 1142   6.363   6.356   4.437
    9SAPS  H19R 1143   6.418   6.437   4.385
    9SAPS  H19S 1144   6.257   6.358   4.402
    9SAPS  C220 1145   6.423   6.221   4.399
    9SAPS  H20R 1146   6.370   6.138   4.450
    9SAPS  H20S 1147   6.530   6.217   4.430
    9SAPS  H20T 1148   6.418   6.204   4.289
    9SAPS   C33 1149   6.497   6.327   5.422
    9SAPS   H3X 1150   6.420   6.403   5.398
    9SAPS   H3Y 1151   6.444   6.236   5.458
    9SAPS   C34 1152   6.572   6.287   5.293
    9SAPS   H4X 1153   6.498   6.256   5.217
    9SAPS   H4Y 1154   6.637   6.200   5.316
    9SAPS   C35 1155   6.667   6.389   5.229
    9SAPS   H5X 1156   6.698   6.353   5.129
    9SAPS   H5Y 1157   6.758   6.390   5.292
    9SAPS   C36 1158   6.617   6.533   5.216
    9SAPS   H6X 1159   6.586   6.570   5.316
    9SAPS   H6Y 1160   6.529   6.539   5.149
    9SAPS   C37 1161   6.730   6.623   5.164
    9SAPS   H7X 1162   6.740   6.606   5.055
    9SAPS   H7Y 1163   6.828   6.594   5.207
    9SAPS   C38 1164   6.708   6.771   5.196
    9SAPS   H8X 1165   6.770   6.800   5.284
    9SAPS   H8Y 1166   6.602   6.787   5.223
    9SAPS   C39 1167   6.741   6.858   5.076
    9SAPS   H9X 1168   6.841   6.829   5.036
    9SAPS   H9Y 1169   6.745   6.965   5.105
    9SAPS  C310 1170   6.634   6.838   4.969
    9SAPS  H10X 1171   6.547   6.903   4.997
    9SAPS  H10Y 1172   6.595   6.734   4.967
    9SAPS  C311 1173   6.682   6.872   4.828
    9SAPS  H11X 1174   6.706   6.779   4.772
    9SAPS  H11Y 1175   6.775   6.933   4.834
    9SAPS  C312 1176   6.575   6.953   4.756
    9SAPS  H12X 1177   6.613   6.983   4.656
    9SAPS  H12Y 1178   6.560   7.044   4.817
    9SAPS  C313 1179   6.440   6.881   4.743
    9SAPS  H13X 1180   6.360   6.958   4.742
    9SAPS  H13Y 1181   6.417   6.816   4.829
    9SAPS  C314 1182   6.427   6.804   4.612
    9SAPS  H14X 1183   6.477   6.705   4.622
    9SAPS  H14Y 1184   6.478   6.859   4.530
    9SAPS  C315 1185   6.280   6.788   4.575
    9SAPS  H15X 1186   6.228   6.886   4.576
    9SAPS  H15Y 1187   6.230   6.723   4.649
    9SAPS  C316 1188   6.264   6.725   4.437
    9SAPS  H16X 1189   6.339   6.644   4.424
    9SAPS  H16Y 1190   6.283   6.803   4.360
    9SAPS  C317 1191   6.125   6.667   4.420
    9SAPS  H17X 1192   6.050   6.748   4.434
    9SAPS  H17Y 1193   6.107   6.591   4.499
    9SAPS  C318 1194   6.108   6.604   4.283
    9SAPS  H18X 1195   6.005   6.563   4.271
    9SAPS  H18Y 1196   6.179   6.520   4.271
    9SAPS  H18Z 1197   6.126   6.678   4.203
   10SAPS     N 1198   0.597   7.283   6.415
   10SAPS   HN1 1199   0.652   0.007   6.331
   10SAPS   HN2 1200   0.501   7.256   6.389
   10SAPS   HN3 1201   0.597   0.060   6.481
   10SAPS   C12 1202   0.665   7.164   6.477
   10SAPS  H12A 1203   0.725   7.198   6.560
   10SAPS   C13 1204   0.561   7.063   6.535
   10SAPS  O13A 1205   0.446   7.108   6.564
   10SAPS  O13B 1206   0.605   6.957   6.586
   10SAPS   C11 1207   0.762   7.098   6.371
   10SAPS  H11A 1208   0.713   7.090   6.272
   10SAPS  H11B 1209   0.780   6.993   6.403
   10SAPS     P 1210   0.901   0.009   6.310
   10SAPS   O13 1211   0.779   0.032   6.229
   10SAPS   O14 1212   0.912   0.095   6.430
   10SAPS   O12 1213   0.891   7.163   6.362
   10SAPS   O11 1214   1.030   0.017   6.221
   10SAPS    C1 1215   1.156   7.260   6.250
   10SAPS    HA 1216   1.233   0.036   6.261
   10SAPS    HB 1217   1.153   7.203   6.345
   10SAPS    C2 1218   1.203   7.162   6.139
   10SAPS    HS 1219   1.280   7.097   6.187
   10SAPS   O21 1220   1.260   7.234   6.026
   10SAPS   C21 1221   1.330   7.152   5.948
   10SAPS   O22 1222   1.395   7.057   5.987
   10SAPS   C22 1223   1.313   7.190   5.801
   10SAPS   H2R 1224   1.204   7.191   5.781
   10SAPS   H2S 1225   1.354   7.293   5.787
   10SAPS    C3 1226   1.088   7.072   6.085
   10SAPS    HX 1227   1.040   7.022   6.172
   10SAPS    HY 1228   1.132   6.996   6.017
   10SAPS   O31 1229   0.997   7.151   6.008
   10SAPS   C31 1230   0.873   7.110   6.002
   10SAPS   O32 1231   0.830   7.007   6.050
   10SAPS   C32 1232   0.789   7.212   5.925
   10SAPS   H2X 1233   0.715   7.251   5.998
   10SAPS   H2Y 1234   0.737   7.157   5.843
   10SAPS   C23 1235   1.384   7.091   5.705
   10SAPS   H3R 1236   1.411   6.997   5.757
   10SAPS   H3S 1237   1.482   7.139   5.682
   10SAPS   C24 1238   1.309   7.046   5.576
   10SAPS   H4R 1239   1.255   6.955   5.611
   10SAPS   H4S 1240   1.380   7.006   5.501
   10SAPS   C25 1241   1.201   7.129   5.509
   10SAPS   H5R 1242   1.123   7.158   5.581
   10SAPS   C26 1243   1.180   7.167   5.381
   10SAPS   H6R 1244   1.085   7.219   5.366
   10SAPS   C27 1245   1.252   7.148   5.248
   10SAPS   H7R 1246   1.189   7.091   5.176
   10SAPS   H7S 1247   1.346   7.090   5.262
   10SAPS   C28 1248   1.282   7.287   5.195
   10SAPS   H8R 1249   1.299   0.054   5.278
   10SAPS   C29 1250   1.296   0.040   5.073
   10SAPS   H9R 1251   1.337   0.143   5.074
   10SAPS  C210 1252   1.287   7.296   4.930
   10SAPS  H10R 1253   1.182   0.007   4.899
   10SAPS  H10S 1254   1.312   7.188   4.924
   10SAPS  C211 1255   1.374   0.072   4.834
   10SAPS  H11R 1256   1.441   0.145   4.881
   10SAPS  C212 1257   1.378   0.061   4.700
   10SAPS  H12R 1258   1.450   0.123   4.645
   10SAPS  C213 1259   1.296   7.271   4.614
   10SAPS  H13R 1260   1.215   7.225   4.674
   10SAPS  H13S 1261   1.362   7.187   4.582
   10SAPS  C214 1262   1.242   0.035   4.491
   10SAPS  H14R 1263   1.304   0.116   4.451
   10SAPS  C215 1264   1.126   0.011   4.428
   10SAPS  H15R 1265   1.102   0.068   4.337
   10SAPS  C216 1266   1.022   7.212   4.466
   10SAPS  H16R 1267   0.921   7.245   4.433
   10SAPS  H16S 1268   1.016   7.201   4.576
   10SAPS  C217 1269   1.054   7.076   4.404
   10SAPS  H17R 1270   0.985   6.999   4.446
   10SAPS  H17S 1271   1.158   7.046   4.429
   10SAPS  C218 1272   1.035   7.072   4.254
   10SAPS  H18R 1273   1.090   7.158   4.210
   10SAPS  H18S 1274   0.927   7.086   4.233
   10SAPS  C219 1275   1.088   6.942   4.192
   10SAPS  H19R 1276   1.191   6.928   4.233
   10SAPS  H19S 1277   1.099   6.956   4.083
   10SAPS  C220 1278   1.006   6.815   4.217
   10SAPS  H20R 1279   1.049   6.728   4.163
   10SAPS  H20S 1280   0.901   6.827   4.182
   10SAPS  H20T 1281   1.002   6.790   4.325
   10SAPS   C33 1282   0.867   0.030   5.868
   10SAPS   H3X 1283   0.929   0.074   5.949
   10SAPS   H3Y 1284   0.796   0.109   5.835
   10SAPS   C34 1285   0.956   7.295   5.748
   10SAPS   H4X 1286   1.006   7.198   5.772
   10SAPS   H4Y 1287   1.035   0.068   5.735
   10SAPS   C35 1288   0.880   7.278   5.617
   10SAPS   H5X 1289   0.774   7.301   5.642
   10SAPS   H5Y 1290   0.888   7.174   5.579
   10SAPS   C36 1291   0.916   0.075   5.509
   10SAPS   H6X 1292   1.024   0.070   5.483
   10SAPS   H6Y 1293   0.900   0.174   5.558
   10SAPS   C37 1294   0.827   0.071   5.384
   10SAPS   H7X 1295   0.789   0.174   5.367
   10SAPS   H7Y 1296   0.736   0.010   5.403
   10SAPS   C38 1297   0.898   0.022   5.256
   10SAPS   H8X 1298   0.906   7.215   5.259
   10SAPS   H8Y 1299   1.000   0.064   5.253
   10SAPS   C39 1300   0.827   0.063   5.126
   10SAPS   H9X 1301   0.800   0.171   5.131
   10SAPS   H9Y 1302   0.733   0.004   5.123
   10SAPS  C310 1303   0.905   0.037   4.995
   10SAPS  H10X 1304   0.998   0.098   4.995
   10SAPS  H10Y 1305   0.842   0.072   4.910
   10SAPS  C311 1306   0.940   7.193   4.973
   10SAPS  H11X 1307   0.849   7.132   4.995
   10SAPS  H11Y 1308   1.018   7.164   5.046
   10SAPS  C312 1309   0.986   7.155   4.831
   10SAPS  H12X 1310   1.037   7.241   4.783
   10SAPS  H12Y 1311   0.896   7.134   4.769
   10SAPS  C313 1312   1.078   7.030   4.833
   10SAPS  H13X 1313   1.019   6.958   4.894
   10SAPS  H13Y 1314   1.172   7.048   4.890
   10SAPS  C314 1315   1.109   6.963   4.698
   10SAPS  H14X 1316   1.189   7.017   4.644
   10SAPS  H14Y 1317   1.014   6.969   4.640
   10SAPS  C315 1318   1.146   6.813   4.705
   10SAPS  H15X 1319   1.062   6.763   4.758
   10SAPS  H15Y 1320   1.239   6.795   4.763
   10SAPS  C316 1321   1.142   6.735   4.573
   10SAPS  H16X 1322   1.074   6.791   4.505
   10SAPS  H16Y 1323   1.097   6.636   4.592
   10SAPS  C317 1324   1.277   6.711   4.504
   10SAPS  H17X 1325   1.331   6.808   4.496
   10SAPS  H17Y 1326   1.256   6.675   4.402
   10SAPS  C318 1327   1.363   6.607   4.576
   10SAPS  H18X 1328   1.456   6.590   4.518
   10SAPS  H18Y 1329   1.308   6.510   4.584
   10SAPS  H18Z 1330   1.389   6.640   4.678
   11SAPS     N 1331   3.156   3.040   2.291
   11SAPS   HN1 1332   3.213   3.064   2.375
   11SAPS   HN2 1333   3.057   3.066   2.310
   11SAPS   HN3 1334   3.162   2.938   2.272
   11SAPS   C12 1335   3.203   3.118   2.172
   11SAPS  H12A 1336   3.177   3.062   2.083
   11SAPS   C13 1337   3.135   3.257   2.160
   11SAPS  O13A 1338   3.059   3.295   2.252
   11SAPS  O13B 1339   3.128   3.307   2.044
   11SAPS   C11 1340   3.358   3.138   2.179
   11SAPS  H11A 1341   3.385   3.170   2.281
   11SAPS  H11B 1342   3.387   3.221   2.111
   11SAPS     P 1343   3.577   2.997   2.190
   11SAPS   O13 1344   3.634   2.882   2.116
   11SAPS   O14 1345   3.647   3.126   2.179
   11SAPS   O12 1346   3.428   3.019   2.137
   11SAPS   O11 1347   3.553   2.959   2.342
   11SAPS    C1 1348   3.451   2.862   2.371
   11SAPS    HA 1349   3.352   2.898   2.335
   11SAPS    HB 1350   3.471   2.765   2.320
   11SAPS    C2 1351   3.430   2.834   2.523
   11SAPS    HS 1352   3.322   2.812   2.542
   11SAPS   O21 1353   3.474   2.942   2.607
   11SAPS   C21 1354   3.412   3.056   2.591
   11SAPS   O22 1355   3.310   3.074   2.524
   11SAPS   C22 1356   3.488   3.164   2.670
   11SAPS   H2R 1357   3.572   3.114   2.722
   11SAPS   H2S 1358   3.530   3.235   2.596
   11SAPS    C3 1359   3.508   2.707   2.560
   11SAPS    HX 1360   3.613   2.722   2.527
   11SAPS    HY 1361   3.467   2.625   2.497
   11SAPS   O31 1362   3.493   2.671   2.699
   11SAPS   C31 1363   3.598   2.698   2.774
   11SAPS   O32 1364   3.701   2.753   2.739
   11SAPS   C32 1365   3.578   2.636   2.912
   11SAPS   H2X 1366   3.601   2.528   2.905
   11SAPS   H2Y 1367   3.470   2.644   2.939
   11SAPS   C23 1368   3.402   3.241   2.773
   11SAPS   H3R 1369   3.361   3.169   2.848
   11SAPS   H3S 1370   3.315   3.288   2.722
   11SAPS   C24 1371   3.479   3.351   2.849
   11SAPS   H4R 1372   3.413   3.393   2.928
   11SAPS   H4S 1373   3.498   3.434   2.777
   11SAPS   C25 1374   3.612   3.306   2.906
   11SAPS   H5R 1375   3.686   3.276   2.830
   11SAPS   C26 1376   3.648   3.300   3.035
   11SAPS   H6R 1377   3.750   3.266   3.058
   11SAPS   C27 1378   3.563   3.338   3.154
   11SAPS   H7R 1379   3.473   3.274   3.158
   11SAPS   H7S 1380   3.524   3.441   3.140
   11SAPS   C28 1381   3.637   3.330   3.286
   11SAPS   H8R 1382   3.643   3.425   3.341
   11SAPS   C29 1383   3.686   3.220   3.346
   11SAPS   H9R 1384   3.738   3.228   3.443
   11SAPS  C210 1385   3.675   3.081   3.290
   11SAPS  H10R 1386   3.726   3.081   3.191
   11SAPS  H10S 1387   3.568   3.060   3.268
   11SAPS  C211 1388   3.725   2.963   3.369
   11SAPS  H11R 1389   3.783   2.891   3.309
   11SAPS  C212 1390   3.701   2.931   3.497
   11SAPS  H12R 1391   3.750   2.840   3.534
   11SAPS  C213 1392   3.615   3.006   3.595
   11SAPS  H13R 1393   3.562   3.089   3.544
   11SAPS  H13S 1394   3.679   3.051   3.675
   11SAPS  C214 1395   3.514   2.913   3.654
   11SAPS  H14R 1396   3.458   2.855   3.579
   11SAPS  C215 1397   3.481   2.893   3.783
   11SAPS  H15R 1398   3.419   2.805   3.803
   11SAPS  C216 1399   3.534   2.956   3.909
   11SAPS  H16R 1400   3.638   2.992   3.893
   11SAPS  H16S 1401   3.540   2.878   3.987
   11SAPS  C217 1402   3.456   3.076   3.970
   11SAPS  H17R 1403   3.489   3.167   3.915
   11SAPS  H17S 1404   3.490   3.082   4.076
   11SAPS  C218 1405   3.302   3.082   3.971
   11SAPS  H18R 1406   3.259   3.008   4.043
   11SAPS  H18S 1407   3.271   3.055   3.868
   11SAPS  C219 1408   3.237   3.221   3.992
   11SAPS  H19R 1409   3.151   3.227   3.922
   11SAPS  H19S 1410   3.309   3.300   3.963
   11SAPS  C220 1411   3.181   3.252   4.132
   11SAPS  H20R 1412   3.113   3.340   4.126
   11SAPS  H20S 1413   3.262   3.277   4.203
   11SAPS  H20T 1414   3.123   3.167   4.172
   11SAPS   C33 1415   3.671   2.706   3.012
   11SAPS   H3X 1416   3.776   2.701   2.978
   11SAPS   H3Y 1417   3.665   2.658   3.112
   11SAPS   C34 1418   3.630   2.852   3.030
   11SAPS   H4X 1419   3.624   2.903   2.931
   11SAPS   H4Y 1420   3.709   2.905   3.087
   11SAPS   C35 1421   3.495   2.865   3.101
   11SAPS   H5X 1422   3.514   2.857   3.210
   11SAPS   H5Y 1423   3.425   2.784   3.075
   11SAPS   C36 1424   3.426   2.996   3.064
   11SAPS   H6X 1425   3.404   2.992   2.955
   11SAPS   H6Y 1426   3.496   3.081   3.078
   11SAPS   C37 1427   3.295   3.023   3.139
   11SAPS   H7X 1428   3.227   2.944   3.100
   11SAPS   H7Y 1429   3.255   3.121   3.108
   11SAPS   C38 1430   3.295   3.010   3.293
   11SAPS   H8X 1431   3.366   2.930   3.324
   11SAPS   H8Y 1432   3.194   2.976   3.324
   11SAPS   C39 1433   3.325   3.135   3.377
   11SAPS   H9X 1434   3.430   3.169   3.359
   11SAPS   H9Y 1435   3.320   3.104   3.483
   11SAPS  C310 1436   3.236   3.258   3.354
   11SAPS  H10X 1437   3.131   3.230   3.374
   11SAPS  H10Y 1438   3.244   3.289   3.248
   11SAPS  C311 1439   3.280   3.378   3.442
   11SAPS  H11X 1440   3.223   3.468   3.412
   11SAPS  H11Y 1441   3.387   3.399   3.420
   11SAPS  C312 1442   3.262   3.356   3.593
   11SAPS  H12X 1443   3.254   3.247   3.613
   11SAPS  H12Y 1444   3.167   3.403   3.626
   11SAPS  C313 1445   3.377   3.405   3.682
   11SAPS  H13X 1446   3.345   3.400   3.788
   11SAPS  H13Y 1447   3.396   3.512   3.660
   11SAPS  C314 1448   3.504   3.320   3.665
   11SAPS  H14X 1449   3.536   3.324   3.559
   11SAPS  H14Y 1450   3.478   3.214   3.689
   11SAPS  C315 1451   3.622   3.362   3.754
   11SAPS  H15X 1452   3.615   3.313   3.853
   11SAPS  H15Y 1453   3.610   3.471   3.772
   11SAPS  C316 1454   3.762   3.337   3.694
   11SAPS  H16X 1455   3.761   3.370   3.588
   11SAPS  H16Y 1456   3.785   3.229   3.697
   11SAPS  C317 1457   3.875   3.414   3.764
   11SAPS  H17X 1458   3.865   3.522   3.738
   11SAPS  H17Y 1459   3.975   3.389   3.723
   11SAPS  C318 1460   3.881   3.399   3.916
   11SAPS  H18X 1461   3.924   3.301   3.946
   11SAPS  H18Y 1462   3.780   3.409   3.962
   11SAPS  H18Z 1463   3.946   3.479   3.958
   12SAPS     N 1464   2.809   3.340   2.188
   12SAPS   HN1 1465   2.802   3.392   2.098
   12SAPS   HN2 1466   2.904   3.353   2.229
   12SAPS   HN3 1467   2.801   3.238   2.168
   12SAPS   C12 1468   2.699   3.376   2.281
   12SAPS  H12A 1469   2.714   3.320   2.372
   12SAPS   C13 1470   2.692   3.523   2.326
   12SAPS  O13A 1471   2.778   3.604   2.282
   12SAPS  O13B 1472   2.594   3.558   2.397
   12SAPS   C11 1473   2.560   3.340   2.215
   12SAPS  H11A 1474   2.540   3.417   2.138
   12SAPS  H11B 1475   2.481   3.352   2.292
   12SAPS     P 1476   2.609   3.079   2.219
   12SAPS   O13 1477   2.515   2.968   2.191
   12SAPS   O14 1478   2.747   3.075   2.166
   12SAPS   O12 1479   2.548   3.211   2.154
   12SAPS   O11 1480   2.612   3.118   2.370
   12SAPS    C1 1481   2.505   3.097   2.461
   12SAPS    HA 1482   2.408   3.085   2.409
   12SAPS    HB 1483   2.528   3.003   2.516
   12SAPS    C2 1484   2.490   3.211   2.567
   12SAPS    HS 1485   2.467   3.304   2.511
   12SAPS   O21 1486   2.616   3.231   2.633
   12SAPS   C21 1487   2.629   3.323   2.728
   12SAPS   O22 1488   2.539   3.394   2.771
   12SAPS   C22 1489   2.779   3.335   2.769
   12SAPS   H2R 1490   2.836   3.268   2.700
   12SAPS   H2S 1491   2.809   3.439   2.745
   12SAPS    C3 1492   2.366   3.178   2.657
   12SAPS    HX 1493   2.319   3.085   2.618
   12SAPS    HY 1494   2.295   3.261   2.637
   12SAPS   O31 1495   2.390   3.165   2.800
   12SAPS   C31 1496   2.278   3.166   2.870
   12SAPS   O32 1497   2.165   3.161   2.823
   12SAPS   C32 1498   2.305   3.193   3.017
   12SAPS   H2X 1499   2.409   3.163   3.042
   12SAPS   H2Y 1500   2.234   3.132   3.077
   12SAPS   C23 1501   2.819   3.301   2.917
   12SAPS   H3R 1502   2.730   3.254   2.965
   12SAPS   H3S 1503   2.836   3.396   2.972
   12SAPS   C24 1504   2.944   3.207   2.932
   12SAPS   H4R 1505   3.029   3.271   2.899
   12SAPS   H4S 1506   2.938   3.132   2.850
   12SAPS   C25 1507   2.984   3.145   3.067
   12SAPS   H5R 1508   3.029   3.227   3.124
   12SAPS   C26 1509   2.982   3.026   3.141
   12SAPS   H6R 1510   3.029   3.046   3.238
   12SAPS   C27 1511   2.943   2.874   3.150
   12SAPS   H7R 1512   2.992   2.838   3.243
   12SAPS   H7S 1513   3.015   2.833   3.076
   12SAPS   C28 1514   2.818   2.777   3.132
   12SAPS   H8R 1515   2.850   2.708   3.053
   12SAPS   C29 1516   2.688   2.740   3.169
   12SAPS   H9R 1517   2.657   2.651   3.112
   12SAPS  C210 1518   2.567   2.774   3.262
   12SAPS  H10R 1519   2.584   2.737   3.365
   12SAPS  H10S 1520   2.497   2.692   3.235
   12SAPS  C211 1521   2.470   2.894   3.272
   12SAPS  H11R 1522   2.416   2.902   3.176
   12SAPS  C212 1523   2.435   2.995   3.359
   12SAPS  H12R 1524   2.360   3.063   3.317
   12SAPS  C213 1525   2.471   3.049   3.498
   12SAPS  H13R 1526   2.458   3.159   3.489
   12SAPS  H13S 1527   2.579   3.043   3.522
   12SAPS  C214 1528   2.408   3.002   3.626
   12SAPS  H14R 1529   2.425   2.895   3.646
   12SAPS  C215 1530   2.342   3.076   3.717
   12SAPS  H15R 1531   2.300   3.027   3.806
   12SAPS  C216 1532   2.314   3.225   3.713
   12SAPS  H16R 1533   2.205   3.242   3.710
   12SAPS  H16S 1534   2.356   3.273   3.622
   12SAPS  C217 1535   2.371   3.301   3.834
   12SAPS  H17R 1536   2.334   3.253   3.927
   12SAPS  H17S 1537   2.333   3.405   3.833
   12SAPS  C218 1538   2.524   3.306   3.836
   12SAPS  H18R 1539   2.560   3.361   3.746
   12SAPS  H18S 1540   2.564   3.202   3.830
   12SAPS  C219 1541   2.581   3.373   3.962
   12SAPS  H19R 1542   2.540   3.476   3.971
   12SAPS  H19S 1543   2.691   3.385   3.952
   12SAPS  C220 1544   2.550   3.298   4.092
   12SAPS  H20R 1545   2.441   3.294   4.111
   12SAPS  H20S 1546   2.598   3.350   4.178
   12SAPS  H20T 1547   2.589   3.195   4.087
   12SAPS   C33 1548   2.284   3.343   3.045
   12SAPS   H3X 1549   2.184   3.374   3.008
   12SAPS   H3Y 1550   2.361   3.400   2.990
   12SAPS   C34 1551   2.290   3.381   3.193
   12SAPS   H4X 1552   2.227   3.312   3.253
   12SAPS   H4Y 1553   2.248   3.483   3.204
   12SAPS   C35 1554   2.432   3.383   3.250
   12SAPS   H5X 1555   2.498   3.443   3.184
   12SAPS   H5Y 1556   2.471   3.279   3.253
   12SAPS   C36 1557   2.432   3.441   3.391
   12SAPS   H6X 1558   2.360   3.383   3.453
   12SAPS   H6Y 1559   2.395   3.545   3.388
   12SAPS   C37 1560   2.570   3.442   3.459
   12SAPS   H7X 1561   2.606   3.338   3.474
   12SAPS   H7Y 1562   2.557   3.489   3.559
   12SAPS   C38 1563   2.676   3.522   3.382
   12SAPS   H8X 1564   2.628   3.612   3.336
   12SAPS   H8Y 1565   2.714   3.460   3.298
   12SAPS   C39 1566   2.792   3.570   3.470
   12SAPS   H9X 1567   2.756   3.657   3.529
   12SAPS   H9Y 1568   2.875   3.606   3.405
   12SAPS  C310 1569   2.846   3.467   3.571
   12SAPS  H10X 1570   2.764   3.441   3.642
   12SAPS  H10Y 1571   2.927   3.512   3.631
   12SAPS  C311 1572   2.897   3.339   3.505
   12SAPS  H11X 1573   3.003   3.354   3.476
   12SAPS  H11Y 1574   2.841   3.321   3.411
   12SAPS  C312 1575   2.879   3.215   3.593
   12SAPS  H12X 1576   2.903   3.125   3.532
   12SAPS  H12Y 1577   2.773   3.208   3.626
   12SAPS  C313 1578   2.974   3.202   3.712
   12SAPS  H13X 1579   2.977   3.296   3.772
   12SAPS  H13Y 1580   3.075   3.181   3.672
   12SAPS  C314 1581   2.934   3.082   3.799
   12SAPS  H14X 1582   3.023   3.050   3.857
   12SAPS  H14Y 1583   2.905   2.997   3.734
   12SAPS  C315 1584   2.820   3.116   3.895
   12SAPS  H15X 1585   2.730   3.057   3.870
   12SAPS  H15Y 1586   2.795   3.223   3.878
   12SAPS  C316 1587   2.858   3.098   4.042
   12SAPS  H16X 1588   2.831   3.189   4.099
   12SAPS  H16Y 1589   2.968   3.085   4.052
   12SAPS  C317 1590   2.789   2.977   4.104
   12SAPS  H17X 1591   2.817   2.887   4.045
   12SAPS  H17Y 1592   2.679   2.990   4.096
   12SAPS  C318 1593   2.826   2.956   4.251
   12SAPS  H18X 1594   2.764   2.875   4.295
   12SAPS  H18Y 1595   2.808   3.049   4.309
   12SAPS  H18Z 1596   2.933   2.928   4.260
   13SAPS     N 1597   5.316   3.495   2.100
   13SAPS   HN1 1598   5.386   3.454   2.034
   13SAPS   HN2 1599   5.223   3.451   2.083
   13SAPS   HN3 1600   5.313   3.598   2.087
   13SAPS   C12 1601   5.367   3.467   2.238
   13SAPS  H12A 1602   5.298   3.510   2.309
   13SAPS   C13 1603   5.382   3.316   2.270
   13SAPS  O13A 1604   5.356   3.232   2.180
   13SAPS  O13B 1605   5.443   3.283   2.375
   13SAPS   C11 1606   5.507   3.534   2.254
   13SAPS  H11A 1607   5.582   3.462   2.215
   13SAPS  H11B 1608   5.527   3.547   2.362
   13SAPS     P 1609   5.658   3.715   2.145
   13SAPS   O13 1610   5.682   3.673   2.004
   13SAPS   O14 1611   5.670   3.859   2.175
   13SAPS   O12 1612   5.514   3.662   2.187
   13SAPS   O11 1613   5.751   3.628   2.233
   13SAPS    C1 1614   5.862   3.668   2.311
   13SAPS    HA 1615   5.948   3.602   2.285
   13SAPS    HB 1616   5.894   3.772   2.291
   13SAPS    C2 1617   5.838   3.650   2.465
   13SAPS    HS 1618   5.937   3.644   2.515
   13SAPS   O21 1619   5.760   3.534   2.500
   13SAPS   C21 1620   5.774   3.416   2.444
   13SAPS   O22 1621   5.833   3.386   2.343
   13SAPS   C22 1622   5.701   3.312   2.531
   13SAPS   H2R 1623   5.613   3.364   2.577
   13SAPS   H2S 1624   5.663   3.236   2.460
   13SAPS    C3 1625   5.762   3.774   2.521
   13SAPS    HX 1626   5.666   3.780   2.465
   13SAPS    HY 1627   5.819   3.866   2.498
   13SAPS   O31 1628   5.732   3.763   2.662
   13SAPS   C31 1629   5.837   3.778   2.742
   13SAPS   O32 1630   5.949   3.811   2.706
   13SAPS   C32 1631   5.797   3.750   2.886
   13SAPS   H2X 1632   5.699   3.798   2.907
   13SAPS   H2Y 1633   5.872   3.801   2.950
   13SAPS   C23 1634   5.790   3.245   2.639
   13SAPS   H3R 1635   5.826   3.323   2.710
   13SAPS   H3S 1636   5.880   3.203   2.591
   13SAPS   C24 1637   5.722   3.131   2.720
   13SAPS   H4R 1638   5.787   3.111   2.808
   13SAPS   H4S 1639   5.724   3.039   2.659
   13SAPS   C25 1640   5.580   3.161   2.763
   13SAPS   H5R 1641   5.519   3.218   2.693
   13SAPS   C26 1642   5.522   3.124   2.879
   13SAPS   H6R 1643   5.418   3.155   2.896
   13SAPS   C27 1644   5.583   3.045   2.992
   13SAPS   H7R 1645   5.673   2.989   2.958
   13SAPS   H7S 1646   5.510   2.967   3.023
   13SAPS   C28 1647   5.620   3.136   3.106
   13SAPS   H8R 1648   5.712   3.195   3.090
   13SAPS   C29 1649   5.552   3.155   3.221
   13SAPS   H9R 1650   5.588   3.232   3.291
   13SAPS  C210 1651   5.423   3.088   3.260
   13SAPS  H10R 1652   5.415   2.990   3.210
   13SAPS  H10S 1653   5.341   3.148   3.215
   13SAPS  C211 1654   5.385   3.067   3.405
   13SAPS  H11R 1655   5.296   3.003   3.414
   13SAPS  C212 1656   5.444   3.100   3.522
   13SAPS  H12R 1657   5.393   3.067   3.614
   13SAPS  C213 1658   5.573   3.173   3.551
   13SAPS  H13R 1659   5.649   3.153   3.472
   13SAPS  H13S 1660   5.618   3.129   3.642
   13SAPS  C214 1661   5.567   3.321   3.579
   13SAPS  H14R 1662   5.620   3.384   3.507
   13SAPS  C215 1663   5.508   3.378   3.686
   13SAPS  H15R 1664   5.511   3.488   3.691
   13SAPS  C216 1665   5.435   3.311   3.799
   13SAPS  H16R 1666   5.415   3.203   3.778
   13SAPS  H16S 1667   5.336   3.360   3.811
   13SAPS  C217 1668   5.507   3.317   3.936
   13SAPS  H17R 1669   5.430   3.301   4.015
   13SAPS  H17S 1670   5.552   3.417   3.954
   13SAPS  C218 1671   5.617   3.212   3.954
   13SAPS  H18R 1672   5.683   3.212   3.864
   13SAPS  H18S 1673   5.569   3.112   3.961
   13SAPS  C219 1674   5.704   3.236   4.079
   13SAPS  H19R 1675   5.777   3.316   4.057
   13SAPS  H19S 1676   5.761   3.143   4.100
   13SAPS  C220 1677   5.625   3.277   4.203
   13SAPS  H20R 1678   5.685   3.263   4.296
   13SAPS  H20S 1679   5.532   3.216   4.212
   13SAPS  H20T 1680   5.594   3.383   4.197
   13SAPS   C33 1681   5.795   3.600   2.923
   13SAPS   H3X 1682   5.782   3.591   3.033
   13SAPS   H3Y 1683   5.894   3.555   2.900
   13SAPS   C34 1684   5.692   3.510   2.852
   13SAPS   H4X 1685   5.710   3.406   2.887
   13SAPS   H4Y 1686   5.711   3.512   2.743
   13SAPS   C35 1687   5.544   3.541   2.875
   13SAPS   H5X 1688   5.485   3.449   2.856
   13SAPS   H5Y 1689   5.511   3.615   2.800
   13SAPS   C36 1690   5.512   3.591   3.016
   13SAPS   H6X 1691   5.405   3.623   3.021
   13SAPS   H6Y 1692   5.572   3.681   3.040
   13SAPS   C37 1693   5.537   3.485   3.124
   13SAPS   H7X 1694   5.634   3.433   3.105
   13SAPS   H7Y 1695   5.458   3.408   3.116
   13SAPS   C38 1696   5.540   3.543   3.265
   13SAPS   H8X 1697   5.635   3.597   3.283
   13SAPS   H8Y 1698   5.536   3.456   3.335
   13SAPS   C39 1699   5.422   3.635   3.294
   13SAPS   H9X 1700   5.333   3.592   3.243
   13SAPS   H9Y 1701   5.438   3.737   3.251
   13SAPS  C310 1702   5.389   3.643   3.442
   13SAPS  H10X 1703   5.409   3.544   3.489
   13SAPS  H10Y 1704   5.279   3.658   3.453
   13SAPS  C311 1705   5.463   3.752   3.520
   13SAPS  H11X 1706   5.450   3.850   3.469
   13SAPS  H11Y 1707   5.571   3.728   3.520
   13SAPS  C312 1708   5.408   3.761   3.663
   13SAPS  H12X 1709   5.339   3.676   3.680
   13SAPS  H12Y 1710   5.347   3.854   3.673
   13SAPS  C313 1711   5.516   3.759   3.771
   13SAPS  H13X 1712   5.545   3.863   3.796
   13SAPS  H13Y 1713   5.607   3.710   3.729
   13SAPS  C314 1714   5.478   3.679   3.897
   13SAPS  H14X 1715   5.564   3.685   3.966
   13SAPS  H14Y 1716   5.467   3.573   3.865
   13SAPS  C315 1717   5.347   3.711   3.970
   13SAPS  H15X 1718   5.261   3.702   3.899
   13SAPS  H15Y 1719   5.350   3.814   4.010
   13SAPS  C316 1720   5.321   3.619   4.091
   13SAPS  H16X 1721   5.304   3.514   4.057
   13SAPS  H16Y 1722   5.230   3.653   4.144
   13SAPS  C317 1723   5.441   3.623   4.186
   13SAPS  H17X 1724   5.469   3.730   4.198
   13SAPS  H17Y 1725   5.527   3.571   4.139
   13SAPS  C318 1726   5.417   3.563   4.325
   13SAPS  H18X 1727   5.514   3.548   4.377
   13SAPS  H18Y 1728   5.365   3.466   4.317
   13SAPS  H18Z 1729   5.356   3.634   4.385
   14SAPS     N 1730   3.214   1.938   2.177
   14SAPS   HN1 1731   3.281   1.868   2.141
   14SAPS   HN2 1732   3.164   1.987   2.100
   14SAPS   HN3 1733   3.259   2.008   2.239
   14SAPS   C12 1734   3.109   1.864   2.254
   14SAPS  H12A 1735   3.157   1.809   2.334
   14SAPS   C13 1736   3.010   1.965   2.313
   14SAPS  O13A 1737   2.987   2.070   2.247
   14SAPS  O13B 1738   2.948   1.935   2.418
   14SAPS   C11 1739   3.029   1.769   2.158
   14SAPS  H11A 1740   2.946   1.827   2.111
   14SAPS  H11B 1741   2.978   1.691   2.220
   14SAPS     P 1742   3.226   1.611   2.076
   14SAPS   O13 1743   3.233   1.528   1.954
   14SAPS   O14 1744   3.339   1.703   2.103
   14SAPS   O12 1745   3.104   1.709   2.051
   14SAPS   O11 1746   3.181   1.530   2.203
   14SAPS    C1 1747   3.113   1.405   2.192
   14SAPS    HA 1748   3.054   1.399   2.098
   14SAPS    HB 1749   3.186   1.322   2.190
   14SAPS    C2 1750   3.009   1.380   2.306
   14SAPS    HS 1751   2.927   1.319   2.260
   14SAPS   O21 1752   2.958   1.506   2.353
   14SAPS   C21 1753   2.851   1.501   2.431
   14SAPS   O22 1754   2.780   1.402   2.442
   14SAPS   C22 1755   2.837   1.637   2.500
   14SAPS   H2R 1756   2.938   1.676   2.522
   14SAPS   H2S 1757   2.788   1.706   2.428
   14SAPS    C3 1758   3.067   1.296   2.423
   14SAPS    HX 1759   3.117   1.207   2.381
   14SAPS    HY 1760   2.985   1.259   2.489
   14SAPS   O31 1761   3.165   1.372   2.494
   14SAPS   C31 1762   3.138   1.414   2.615
   14SAPS   O32 1763   3.040   1.384   2.681
   14SAPS   C32 1764   3.250   1.507   2.658
   14SAPS   H2X 1765   3.274   1.573   2.572
   14SAPS   H2Y 1766   3.340   1.447   2.683
   14SAPS   C23 1767   2.755   1.632   2.631
   14SAPS   H3R 1768   2.801   1.562   2.703
   14SAPS   H3S 1769   2.653   1.597   2.604
   14SAPS   C24 1770   2.727   1.768   2.700
   14SAPS   H4R 1771   2.667   1.747   2.792
   14SAPS   H4S 1772   2.660   1.826   2.632
   14SAPS   C25 1773   2.848   1.850   2.733
   14SAPS   H5R 1774   2.880   1.916   2.651
   14SAPS   C26 1775   2.922   1.848   2.845
   14SAPS   H6R 1776   3.007   1.917   2.850
   14SAPS   C27 1777   2.904   1.760   2.968
   14SAPS   H7R 1778   2.950   1.662   2.948
   14SAPS   H7S 1779   2.796   1.738   2.982
   14SAPS   C28 1780   2.966   1.818   3.095
   14SAPS   H8R 1781   3.006   1.920   3.085
   14SAPS   C29 1782   2.974   1.759   3.216
   14SAPS   H9R 1783   3.014   1.817   3.300
   14SAPS  C210 1784   2.922   1.623   3.254
   14SAPS  H10R 1785   2.904   1.563   3.162
   14SAPS  H10S 1786   2.824   1.650   3.297
   14SAPS  C211 1787   2.985   1.532   3.357
   14SAPS  H11R 1788   3.095   1.529   3.358
   14SAPS  C212 1789   2.915   1.451   3.440
   14SAPS  H12R 1790   2.970   1.388   3.512
   14SAPS  C213 1791   2.764   1.437   3.446
   14SAPS  H13R 1792   2.735   1.362   3.369
   14SAPS  H13S 1793   2.716   1.532   3.416
   14SAPS  C214 1794   2.693   1.397   3.573
   14SAPS  H14R 1795   2.623   1.314   3.562
   14SAPS  C215 1796   2.705   1.455   3.693
   14SAPS  H15R 1797   2.647   1.416   3.777
   14SAPS  C216 1798   2.792   1.571   3.731
   14SAPS  H16R 1799   2.728   1.655   3.765
   14SAPS  H16S 1800   2.853   1.610   3.646
   14SAPS  C217 1801   2.885   1.530   3.846
   14SAPS  H17R 1802   2.827   1.489   3.932
   14SAPS  H17S 1803   2.931   1.624   3.883
   14SAPS  C218 1804   2.999   1.432   3.812
   14SAPS  H18R 1805   3.069   1.431   3.899
   14SAPS  H18S 1806   3.055   1.471   3.724
   14SAPS  C219 1807   2.960   1.285   3.785
   14SAPS  H19R 1808   3.054   1.226   3.776
   14SAPS  H19S 1809   2.910   1.278   3.686
   14SAPS  C220 1810   2.870   1.218   3.888
   14SAPS  H20R 1811   2.842   1.116   3.853
   14SAPS  H20S 1812   2.775   1.275   3.903
   14SAPS  H20T 1813   2.921   1.209   3.987
   14SAPS   C33 1814   3.206   1.591   2.778
   14SAPS   H3X 1815   3.192   1.527   2.867
   14SAPS   H3Y 1816   3.107   1.638   2.756
   14SAPS   C34 1817   3.305   1.703   2.809
   14SAPS   H4X 1818   3.319   1.767   2.719
   14SAPS   H4Y 1819   3.403   1.660   2.837
   14SAPS   C35 1820   3.249   1.787   2.923
   14SAPS   H5X 1821   3.159   1.733   2.962
   14SAPS   H5Y 1822   3.215   1.885   2.883
   14SAPS   C36 1823   3.342   1.809   3.042
   14SAPS   H6X 1824   3.318   1.909   3.084
   14SAPS   H6Y 1825   3.448   1.807   3.008
   14SAPS   C37 1826   3.327   1.708   3.155
   14SAPS   H7X 1827   3.369   1.610   3.124
   14SAPS   H7Y 1828   3.219   1.691   3.175
   14SAPS   C38 1829   3.395   1.761   3.282
   14SAPS   H8X 1830   3.430   1.865   3.266
   14SAPS   H8Y 1831   3.486   1.701   3.299
   14SAPS   C39 1832   3.303   1.761   3.405
   14SAPS   H9X 1833   3.364   1.743   3.496
   14SAPS   H9Y 1834   3.231   1.676   3.397
   14SAPS  C310 1835   3.229   1.893   3.422
   14SAPS  H10X 1836   3.186   1.922   3.324
   14SAPS  H10Y 1837   3.300   1.974   3.450
   14SAPS  C311 1838   3.115   1.886   3.526
   14SAPS  H11X 1839   3.159   1.886   3.628
   14SAPS  H11Y 1840   3.059   1.791   3.514
   14SAPS  C312 1841   3.017   2.003   3.510
   14SAPS  H12X 1842   2.984   2.007   3.404
   14SAPS  H12Y 1843   3.071   2.097   3.533
   14SAPS  C313 1844   2.891   1.998   3.598
   14SAPS  H13X 1845   2.838   1.902   3.586
   14SAPS  H13Y 1846   2.825   2.079   3.563
   14SAPS  C314 1847   2.919   2.025   3.747
   14SAPS  H14X 1848   2.827   2.068   3.792
   14SAPS  H14Y 1849   3.000   2.101   3.755
   14SAPS  C315 1850   2.954   1.899   3.826
   14SAPS  H15X 1851   2.983   1.821   3.753
   14SAPS  H15Y 1852   2.864   1.861   3.880
   14SAPS  C316 1853   3.069   1.922   3.925
   14SAPS  H16X 1854   3.033   1.984   4.010
   14SAPS  H16Y 1855   3.150   1.977   3.875
   14SAPS  C317 1856   3.127   1.791   3.978
   14SAPS  H17X 1857   3.046   1.731   4.024
   14SAPS  H17Y 1858   3.200   1.814   4.059
   14SAPS  C318 1859   3.198   1.708   3.871
   14SAPS  H18X 1860   3.278   1.768   3.824
   14SAPS  H18Y 1861   3.128   1.677   3.790
   14SAPS  H18Z 1862   3.242   1.616   3.914
   15SAPS     N 1863   4.610   5.809   2.052
   15SAPS   HN1 1864   4.513   5.783   2.026
   15SAPS   HN2 1865   4.611   5.830   2.154
   15SAPS   HN3 1866   4.638   5.894   1.999
   15SAPS   C12 1867   4.708   5.699   2.025
   15SAPS  H12A 1868   4.657   5.623   1.968
   15SAPS   C13 1869   4.831   5.747   1.943
   15SAPS  O13A 1870   4.845   5.870   1.916
   15SAPS  O13B 1871   4.923   5.664   1.921
   15SAPS   C11 1872   4.759   5.638   2.160
   15SAPS  H11A 1873   4.841   5.703   2.199
   15SAPS  H11B 1874   4.807   5.540   2.137
   15SAPS     P 1875   4.627   5.710   2.380
   15SAPS   O13 1876   4.609   5.844   2.319
   15SAPS   O14 1877   4.511   5.651   2.450
   15SAPS   O12 1878   4.656   5.616   2.256
   15SAPS   O11 1879   4.759   5.706   2.467
   15SAPS    C1 1880   4.875   5.783   2.437
   15SAPS    HA 1881   4.959   5.713   2.416
   15SAPS    HB 1882   4.863   5.845   2.346
   15SAPS    C2 1883   4.917   5.883   2.549
   15SAPS    HS 1884   5.014   5.928   2.521
   15SAPS   O21 1885   4.925   5.825   2.680
   15SAPS   C21 1886   4.990   5.712   2.696
   15SAPS   O22 1887   5.070   5.663   2.618
   15SAPS   C22 1888   4.961   5.660   2.837
   15SAPS   H2R 1889   5.056   5.661   2.894
   15SAPS   H2S 1890   4.890   5.730   2.887
   15SAPS    C3 1891   4.811   5.997   2.558
   15SAPS    HX 1892   4.785   6.033   2.456
   15SAPS    HY 1893   4.857   6.080   2.614
   15SAPS   O31 1894   4.694   5.946   2.623
   15SAPS   C31 1895   4.614   6.037   2.673
   15SAPS   O32 1896   4.620   6.156   2.648
   15SAPS   C32 1897   4.512   5.969   2.764
   15SAPS   H2X 1898   4.443   5.918   2.694
   15SAPS   H2Y 1899   4.456   6.048   2.819
   15SAPS   C23 1900   4.896   5.520   2.842
   15SAPS   H3R 1901   4.962   5.446   2.793
   15SAPS   H3S 1902   4.801   5.523   2.785
   15SAPS   C24 1903   4.864   5.476   2.987
   15SAPS   H4R 1904   4.802   5.384   2.982
   15SAPS   H4S 1905   4.802   5.555   3.036
   15SAPS   C25 1906   4.990   5.449   3.065
   15SAPS   H5R 1907   5.065   5.392   3.007
   15SAPS   C26 1908   5.021   5.483   3.191
   15SAPS   H6R 1909   5.120   5.453   3.227
   15SAPS   C27 1910   4.936   5.559   3.292
   15SAPS   H7R 1911   4.831   5.525   3.287
   15SAPS   H7S 1912   4.937   5.667   3.268
   15SAPS   C28 1913   4.991   5.535   3.431
   15SAPS   H8R 1914   5.024   5.432   3.448
   15SAPS   C29 1915   5.002   5.620   3.536
   15SAPS   H9R 1916   5.050   5.579   3.626
   15SAPS  C210 1917   4.964   5.766   3.550
   15SAPS  H10R 1918   4.898   5.798   3.467
   15SAPS  H10S 1919   5.056   5.828   3.547
   15SAPS  C211 1920   4.897   5.786   3.684
   15SAPS  H11R 1921   4.866   5.694   3.734
   15SAPS  C212 1922   4.872   5.899   3.752
   15SAPS  H12R 1923   4.821   5.888   3.848
   15SAPS  C213 1924   4.902   6.042   3.713
   15SAPS  H13R 1925   4.866   6.062   3.610
   15SAPS  H13S 1926   5.012   6.058   3.709
   15SAPS  C214 1927   4.839   6.140   3.809
   15SAPS  H14R 1928   4.758   6.200   3.765
   15SAPS  C215 1929   4.872   6.164   3.938
   15SAPS  H15R 1930   4.815   6.238   3.995
   15SAPS  C216 1931   4.984   6.099   4.013
   15SAPS  H16R 1932   5.045   6.182   4.053
   15SAPS  H16S 1933   5.048   6.040   3.943
   15SAPS  C217 1934   4.960   6.004   4.130
   15SAPS  H17R 1935   4.938   5.902   4.090
   15SAPS  H17S 1936   4.872   6.035   4.191
   15SAPS  C218 1937   5.085   6.003   4.219
   15SAPS  H18R 1938   5.071   6.074   4.303
   15SAPS  H18S 1939   5.172   6.039   4.160
   15SAPS  C219 1940   5.124   5.865   4.271
   15SAPS  H19R 1941   5.038   5.818   4.323
   15SAPS  H19S 1942   5.206   5.876   4.345
   15SAPS  C220 1943   5.174   5.777   4.157
   15SAPS  H20R 1944   5.278   5.743   4.177
   15SAPS  H20S 1945   5.169   5.832   4.061
   15SAPS  H20T 1946   5.112   5.685   4.143
   15SAPS   C33 1947   4.572   5.864   2.862
   15SAPS   H3X 1948   4.667   5.823   2.823
   15SAPS   H3Y 1949   4.501   5.779   2.867
   15SAPS   C34 1950   4.592   5.916   3.005
   15SAPS   H4X 1951   4.493   5.944   3.047
   15SAPS   H4Y 1952   4.655   6.007   3.003
   15SAPS   C35 1953   4.658   5.810   3.095
   15SAPS   H5X 1954   4.762   5.795   3.058
   15SAPS   H5Y 1955   4.605   5.713   3.084
   15SAPS   C36 1956   4.665   5.848   3.244
   15SAPS   H6X 1957   4.691   5.956   3.253
   15SAPS   H6Y 1958   4.747   5.791   3.293
   15SAPS   C37 1959   4.535   5.819   3.322
   15SAPS   H7X 1960   4.450   5.855   3.261
   15SAPS   H7Y 1961   4.536   5.876   3.417
   15SAPS   C38 1962   4.515   5.670   3.355
   15SAPS   H8X 1963   4.550   5.606   3.271
   15SAPS   H8Y 1964   4.406   5.650   3.367
   15SAPS   C39 1965   4.582   5.625   3.486
   15SAPS   H9X 1966   4.550   5.692   3.568
   15SAPS   H9Y 1967   4.692   5.637   3.473
   15SAPS  C310 1968   4.548   5.480   3.524
   15SAPS  H10X 1969   4.594   5.414   3.447
   15SAPS  H10Y 1970   4.437   5.467   3.520
   15SAPS  C311 1971   4.597   5.436   3.663
   15SAPS  H11X 1972   4.565   5.331   3.682
   15SAPS  H11Y 1973   4.552   5.501   3.740
   15SAPS  C312 1974   4.750   5.444   3.670
   15SAPS  H12X 1975   4.777   5.547   3.640
   15SAPS  H12Y 1976   4.792   5.375   3.593
   15SAPS  C313 1977   4.817   5.415   3.805
   15SAPS  H13X 1978   4.926   5.425   3.788
   15SAPS  H13Y 1979   4.798   5.309   3.833
   15SAPS  C314 1980   4.779   5.505   3.924
   15SAPS  H14X 1981   4.671   5.497   3.946
   15SAPS  H14Y 1982   4.800   5.611   3.900
   15SAPS  C315 1983   4.865   5.464   4.045
   15SAPS  H15X 1984   4.967   5.454   4.003
   15SAPS  H15Y 1985   4.837   5.364   4.084
   15SAPS  C316 1986   4.885   5.568   4.157
   15SAPS  H16X 1987   4.877   5.671   4.117
   15SAPS  H16Y 1988   4.990   5.549   4.188
   15SAPS  C317 1989   4.809   5.553   4.289
   15SAPS  H17X 1990   4.700   5.560   4.270
   15SAPS  H17Y 1991   4.836   5.639   4.353
   15SAPS  C318 1992   4.846   5.425   4.365
   15SAPS  H18X 1993   4.830   5.334   4.303
   15SAPS  H18Y 1994   4.786   5.415   4.458
   15SAPS  H18Z 1995   4.954   5.425   4.393
   16SAPS     N 1996   5.854   4.510   2.129
   16SAPS   HN1 1997   5.825   4.410   2.134
   16SAPS   HN2 1998   5.793   4.563   2.063
   16SAPS   HN3 1999   5.954   4.517   2.100
   16SAPS   C12 2000   5.837   4.573   2.262
   16SAPS  H12A 2001   5.761   4.518   2.315
   16SAPS   C13 2002   5.966   4.563   2.348
   16SAPS  O13A 2003   6.055   4.482   2.310
   16SAPS  O13B 2004   5.958   4.604   2.466
   16SAPS   C11 2005   5.786   4.718   2.240
   16SAPS  H11A 2006   5.866   4.778   2.192
   16SAPS  H11B 2007   5.766   4.762   2.340
   16SAPS     P 2008   5.581   4.847   2.141
   16SAPS   O13 2009   5.672   4.959   2.109
   16SAPS   O14 2010   5.473   4.816   2.045
   16SAPS   O12 2011   5.668   4.714   2.158
   16SAPS   O11 2012   5.511   4.864   2.283
   16SAPS    C1 2013   5.454   4.749   2.349
   16SAPS    HA 2014   5.345   4.745   2.330
   16SAPS    HB 2015   5.498   4.653   2.313
   16SAPS    C2 2016   5.475   4.750   2.503
   16SAPS    HS 2017   5.424   4.840   2.543
   16SAPS   O21 2018   5.616   4.752   2.530
   16SAPS   C21 2019   5.647   4.807   2.647
   16SAPS   O22 2020   5.567   4.859   2.723
   16SAPS   C22 2021   5.794   4.790   2.677
   16SAPS   H2R 2022   5.827   4.689   2.646
   16SAPS   H2S 2023   5.850   4.866   2.618
   16SAPS    C3 2024   5.410   4.620   2.563
   16SAPS    HX 2025   5.439   4.538   2.494
   16SAPS    HY 2026   5.299   4.632   2.556
   16SAPS   O31 2027   5.453   4.581   2.695
   16SAPS   C31 2028   5.390   4.645   2.794
   16SAPS   O32 2029   5.302   4.727   2.777
   16SAPS   C32 2030   5.433   4.587   2.928
   16SAPS   H2X 2031   5.535   4.544   2.920
   16SAPS   H2Y 2032   5.361   4.505   2.951
   16SAPS   C23 2033   5.821   4.808   2.828
   16SAPS   H3R 2034   5.791   4.716   2.883
   16SAPS   H3S 2035   5.754   4.888   2.868
   16SAPS   C24 2036   5.965   4.851   2.860
   16SAPS   H4R 2037   5.962   4.912   2.953
   16SAPS   H4S 2038   6.004   4.918   2.780
   16SAPS   C25 2039   6.055   4.733   2.881
   16SAPS   H5R 2040   6.116   4.702   2.795
   16SAPS   C26 2041   6.061   4.664   2.997
   16SAPS   H6R 2042   6.123   4.574   3.003
   16SAPS   C27 2043   5.981   4.691   3.121
   16SAPS   H7R 2044   5.947   4.797   3.127
   16SAPS   H7S 2045   6.045   4.674   3.209
   16SAPS   C28 2046   5.862   4.599   3.124
   16SAPS   H8R 2047   5.840   4.541   3.032
   16SAPS   C29 2048   5.780   4.586   3.229
   16SAPS   H9R 2049   5.697   4.514   3.225
   16SAPS  C210 2050   5.796   4.663   3.357
   16SAPS  H10R 2051   5.903   4.682   3.382
   16SAPS  H10S 2052   5.753   4.606   3.443
   16SAPS  C211 2053   5.723   4.792   3.336
   16SAPS  H11R 2054   5.668   4.803   3.242
   16SAPS  C212 2055   5.721   4.897   3.419
   16SAPS  H12R 2056   5.653   4.979   3.390
   16SAPS  C213 2057   5.791   4.912   3.551
   16SAPS  H13R 2058   5.806   4.812   3.597
   16SAPS  H13S 2059   5.725   4.966   3.622
   16SAPS  C214 2060   5.921   4.987   3.534
   16SAPS  H14R 2061   5.944   5.023   3.433
   16SAPS  C215 2062   6.010   5.011   3.632
   16SAPS  H15R 2063   6.103   5.064   3.608
   16SAPS  C216 2064   5.995   4.966   3.774
   16SAPS  H16R 2065   5.889   4.944   3.801
   16SAPS  H16S 2066   6.029   5.046   3.843
   16SAPS  C217 2067   6.079   4.839   3.797
   16SAPS  H17R 2068   6.079   4.820   3.907
   16SAPS  H17S 2069   6.185   4.859   3.768
   16SAPS  C218 2070   6.027   4.715   3.724
   16SAPS  H18R 2071   5.994   4.743   3.621
   16SAPS  H18S 2072   5.939   4.673   3.777
   16SAPS  C219 2073   6.133   4.607   3.698
   16SAPS  H19R 2074   6.216   4.654   3.642
   16SAPS  H19S 2075   6.089   4.529   3.632
   16SAPS  C220 2076   6.187   4.542   3.824
   16SAPS  H20R 2077   6.238   4.617   3.888
   16SAPS  H20S 2078   6.258   4.460   3.799
   16SAPS  H20T 2079   6.106   4.496   3.884
   16SAPS   C33 2080   5.429   4.691   3.043
   16SAPS   H3X 2081   5.346   4.763   3.027
   16SAPS   H3Y 2082   5.523   4.750   3.043
   16SAPS   C34 2083   5.409   4.625   3.180
   16SAPS   H4X 2084   5.496   4.561   3.203
   16SAPS   H4Y 2085   5.319   4.559   3.179
   16SAPS   C35 2086   5.392   4.730   3.291
   16SAPS   H5X 2087   5.290   4.774   3.286
   16SAPS   H5Y 2088   5.463   4.813   3.270
   16SAPS   C36 2089   5.417   4.677   3.432
   16SAPS   H6X 2090   5.518   4.632   3.436
   16SAPS   H6Y 2091   5.345   4.597   3.458
   16SAPS   C37 2092   5.410   4.789   3.537
   16SAPS   H7X 2093   5.305   4.825   3.548
   16SAPS   H7Y 2094   5.471   4.876   3.507
   16SAPS   C38 2095   5.459   4.737   3.672
   16SAPS   H8X 2096   5.561   4.695   3.661
   16SAPS   H8Y 2097   5.392   4.653   3.701
   16SAPS   C39 2098   5.460   4.841   3.785
   16SAPS   H9X 2099   5.369   4.904   3.782
   16SAPS   H9Y 2100   5.550   4.907   3.777
   16SAPS  C310 2101   5.463   4.761   3.915
   16SAPS  H10X 2102   5.548   4.690   3.906
   16SAPS  H10Y 2103   5.368   4.702   3.914
   16SAPS  C311 2104   5.474   4.835   4.048
   16SAPS  H11X 2105   5.417   4.930   4.042
   16SAPS  H11Y 2106   5.581   4.862   4.064
   16SAPS  C312 2107   5.422   4.754   4.168
   16SAPS  H12X 2108   5.325   4.797   4.200
   16SAPS  H12Y 2109   5.492   4.767   4.253
   16SAPS  C313 2110   5.398   4.602   4.146
   16SAPS  H13X 2111   5.314   4.586   4.076
   16SAPS  H13Y 2112   5.363   4.561   4.243
   16SAPS  C314 2113   5.520   4.523   4.097
   16SAPS  H14X 2114   5.609   4.590   4.099
   16SAPS  H14Y 2115   5.504   4.495   3.991
   16SAPS  C315 2116   5.552   4.395   4.175
   16SAPS  H15X 2117   5.537   4.307   4.109
   16SAPS  H15Y 2118   5.479   4.382   4.258
   16SAPS  C316 2119   5.695   4.392   4.230
   16SAPS  H16X 2120   5.767   4.395   4.146
   16SAPS  H16Y 2121   5.710   4.296   4.284
   16SAPS  C317 2122   5.730   4.509   4.322
   16SAPS  H17X 2123   5.638   4.554   4.366
   16SAPS  H17Y 2124   5.778   4.589   4.261
   16SAPS  C318 2125   5.824   4.466   4.434
   16SAPS  H18X 2126   5.855   4.555   4.493
   16SAPS  H18Y 2127   5.915   4.417   4.394
   16SAPS  H18Z 2128   5.774   4.395   4.504
   17SAPS     N 2129   2.049   5.752   2.196
   17SAPS   HN1 2130   2.088   5.848   2.204
   17SAPS   HN2 2131   2.010   5.721   2.287
   17SAPS   HN3 2132   2.118   5.685   2.158
   17SAPS   C12 2133   1.933   5.756   2.101
   17SAPS  H12A 2134   1.901   5.858   2.092
   17SAPS   C13 2135   1.968   5.703   1.961
   17SAPS  O13A 2136   2.083   5.655   1.940
   17SAPS  O13B 2137   1.883   5.713   1.869
   17SAPS   C11 2138   1.819   5.671   2.163
   17SAPS  H11A 2139   1.843   5.563   2.150
   17SAPS  H11B 2140   1.725   5.691   2.107
   17SAPS     P 2141   1.710   5.612   2.391
   17SAPS   O13 2142   1.711   5.667   2.528
   17SAPS   O14 2143   1.581   5.597   2.322
   17SAPS   O12 2144   1.803   5.705   2.301
   17SAPS   O11 2145   1.792   5.478   2.384
   17SAPS    C1 2146   1.934   5.473   2.397
   17SAPS    HA 2147   1.979   5.443   2.300
   17SAPS    HB 2148   1.975   5.572   2.425
   17SAPS    C2 2149   1.980   5.372   2.505
   17SAPS    HS 2150   1.960   5.271   2.462
   17SAPS   O21 2151   1.904   5.395   2.624
   17SAPS   C21 2152   1.868   5.288   2.691
   17SAPS   O22 2153   1.894   5.172   2.664
   17SAPS   C22 2154   1.784   5.331   2.811
   17SAPS   H2R 2155   1.693   5.377   2.769
   17SAPS   H2S 2156   1.755   5.240   2.868
   17SAPS    C3 2157   2.131   5.386   2.536
   17SAPS    HX 2158   2.189   5.402   2.443
   17SAPS    HY 2159   2.164   5.288   2.577
   17SAPS   O31 2160   2.154   5.488   2.636
   17SAPS   C31 2161   2.165   5.612   2.595
   17SAPS   O32 2162   2.197   5.649   2.483
   17SAPS   C32 2163   2.120   5.707   2.705
   17SAPS   H2X 2164   2.200   5.783   2.720
   17SAPS   H2Y 2165   2.105   5.651   2.800
   17SAPS   C23 2166   1.855   5.432   2.904
   17SAPS   H3R 2167   1.928   5.494   2.848
   17SAPS   H3S 2168   1.911   5.376   2.982
   17SAPS   C24 2169   1.751   5.527   2.965
   17SAPS   H4R 2170   1.664   5.466   2.997
   17SAPS   H4S 2171   1.714   5.595   2.886
   17SAPS   C25 2172   1.807   5.607   3.080
   17SAPS   H5R 2173   1.861   5.698   3.053
   17SAPS   C26 2174   1.799   5.573   3.210
   17SAPS   H6R 2175   1.844   5.639   3.285
   17SAPS   C27 2176   1.733   5.449   3.264
   17SAPS   H7R 2177   1.667   5.399   3.190
   17SAPS   H7S 2178   1.666   5.477   3.348
   17SAPS   C28 2179   1.843   5.354   3.303
   17SAPS   H8R 2180   1.907   5.318   3.220
   17SAPS   C29 2181   1.868   5.311   3.427
   17SAPS   H9R 2182   1.949   5.238   3.444
   17SAPS  C210 2183   1.790   5.348   3.550
   17SAPS  H10R 2184   1.728   5.439   3.537
   17SAPS  H10S 2185   1.862   5.374   3.631
   17SAPS  C211 2186   1.702   5.231   3.581
   17SAPS  H11R 2187   1.625   5.208   3.506
   17SAPS  C212 2188   1.710   5.154   3.691
   17SAPS  H12R 2189   1.638   5.073   3.704
   17SAPS  C213 2190   1.809   5.173   3.803
   17SAPS  H13R 2191   1.749   5.176   3.897
   17SAPS  H13S 2192   1.863   5.269   3.799
   17SAPS  C214 2193   1.906   5.061   3.817
   17SAPS  H14R 2194   1.912   4.994   3.730
   17SAPS  C215 2195   1.989   5.041   3.921
   17SAPS  H15R 2196   2.044   4.946   3.925
   17SAPS  C216 2197   2.004   5.127   4.043
   17SAPS  H16R 2198   1.961   5.227   4.024
   17SAPS  H16S 2199   2.112   5.143   4.061
   17SAPS  C217 2200   1.945   5.071   4.174
   17SAPS  H17R 2201   1.836   5.053   4.160
   17SAPS  H17S 2202   1.953   5.150   4.253
   17SAPS  C218 2203   2.014   4.944   4.225
   17SAPS  H18R 2204   2.068   4.893   4.143
   17SAPS  H18S 2205   1.935   4.873   4.261
   17SAPS  C219 2206   2.111   4.970   4.341
   17SAPS  H19R 2207   2.055   5.016   4.425
   17SAPS  H19S 2208   2.188   5.043   4.308
   17SAPS  C220 2209   2.180   4.843   4.392
   17SAPS  H20R 2210   2.242   4.798   4.312
   17SAPS  H20S 2211   2.105   4.768   4.424
   17SAPS  H20T 2212   2.245   4.866   4.479
   17SAPS   C33 2213   1.988   5.775   2.661
   17SAPS   H3X 2214   1.905   5.703   2.673
   17SAPS   H3Y 2215   1.992   5.801   2.553
   17SAPS   C34 2216   1.952   5.905   2.735
   17SAPS   H4X 2217   1.874   5.955   2.674
   17SAPS   H4Y 2218   2.039   5.974   2.741
   17SAPS   C35 2219   1.892   5.882   2.873
   17SAPS   H5X 2220   1.971   5.852   2.946
   17SAPS   H5Y 2221   1.820   5.797   2.863
   17SAPS   C36 2222   1.812   6.002   2.925
   17SAPS   H6X 2223   1.743   6.034   2.844
   17SAPS   H6Y 2224   1.879   6.088   2.947
   17SAPS   C37 2225   1.724   5.970   3.047
   17SAPS   H7X 2226   1.670   5.874   3.029
   17SAPS   H7Y 2227   1.647   6.049   3.058
   17SAPS   C38 2228   1.801   5.960   3.180
   17SAPS   H8X 2229   1.843   6.060   3.204
   17SAPS   H8Y 2230   1.886   5.889   3.170
   17SAPS   C39 2231   1.711   5.916   3.295
   17SAPS   H9X 2232   1.663   5.819   3.268
   17SAPS   H9Y 2233   1.629   5.990   3.308
   17SAPS  C310 2234   1.785   5.901   3.429
   17SAPS  H10X 2235   1.838   5.997   3.450
   17SAPS  H10Y 2236   1.862   5.821   3.422
   17SAPS  C311 2237   1.690   5.871   3.545
   17SAPS  H11X 2238   1.610   5.949   3.546
   17SAPS  H11Y 2239   1.745   5.880   3.641
   17SAPS  C312 2240   1.623   5.733   3.539
   17SAPS  H12X 2241   1.697   5.656   3.569
   17SAPS  H12Y 2242   1.591   5.710   3.435
   17SAPS  C313 2243   1.497   5.723   3.628
   17SAPS  H13X 2244   1.462   5.618   3.629
   17SAPS  H13Y 2245   1.417   5.785   3.582
   17SAPS  C314 2246   1.518   5.771   3.772
   17SAPS  H14X 2247   1.421   5.766   3.826
   17SAPS  H14Y 2248   1.549   5.878   3.773
   17SAPS  C315 2249   1.622   5.688   3.848
   17SAPS  H15X 2250   1.716   5.683   3.789
   17SAPS  H15Y 2251   1.584   5.584   3.857
   17SAPS  C316 2252   1.658   5.745   3.986
   17SAPS  H16X 2253   1.707   5.843   3.972
   17SAPS  H16Y 2254   1.733   5.678   4.032
   17SAPS  C317 2255   1.540   5.764   4.084
   17SAPS  H17X 2256   1.485   5.856   4.053
   17SAPS  H17Y 2257   1.586   5.784   4.183
   17SAPS  C318 2258   1.441   5.649   4.101
   17SAPS  H18X 2259   1.402   5.614   4.003
   17SAPS  H18Y 2260   1.354   5.683   4.162
   17SAPS  H18Z 2261   1.488   5.564   4.154
   18SAPS     N 2262   6.981   4.076   2.135
   18SAPS   HN1 2263   7.030   4.090   2.226
   18SAPS   HN2 2264   7.053   4.049   2.065
   18SAPS   HN3 2265   6.931   4.162   2.107
   18SAPS   C12 2266   6.892   3.956   2.143
   18SAPS  H12A 2267   6.818   3.965   2.065
   18SAPS   C13 2268   6.974   3.827   2.112
   18SAPS  O13A 2269   7.093   3.844   2.071
   18SAPS  O13B 2270   6.911   3.721   2.082
   18SAPS   C11 2271   6.823   3.952   2.282
   18SAPS  H11A 2272   6.805   4.054   2.321
   18SAPS  H11B 2273   6.891   3.902   2.355
   18SAPS     P 2274   6.564   3.950   2.240
   18SAPS   O13 2275   6.592   4.063   2.148
   18SAPS   O14 2276   6.467   3.850   2.190
   18SAPS   O12 2277   6.700   3.879   2.276
   18SAPS   O11 2278   6.514   4.007   2.379
   18SAPS    C1 2279   6.454   3.920   2.476
   18SAPS    HA 2280   6.349   3.954   2.494
   18SAPS    HB 2281   6.449   3.814   2.444
   18SAPS    C2 2282   6.529   3.923   2.612
   18SAPS    HS 2283   6.526   4.028   2.649
   18SAPS   O21 2284   6.664   3.878   2.590
   18SAPS   C21 2285   6.754   3.927   2.673
   18SAPS   O22 2286   6.734   4.006   2.763
   18SAPS   C22 2287   6.892   3.870   2.638
   18SAPS   H2R 2288   6.883   3.802   2.551
   18SAPS   H2S 2289   6.955   3.958   2.610
   18SAPS    C3 2290   6.455   3.832   2.715
   18SAPS    HX 2291   6.440   3.732   2.670
   18SAPS    HY 2292   6.354   3.876   2.731
   18SAPS   O31 2293   6.522   3.825   2.844
   18SAPS   C31 2294   6.600   3.720   2.864
   18SAPS   O32 2295   6.621   3.630   2.785
   18SAPS   C32 2296   6.658   3.727   3.005
   18SAPS   H2X 2297   6.576   3.758   3.073
   18SAPS   H2Y 2298   6.737   3.805   3.006
   18SAPS   C23 2299   6.958   3.795   2.756
   18SAPS   H3R 2300   6.913   3.694   2.763
   18SAPS   H3S 2301   6.937   3.848   2.852
   18SAPS   C24 2302   7.111   3.786   2.739
   18SAPS   H4R 2303   7.153   3.888   2.749
   18SAPS   H4S 2304   7.131   3.754   2.634
   18SAPS   C25 2305   7.179   3.690   2.833
   18SAPS   H5R 2306   7.216   3.598   2.785
   18SAPS   C26 2307   7.196   3.706   2.966
   18SAPS   H6R 2308   7.245   3.625   3.022
   18SAPS   C27 2309   7.149   3.823   3.048
   18SAPS   H7R 2310   7.060   3.791   3.105
   18SAPS   H7S 2311   7.114   3.906   2.983
   18SAPS   C28 2312   7.255   3.878   3.141
   18SAPS   H8R 2313   0.056   3.865   3.109
   18SAPS   C29 2314   7.229   3.940   3.258
   18SAPS   H9R 2315   0.009   3.976   3.320
   18SAPS  C210 2316   7.090   3.963   3.312
   18SAPS  H10R 2317   7.057   3.865   3.353
   18SAPS  H10S 2318   7.021   3.986   3.228
   18SAPS  C211 2319   7.075   4.069   3.418
   18SAPS  H11R 2320   7.169   4.115   3.454
   18SAPS  C212 2321   6.960   4.110   3.475
   18SAPS  H12R 2322   6.964   4.189   3.551
   18SAPS  C213 2323   6.820   4.059   3.447
   18SAPS  H13R 2324   6.780   4.109   3.356
   18SAPS  H13S 2325   6.753   4.090   3.530
   18SAPS  C214 2326   6.808   3.910   3.431
   18SAPS  H14R 2327   6.767   3.878   3.334
   18SAPS  C215 2328   6.847   3.815   3.518
   18SAPS  H15R 2329   6.838   3.709   3.488
   18SAPS  C216 2330   6.910   3.834   3.654
   18SAPS  H16R 2331   6.854   3.770   3.726
   18SAPS  H16S 2332   6.902   3.939   3.690
   18SAPS  C217 2333   7.057   3.790   3.660
   18SAPS  H17R 2334   7.122   3.863   3.607
   18SAPS  H17S 2335   7.068   3.693   3.607
   18SAPS  C218 2336   7.105   3.771   3.804
   18SAPS  H18R 2337   7.017   3.750   3.869
   18SAPS  H18S 2338   7.152   3.865   3.842
   18SAPS  C219 2339   7.202   3.653   3.819
   18SAPS  H19R 2340   7.293   3.674   3.759
   18SAPS  H19S 2341   7.154   3.563   3.776
   18SAPS  C220 2342   7.240   3.625   3.964
   18SAPS  H20R 2343   0.010   3.542   3.970
   18SAPS  H20S 2344   7.150   3.597   4.024
   18SAPS  H20T 2345   7.284   3.715   4.011
   18SAPS   C33 2346   6.715   3.591   3.051
   18SAPS   H3X 2347   6.806   3.565   2.993
   18SAPS   H3Y 2348   6.641   3.511   3.032
   18SAPS   C34 2349   6.748   3.592   3.202
   18SAPS   H4X 2350   6.717   3.692   3.240
   18SAPS   H4Y 2351   6.857   3.584   3.218
   18SAPS   C35 2352   6.674   3.483   3.281
   18SAPS   H5X 2353   6.729   3.388   3.269
   18SAPS   H5Y 2354   6.573   3.468   3.236
   18SAPS   C36 2355   6.654   3.514   3.431
   18SAPS   H6X 2356   6.753   3.522   3.480
   18SAPS   H6Y 2357   6.602   3.428   3.479
   18SAPS   C37 2358   6.570   3.639   3.459
   18SAPS   H7X 2359   6.471   3.633   3.408
   18SAPS   H7Y 2360   6.619   3.729   3.416
   18SAPS   C38 2361   6.548   3.663   3.609
   18SAPS   H8X 2362   6.641   3.640   3.665
   18SAPS   H8Y 2363   6.469   3.592   3.645
   18SAPS   C39 2364   6.506   3.807   3.643
   18SAPS   H9X 2365   6.426   3.841   3.574
   18SAPS   H9Y 2366   6.594   3.874   3.628
   18SAPS  C310 2367   6.457   3.818   3.788
   18SAPS  H10X 2368   6.525   3.758   3.852
   18SAPS  H10Y 2369   6.357   3.772   3.794
   18SAPS  C311 2370   6.448   3.960   3.845
   18SAPS  H11X 2371   6.406   3.950   3.948
   18SAPS  H11Y 2372   6.377   4.021   3.785
   18SAPS  C312 2373   6.581   4.037   3.858
   18SAPS  H12X 2374   6.565   4.126   3.922
   18SAPS  H12Y 2375   6.611   4.073   3.758
   18SAPS  C313 2376   6.698   3.954   3.916
   18SAPS  H13X 2377   6.788   4.019   3.922
   18SAPS  H13Y 2378   6.720   3.873   3.844
   18SAPS  C314 2379   6.674   3.890   4.053
   18SAPS  H14X 2380   6.581   3.830   4.052
   18SAPS  H14Y 2381   6.661   3.970   4.129
   18SAPS  C315 2382   6.792   3.800   4.093
   18SAPS  H15X 2383   6.830   3.833   4.192
   18SAPS  H15Y 2384   6.875   3.813   4.020
   18SAPS  C316 2385   6.758   3.650   4.102
   18SAPS  H16X 2386   6.723   3.613   4.003
   18SAPS  H16Y 2387   6.673   3.638   4.173
   18SAPS  C317 2388   6.876   3.565   4.151
   18SAPS  H17X 2389   6.935   3.624   4.224
   18SAPS  H17Y 2390   6.942   3.543   4.064
   18SAPS  C318 2391   6.835   3.433   4.219
   18SAPS  H18X 2392   6.786   3.454   4.317
   18SAPS  H18Y 2393   6.925   3.370   4.238
   18SAPS  H18Z 2394   6.765   3.376   4.155
   19SAPS     N 2395   2.414   0.311   2.319
   19SAPS   HN1 2396   2.454   0.226   2.365
   19SAPS   HN2 2397   2.366   0.365   2.393
   19SAPS   HN3 2398   2.349   0.287   2.242
   19SAPS   C12 2399   2.531   0.391   2.270
   19SAPS  H12A 2400   2.494   0.482   2.225
   19SAPS   C13 2401   2.626   0.431   2.386
   19SAPS  O13A 2402   2.604   0.379   2.499
   19SAPS  O13B 2403   2.696   0.534   2.370
   19SAPS   C11 2404   2.608   0.305   2.163
   19SAPS  H11A 2405   2.533   0.251   2.100
   19SAPS  H11B 2406   2.667   0.229   2.217
   19SAPS     P 2407   2.794   0.313   1.980
   19SAPS   O13 2408   2.719   0.218   1.895
   19SAPS   O14 2409   2.870   0.417   1.907
   19SAPS   O12 2410   2.690   0.384   2.076
   19SAPS   O11 2411   2.892   0.235   2.075
   19SAPS    C1 2412   2.946   0.303   2.189
   19SAPS    HA 2413   3.043   0.349   2.163
   19SAPS    HB 2414   2.880   0.384   2.227
   19SAPS    C2 2415   2.966   0.207   2.309
   19SAPS    HS 2416   3.048   0.138   2.281
   19SAPS   O21 2417   2.847   0.132   2.335
   19SAPS   C21 2418   2.860   0.034   2.423
   19SAPS   O22 2419   2.964   7.302   2.476
   19SAPS   C22 2420   2.720   7.280   2.450
   19SAPS   H2R 2421   2.655   0.060   2.483
   19SAPS   H2S 2422   2.683   7.242   2.353
   19SAPS    C3 2423   3.013   0.289   2.433
   19SAPS    HX 2424   3.112   0.331   2.404
   19SAPS    HY 2425   3.024   0.220   2.518
   19SAPS   O31 2426   2.921   0.390   2.477
   19SAPS   C31 2427   2.978   0.493   2.537
   19SAPS   O32 2428   3.096   0.523   2.528
   19SAPS   C32 2429   2.880   0.566   2.626
   19SAPS   H2X 2430   2.783   0.511   2.629
   19SAPS   H2Y 2431   2.861   0.665   2.580
   19SAPS   C23 2432   2.718   7.164   2.553
   19SAPS   H3R 2433   2.794   7.089   2.523
   19SAPS   H3S 2434   2.619   7.115   2.548
   19SAPS   C24 2435   2.744   7.208   2.699
   19SAPS   H4R 2436   2.840   7.263   2.699
   19SAPS   H4S 2437   2.761   7.116   2.760
   19SAPS   C25 2438   2.638   7.295   2.760
   19SAPS   H5R 2439   2.636   0.095   2.723
   19SAPS   C26 2440   2.548   7.260   2.854
   19SAPS   H6R 2441   2.477   0.032   2.891
   19SAPS   C27 2442   2.531   7.124   2.919
   19SAPS   H7R 2443   2.570   7.045   2.852
   19SAPS   H7S 2444   2.423   7.102   2.928
   19SAPS   C28 2445   2.596   7.107   3.055
   19SAPS   H8R 2446   2.684   7.041   3.055
   19SAPS   C29 2447   2.558   7.162   3.172
   19SAPS   H9R 2448   2.617   7.139   3.262
   19SAPS  C210 2449   2.442   7.255   3.197
   19SAPS  H10R 2450   2.378   7.213   3.278
   19SAPS  H10S 2451   2.376   7.262   3.107
   19SAPS  C211 2452   2.492   0.090   3.231
   19SAPS  H11R 2453   2.557   0.134   3.154
   19SAPS  C212 2454   2.469   0.163   3.343
   19SAPS  H12R 2455   2.518   0.261   3.352
   19SAPS  C213 2456   2.385   0.125   3.463
   19SAPS  H13R 2457   2.317   0.042   3.436
   19SAPS  H13S 2458   2.320   0.210   3.490
   19SAPS  C214 2459   2.467   0.081   3.582
   19SAPS  H14R 2460   2.475   7.276   3.593
   19SAPS  C215 2461   2.531   0.158   3.673
   19SAPS  H15R 2462   2.593   0.107   3.748
   19SAPS  C216 2463   2.538   0.309   3.679
   19SAPS  H16R 2464   2.451   0.354   3.628
   19SAPS  H16S 2465   2.628   0.349   3.627
   19SAPS  C217 2466   2.542   0.359   3.825
   19SAPS  H17R 2467   2.453   0.320   3.878
   19SAPS  H17S 2468   2.533   0.470   3.820
   19SAPS  C218 2469   2.666   0.329   3.911
   19SAPS  H18R 2470   2.681   0.220   3.924
   19SAPS  H18S 2471   2.644   0.370   4.012
   19SAPS  C219 2472   2.798   0.391   3.865
   19SAPS  H19R 2473   2.779   0.477   3.796
   19SAPS  H19S 2474   2.855   0.316   3.806
   19SAPS  C220 2475   2.883   0.440   3.983
   19SAPS  H20R 2476   2.839   0.533   4.026
   19SAPS  H20S 2477   2.987   0.461   3.952
   19SAPS  H20T 2478   2.885   0.364   4.064
   19SAPS   C33 2479   2.937   0.581   2.769
   19SAPS   H3X 2480   3.047   0.569   2.772
   19SAPS   H3Y 2481   2.893   0.501   2.832
   19SAPS   C34 2482   2.904   0.718   2.829
   19SAPS   H4X 2483   2.801   0.746   2.800
   19SAPS   H4Y 2484   2.973   0.795   2.789
   19SAPS   C35 2485   2.911   0.714   2.982
   19SAPS   H5X 2486   2.831   0.644   3.014
   19SAPS   H5Y 2487   2.887   0.815   3.022
   19SAPS   C36 2488   3.044   0.666   3.040
   19SAPS   H6X 2489   3.126   0.730   3.002
   19SAPS   H6Y 2490   3.064   0.562   3.008
   19SAPS   C37 2491   3.044   0.672   3.193
   19SAPS   H7X 2492   3.031   0.778   3.222
   19SAPS   H7Y 2493   3.142   0.637   3.232
   19SAPS   C38 2494   2.933   0.592   3.261
   19SAPS   H8X 2495   2.834   0.617   3.216
   19SAPS   H8Y 2496   2.926   0.619   3.368
   19SAPS   C39 2497   2.948   0.441   3.254
   19SAPS   H9X 2498   3.037   0.412   3.315
   19SAPS   H9Y 2499   2.967   0.408   3.150
   19SAPS  C310 2500   2.820   0.375   3.307
   19SAPS  H10X 2501   2.737   0.400   3.238
   19SAPS  H10Y 2502   2.794   0.416   3.407
   19SAPS  C311 2503   2.836   0.225   3.316
   19SAPS  H11X 2504   2.882   0.190   3.221
   19SAPS  H11Y 2505   2.738   0.173   3.326
   19SAPS  C312 2506   2.924   0.187   3.434
   19SAPS  H12X 2507   2.992   0.270   3.462
   19SAPS  H12Y 2508   2.990   0.103   3.400
   19SAPS  C313 2509   2.845   0.143   3.558
   19SAPS  H13X 2510   2.759   0.212   3.569
   19SAPS  H13Y 2511   2.909   0.157   3.647
   19SAPS  C314 2512   2.800   7.299   3.552
   19SAPS  H14X 2513   2.866   7.250   3.478
   19SAPS  H14Y 2514   2.697   7.288   3.511
   19SAPS  C315 2515   2.819   7.220   3.683
   19SAPS  H15X 2516   2.728   7.222   3.747
   19SAPS  H15Y 2517   2.902   7.268   3.740
   19SAPS  C316 2518   2.869   7.079   3.655
   19SAPS  H16X 2519   2.965   7.091   3.600
   19SAPS  H16Y 2520   2.796   7.024   3.590
   19SAPS  C317 2521   2.907   6.993   3.774
   19SAPS  H17X 2522   2.817   6.969   3.835
   19SAPS  H17Y 2523   2.979   7.049   3.839
   19SAPS  C318 2524   2.975   6.865   3.725
   19SAPS  H18X 2525   3.069   6.888   3.669
   19SAPS  H18Y 2526   2.907   6.810   3.656
   19SAPS  H18Z 2527   3.001   6.796   3.809
   20SAPS     N 2528   3.448   0.167   2.121
   20SAPS   HN1 2529   3.430   0.088   2.056
   20SAPS   HN2 2530   3.460   0.135   2.219
   20SAPS   HN3 2531   3.373   0.239   2.111
   20SAPS   C12 2532   3.573   0.234   2.077
   20SAPS  H12A 2533   3.640   0.159   2.038
   20SAPS   C13 2534   3.545   0.340   1.969
   20SAPS  O13A 2535   3.426   0.377   1.950
   20SAPS  O13B 2536   3.641   0.381   1.898
   20SAPS   C11 2537   3.635   0.302   2.201
   20SAPS  H11A 2538   3.569   0.383   2.238
   20SAPS  H11B 2539   3.730   0.350   2.169
   20SAPS     P 2540   3.794   0.167   2.366
   20SAPS   O13 2541   3.808   0.021   2.362
   20SAPS   O14 2542   3.898   0.245   2.293
   20SAPS   O12 2543   3.652   0.206   2.306
   20SAPS   O11 2544   3.783   0.224   2.514
   20SAPS    C1 2545   3.821   0.362   2.533
   20SAPS    HA 2546   3.930   0.371   2.518
   20SAPS    HB 2547   3.771   0.428   2.459
   20SAPS    C2 2548   3.789   0.419   2.675
   20SAPS    HS 2549   3.849   0.512   2.686
   20SAPS   O21 2550   3.823   0.323   2.778
   20SAPS   C21 2551   3.953   0.307   2.793
   20SAPS   O22 2552   4.039   0.376   2.741
   20SAPS   C22 2553   3.983   0.191   2.889
   20SAPS   H2R 2554   3.903   0.115   2.880
   20SAPS   H2S 2555   4.076   0.145   2.852
   20SAPS    C3 2556   3.640   0.463   2.690
   20SAPS    HX 2557   3.604   0.495   2.589
   20SAPS    HY 2558   3.637   0.554   2.754
   20SAPS   O31 2559   3.554   0.359   2.739
   20SAPS   C31 2560   3.548   0.351   2.872
   20SAPS   O32 2561   3.581   0.439   2.949
   20SAPS   C32 2562   3.494   0.216   2.913
   20SAPS   H2X 2563   3.441   0.173   2.825
   20SAPS   H2Y 2564   3.425   0.226   2.999
   20SAPS   C23 2565   4.003   0.233   3.038
   20SAPS   H3R 2566   4.076   0.163   3.084
   20SAPS   H3S 2567   3.909   0.220   3.095
   20SAPS   C24 2568   4.047   0.380   3.060
   20SAPS   H4R 2569   3.966   0.444   3.018
   20SAPS   H4S 2570   4.136   0.402   2.998
   20SAPS   C25 2571   4.074   0.414   3.204
   20SAPS   H5R 2572   4.142   0.348   3.260
   20SAPS   C26 2573   4.013   0.509   3.277
   20SAPS   H6R 2574   4.040   0.521   3.383
   20SAPS   C27 2575   3.903   0.599   3.227
   20SAPS   H7R 2576   3.934   0.649   3.132
   20SAPS   H7S 2577   3.886   0.681   3.300
   20SAPS   C28 2578   3.776   0.522   3.204
   20SAPS   H8R 2579   3.749   0.508   3.098
   20SAPS   C29 2580   3.698   0.466   3.297
   20SAPS   H9R 2581   3.607   0.413   3.265
   20SAPS  C210 2582   3.722   0.470   3.446
   20SAPS  H10R 2583   3.826   0.497   3.472
   20SAPS  H10S 2584   3.706   0.369   3.489
   20SAPS  C211 2585   3.630   0.571   3.509
   20SAPS  H11R 2586   3.672   0.672   3.523
   20SAPS  C212 2587   3.502   0.549   3.545
   20SAPS  H12R 2588   3.446   0.631   3.593
   20SAPS  C213 2589   3.425   0.420   3.532
   20SAPS  H13R 2590   3.491   0.334   3.506
   20SAPS  H13S 2591   3.356   0.430   3.446
   20SAPS  C214 2592   3.346   0.388   3.657
   20SAPS  H14R 2593   3.238   0.376   3.640
   20SAPS  C215 2594   3.394   0.375   3.782
   20SAPS  H15R 2595   3.323   0.353   3.863
   20SAPS  C216 2596   3.537   0.388   3.826
   20SAPS  H16R 2597   3.542   0.390   3.937
   20SAPS  H16S 2598   3.579   0.485   3.792
   20SAPS  C217 2599   3.631   0.276   3.776
   20SAPS  H17R 2600   3.736   0.306   3.797
   20SAPS  H17S 2601   3.623   0.265   3.666
   20SAPS  C218 2602   3.609   0.138   3.841
   20SAPS  H18R 2603   3.685   0.069   3.801
   20SAPS  H18S 2604   3.509   0.098   3.811
   20SAPS  C219 2605   3.622   0.136   3.994
   20SAPS  H19R 2606   3.542   0.197   4.040
   20SAPS  H19S 2607   3.720   0.181   4.021
   20SAPS  C220 2608   3.615   7.297   4.049
   20SAPS  H20R 2609   3.651   7.295   4.154
   20SAPS  H20S 2610   3.681   7.229   3.990
   20SAPS  H20T 2611   3.511   7.258   4.045
   20SAPS   C33 2612   3.604   0.112   2.936
   20SAPS   H3X 2613   3.677   0.117   2.852
   20SAPS   H3Y 2614   3.556   0.012   2.929
   20SAPS   C34 2615   3.673   0.125   3.069
   20SAPS   H4X 2616   3.704   0.230   3.086
   20SAPS   H4Y 2617   3.765   0.063   3.061
   20SAPS   C35 2618   3.597   0.074   3.192
   20SAPS   H5X 2619   3.528   7.294   3.167
   20SAPS   H5Y 2620   3.537   0.157   3.236
   20SAPS   C36 2621   3.703   0.025   3.291
   20SAPS   H6X 2622   3.782   0.102   3.285
   20SAPS   H6Y 2623   3.747   7.233   3.254
   20SAPS   C37 2624   3.659   0.008   3.437
   20SAPS   H7X 2625   3.586   7.228   3.445
   20SAPS   H7Y 2626   3.609   0.101   3.471
   20SAPS   C38 2627   3.782   7.286   3.526
   20SAPS   H8X 2628   3.827   7.187   3.503
   20SAPS   H8Y 2629   3.750   7.283   3.632
   20SAPS   C39 2630   3.888   0.092   3.505
   20SAPS   H9X 2631   3.833   0.186   3.483
   20SAPS   H9Y 2632   3.950   0.067   3.416
   20SAPS  C310 2633   3.980   0.123   3.623
   20SAPS  H10X 2634   4.048   0.038   3.645
   20SAPS  H10Y 2635   3.915   0.139   3.712
   20SAPS  C311 2636   4.060   0.250   3.592
   20SAPS  H11X 2637   3.989   0.327   3.555
   20SAPS  H11Y 2638   4.131   0.229   3.509
   20SAPS  C312 2639   4.135   0.311   3.711
   20SAPS  H12X 2640   4.180   0.407   3.679
   20SAPS  H12Y 2641   4.217   0.243   3.744
   20SAPS  C313 2642   4.040   0.338   3.828
   20SAPS  H13X 2643   4.015   0.242   3.879
   20SAPS  H13Y 2644   3.945   0.380   3.787
   20SAPS  C314 2645   4.095   0.436   3.931
   20SAPS  H14X 2646   4.106   0.535   3.883
   20SAPS  H14Y 2647   4.196   0.403   3.963
   20SAPS  C315 2648   4.005   0.448   4.054
   20SAPS  H15X 2649   4.048   0.529   4.118
   20SAPS  H15Y 2650   4.009   0.353   4.113
   20SAPS  C316 2651   3.858   0.480   4.023
   20SAPS  H16X 2652   3.806   0.389   3.985
   20SAPS  H16Y 2653   3.854   0.556   3.942
   20SAPS  C317 2654   3.784   0.534   4.146
   20SAPS  H17X 2655   3.851   0.607   4.195
   20SAPS  H17Y 2656   3.766   0.451   4.218
   20SAPS  C318 2657   3.652   0.606   4.115
   20SAPS  H18X 2658   3.667   0.685   4.039
   20SAPS  H18Y 2659   3.613   0.654   4.207
   20SAPS  H18Z 2660   3.576   0.535   4.078
   21CHL1    C3 2661   3.201   3.862   5.998
   21CHL1    H3 2662   3.090   3.872   5.999
   21CHL1    O3 2663   3.248   3.848   6.131
   21CHL1   H3' 2664   3.211   3.922   6.180
   21CHL1    C4 2665   3.239   3.735   5.920
   21CHL1   H4A 2666   3.348   3.717   5.931
   21CHL1   H4B 2667   3.189   3.649   5.968
   21CHL1    C5 2668   3.205   3.746   5.773
   21CHL1    C6 2669   3.127   3.655   5.712
   21CHL1    H6 2670   3.089   3.569   5.769
   21CHL1    C7 2671   3.094   3.658   5.565
   21CHL1   H7A 2672   3.106   3.557   5.521
   21CHL1   H7B 2673   2.988   3.688   5.551
   21CHL1    C8 2674   3.185   3.756   5.486
   21CHL1    H8 2675   3.285   3.709   5.475
   21CHL1   C14 2676   3.125   3.782   5.349
   21CHL1   H14 2677   3.027   3.831   5.366
   21CHL1   C15 2678   3.094   3.660   5.261
   21CHL1  H15A 2679   3.182   3.592   5.263
   21CHL1  H15B 2680   3.004   3.605   5.295
   21CHL1   C16 2681   3.077   3.719   5.121
   21CHL1  H16A 2682   3.142   3.665   5.050
   21CHL1  H16B 2683   2.972   3.713   5.086
   21CHL1   C17 2684   3.121   3.869   5.131
   21CHL1   H17 2685   3.028   3.928   5.150
   21CHL1   C13 2686   3.204   3.878   5.260
   21CHL1   C18 2687   3.347   3.824   5.232
   21CHL1  H18A 2688   3.344   3.727   5.178
   21CHL1  H18B 2689   3.404   3.896   5.170
   21CHL1  H18C 2690   3.404   3.809   5.326
   21CHL1   C12 2691   3.207   4.014   5.334
   21CHL1  H12A 2692   3.267   4.089   5.278
   21CHL1  H12B 2693   3.103   4.052   5.343
   21CHL1   C11 2694   3.268   4.000   5.475
   21CHL1  H11A 2695   3.376   3.978   5.461
   21CHL1  H11B 2696   3.261   4.098   5.526
   21CHL1    C9 2697   3.200   3.890   5.561
   21CHL1    H9 2698   3.095   3.926   5.575
   21CHL1   C10 2699   3.260   3.871   5.702
   21CHL1   C19 2700   3.414   3.853   5.690
   21CHL1  H19A 2701   3.439   3.770   5.621
   21CHL1  H19B 2702   3.460   3.946   5.650
   21CHL1  H19C 2703   3.462   3.834   5.788
   21CHL1    C1 2704   3.227   3.998   5.787
   21CHL1   H1A 2705   3.281   4.085   5.744
   21CHL1   H1B 2706   3.119   4.019   5.779
   21CHL1    C2 2707   3.264   3.987   5.936
   21CHL1   H2A 2708   3.230   4.078   5.990
   21CHL1   H2B 2709   3.374   3.981   5.946
   21CHL1   C20 2710   3.180   3.921   4.999
   21CHL1   H20 2711   3.269   3.861   4.973
   21CHL1   C21 2712   3.223   4.069   5.012
   21CHL1  H21A 2713   3.252   4.112   4.914
   21CHL1  H21B 2714   3.312   4.078   5.078
   21CHL1  H21C 2715   3.139   4.129   5.054
   21CHL1   C22 2716   3.079   3.906   4.882
   21CHL1  H22A 2717   3.038   3.803   4.880
   21CHL1  H22B 2718   2.994   3.975   4.898
   21CHL1   C23 2719   3.141   3.932   4.744
   21CHL1  H23A 2720   3.176   4.037   4.736
   21CHL1  H23B 2721   3.230   3.866   4.733
   21CHL1   C24 2722   3.043   3.906   4.630
   21CHL1  H24A 2723   3.005   3.802   4.634
   21CHL1  H24B 2724   2.957   3.974   4.643
   21CHL1   C25 2725   3.106   3.932   4.492
   21CHL1   H25 2726   3.153   4.032   4.496
   21CHL1   C26 2727   3.213   3.828   4.455
   21CHL1  H26A 2728   3.252   3.848   4.353
   21CHL1  H26B 2729   3.298   3.832   4.527
   21CHL1  H26C 2730   3.169   3.726   4.457
   21CHL1   C27 2731   2.998   3.937   4.383
   21CHL1  H27A 2732   2.945   3.839   4.377
   21CHL1  H27B 2733   2.925   4.017   4.407
   21CHL1  H27C 2734   3.043   3.959   4.284
   22CHL1    C3 2735   3.278   3.074   5.981
   22CHL1    H3 2736   3.371   3.014   5.971
   22CHL1    O3 2737   3.246   3.085   6.119
   22CHL1   H3' 2738   3.212   3.174   6.132
   22CHL1    C4 2739   3.302   3.213   5.920
   22CHL1   H4A 2740   3.216   3.278   5.946
   22CHL1   H4B 2741   3.390   3.258   5.971
   22CHL1    C5 2742   3.319   3.211   5.769
   22CHL1    C6 2743   3.425   3.267   5.708
   22CHL1    H6 2744   3.502   3.318   5.767
   22CHL1    C7 2745   3.441   3.274   5.558
   22CHL1   H7A 2746   3.471   3.376   5.527
   22CHL1   H7B 2747   3.521   3.204   5.525
   22CHL1    C8 2748   3.311   3.240   5.481
   22CHL1    H8 2749   3.242   3.327   5.493
   22CHL1   C14 2750   3.337   3.218   5.332
   22CHL1   H14 2751   3.407   3.131   5.326
   22CHL1   C15 2752   3.406   3.331   5.253
   22CHL1  H15A 2753   3.360   3.428   5.280
   22CHL1  H15B 2754   3.515   3.336   5.273
   22CHL1   C16 2755   3.374   3.297   5.106
   22CHL1  H16A 2756   3.334   3.387   5.055
   22CHL1  H16B 2757   3.465   3.263   5.052
   22CHL1   C17 2758   3.268   3.182   5.106
   22CHL1   H17 2759   3.324   3.086   5.093
   22CHL1   C13 2760   3.214   3.180   5.251
   22CHL1   C18 2761   3.106   3.291   5.262
   22CHL1  H18A 2762   3.076   3.311   5.367
   22CHL1  H18B 2763   3.142   3.386   5.217
   22CHL1  H18C 2764   3.014   3.260   5.208
   22CHL1   C12 2765   3.166   3.044   5.306
   22CHL1  H12A 2766   3.077   3.008   5.250
   22CHL1  H12B 2767   3.247   2.970   5.292
   22CHL1   C11 2768   3.131   3.055   5.455
   22CHL1  H11A 2769   3.039   3.117   5.463
   22CHL1  H11B 2770   3.107   2.953   5.492
   22CHL1    C9 2771   3.246   3.115   5.542
   22CHL1    H9 2772   3.326   3.038   5.540
   22CHL1   C10 2773   3.209   3.135   5.692
   22CHL1   C19 2774   3.079   3.218   5.702
   22CHL1  H19A 2775   2.993   3.161   5.661
   22CHL1  H19B 2776   3.054   3.243   5.808
   22CHL1  H19C 2777   3.088   3.313   5.646
   22CHL1    C1 2778   3.188   2.995   5.759
   22CHL1   H1A 2779   3.102   2.945   5.710
   22CHL1   H1B 2780   3.278   2.933   5.739
   22CHL1    C2 2781   3.164   3.000   5.910
   22CHL1   H2A 2782   3.155   2.897   5.951
   22CHL1   H2B 2783   3.068   3.053   5.931
   22CHL1   C20 2784   3.167   3.192   4.990
   22CHL1   H20 2785   3.114   3.289   4.997
   22CHL1   C21 2786   3.062   3.078   4.996
   22CHL1  H21A 2787   2.993   3.093   5.081
   22CHL1  H21B 2788   3.113   2.979   5.005
   22CHL1  H21C 2789   3.000   3.076   4.904
   22CHL1   C22 2790   3.235   3.188   4.851
   22CHL1  H22A 2791   3.327   3.249   4.852
   22CHL1  H22B 2792   3.264   3.083   4.829
   22CHL1   C23 2793   3.147   3.244   4.737
   22CHL1  H23A 2794   3.045   3.199   4.740
   22CHL1  H23B 2795   3.135   3.353   4.753
   22CHL1   C24 2796   3.208   3.221   4.598
   22CHL1  H24A 2797   3.157   3.286   4.523
   22CHL1  H24B 2798   3.314   3.251   4.601
   22CHL1   C25 2799   3.199   3.075   4.547
   22CHL1   H25 2800   3.231   3.007   4.629
   22CHL1   C26 2801   3.055   3.038   4.507
   22CHL1  H26A 2802   3.019   3.108   4.428
   22CHL1  H26B 2803   3.052   2.935   4.467
   22CHL1  H26C 2804   2.987   3.045   4.594
   22CHL1   C27 2805   3.293   3.052   4.428
   22CHL1  H27A 2806   3.268   3.122   4.346
   22CHL1  H27B 2807   3.399   3.070   4.458
   22CHL1  H27C 2808   3.284   2.948   4.390
   23CHL1    C3 2809   2.553   3.456   6.000
   23CHL1    H3 2810   2.521   3.349   5.992
   23CHL1    O3 2811   2.566   3.489   6.138
   23CHL1   H3' 2812   2.613   3.416   6.177
   23CHL1    C4 2813   2.688   3.475   5.928
   23CHL1   H4A 2814   2.722   3.579   5.946
   23CHL1   H4B 2815   2.763   3.409   5.977
   23CHL1    C5 2816   2.678   3.449   5.779
   23CHL1    C6 2817   2.757   3.359   5.717
   23CHL1    H6 2818   2.832   3.305   5.776
   23CHL1    C7 2819   2.755   3.333   5.569
   23CHL1   H7A 2820   2.859   3.330   5.528
   23CHL1   H7B 2821   2.708   3.234   5.549
   23CHL1    C8 2822   2.676   3.441   5.490
   23CHL1    H8 2823   2.740   3.532   5.486
   23CHL1   C14 2824   2.646   3.392   5.348
   23CHL1   H14 2825   2.577   3.306   5.361
   23CHL1   C15 2826   2.764   3.342   5.264
   23CHL1  H15A 2827   2.848   3.413   5.274
   23CHL1  H15B 2828   2.798   3.241   5.295
   23CHL1   C16 2829   2.711   3.345   5.119
   23CHL1  H16A 2830   2.782   3.403   5.057
   23CHL1  H16B 2831   2.700   3.243   5.077
   23CHL1   C17 2832   2.571   3.415   5.123
   23CHL1   H17 2833   2.495   3.335   5.131
   23CHL1   C13 2834   2.571   3.491   5.259
   23CHL1   C18 2835   2.656   3.619   5.243
   23CHL1  H18A 2836   2.675   3.666   5.342
   23CHL1  H18B 2837   2.754   3.599   5.195
   23CHL1  H18C 2838   2.602   3.693   5.181
   23CHL1   C12 2839   2.435   3.518   5.327
   23CHL1  H12A 2840   2.381   3.599   5.273
   23CHL1  H12B 2841   2.374   3.425   5.322
   23CHL1   C11 2842   2.450   3.562   5.474
   23CHL1  H11A 2843   2.488   3.666   5.472
   23CHL1  H11B 2844   2.348   3.563   5.520
   23CHL1    C9 2845   2.544   3.474   5.561
   23CHL1    H9 2846   2.492   3.376   5.570
   23CHL1   C10 2847   2.566   3.526   5.706
   23CHL1   C19 2848   2.606   3.676   5.700
   23CHL1  H19A 2849   2.691   3.692   5.630
   23CHL1  H19B 2850   2.520   3.737   5.666
   23CHL1  H19C 2851   2.636   3.715   5.800
   23CHL1    C1 2852   2.434   3.511   5.786
   23CHL1   H1A 2853   2.355   3.574   5.740
   23CHL1   H1B 2854   2.402   3.405   5.777
   23CHL1    C2 2855   2.446   3.544   5.936
   23CHL1   H2A 2856   2.348   3.528   5.986
   23CHL1   H2B 2857   2.473   3.651   5.949
   23CHL1   C20 2858   2.541   3.497   4.995
   23CHL1   H20 2859   2.604   3.588   4.999
   23CHL1   C21 2860   2.393   3.540   4.987
   23CHL1  H21A 2861   2.335   3.467   4.926
   23CHL1  H21B 2862   2.385   3.640   4.939
   23CHL1  H21C 2863   2.343   3.545   5.087
   23CHL1   C22 2864   2.579   3.427   4.862
   23CHL1  H22A 2865   2.677   3.375   4.868
   23CHL1  H22B 2866   2.502   3.351   4.837
   23CHL1   C23 2867   2.591   3.530   4.748
   23CHL1  H23A 2868   2.496   3.586   4.738
   23CHL1  H23B 2869   2.670   3.603   4.775
   23CHL1   C24 2870   2.628   3.467   4.613
   23CHL1  H24A 2871   2.723   3.410   4.625
   23CHL1  H24B 2872   2.549   3.396   4.581
   23CHL1   C25 2873   2.649   3.574   4.504
   23CHL1   H25 2874   2.708   3.657   4.547
   23CHL1   C26 2875   2.727   3.517   4.385
   23CHL1  H26A 2876   2.831   3.492   4.415
   23CHL1  H26B 2877   2.678   3.424   4.349
   23CHL1  H26C 2878   2.731   3.590   4.302
   23CHL1   C27 2879   2.515   3.632   4.456
   23CHL1  H27A 2880   2.455   3.672   4.541
   23CHL1  H27B 2881   2.534   3.715   4.385
   23CHL1  H27C 2882   2.454   3.554   4.405
   24CHL1    C3 2883   3.168   4.654   6.012
   24CHL1    H3 2884   3.183   4.760   5.983
   24CHL1    O3 2885   3.168   4.645   6.154
   24CHL1   H3' 2886   3.258   4.665   6.180
   24CHL1    C4 2887   3.033   4.605   5.956
   24CHL1   H4A 2888   3.013   4.503   5.995
   24CHL1   H4B 2889   2.954   4.671   5.997
   24CHL1    C5 2890   3.032   4.604   5.804
   24CHL1    C6 2891   2.941   4.672   5.734
   24CHL1    H6 2892   2.863   4.728   5.787
   24CHL1    C7 2893   2.932   4.671   5.583
   24CHL1   H7A 2894   2.828   4.654   5.550
   24CHL1   H7B 2895   2.964   4.770   5.544
   24CHL1    C8 2896   3.021   4.561   5.519
   24CHL1    H8 2897   2.969   4.464   5.532
   24CHL1   C14 2898   3.040   4.589   5.370
   24CHL1   H14 2899   3.093   4.686   5.363
   24CHL1   C15 2900   2.914   4.605   5.284
   24CHL1  H15A 2901   2.842   4.524   5.306
   24CHL1  H15B 2902   2.864   4.703   5.301
   24CHL1   C16 2903   2.968   4.591   5.141
   24CHL1  H16A 2904   2.903   4.519   5.085
   24CHL1  H16B 2905   2.969   4.688   5.088
   24CHL1   C17 2906   3.115   4.539   5.152
   24CHL1   H17 2907   3.180   4.629   5.145
   24CHL1   C13 2908   3.128   4.488   5.297
   24CHL1   C18 2909   3.066   4.346   5.305
   24CHL1  H18A 2910   2.966   4.342   5.256
   24CHL1  H18B 2911   3.132   4.273   5.253
   24CHL1  H18C 2912   3.055   4.312   5.410
   24CHL1   C12 2913   3.268   4.495   5.360
   24CHL1  H12A 2914   3.337   4.421   5.313
   24CHL1  H12B 2915   3.310   4.596   5.344
   24CHL1   C11 2916   3.261   4.466   5.511
   24CHL1  H11A 2917   3.236   4.359   5.523
   24CHL1  H11B 2918   3.362   4.482   5.554
   24CHL1    C9 2919   3.158   4.556   5.587
   24CHL1    H9 2920   3.198   4.659   5.577
   24CHL1   C10 2921   3.149   4.527   5.739
   24CHL1   C19 2922   3.124   4.375   5.761
   24CHL1  H19A 2923   3.109   4.352   5.868
   24CHL1  H19B 2924   3.035   4.341   5.705
   24CHL1  H19C 2925   3.212   4.316   5.727
   24CHL1    C1 2926   3.284   4.570   5.805
   24CHL1   H1A 2927   3.365   4.502   5.770
   24CHL1   H1B 2928   3.309   4.673   5.771
   24CHL1    C2 2929   3.283   4.569   5.958
   24CHL1   H2A 2930   3.380   4.607   5.996
   24CHL1   H2B 2931   3.271   4.465   5.995
   24CHL1   C20 2932   3.153   4.445   5.037
   24CHL1   H20 2933   3.093   4.352   5.045
   24CHL1   C21 2934   3.302   4.406   5.044
   24CHL1  H21A 2935   3.366   4.496   5.058
   24CHL1  H21B 2936   3.332   4.356   4.949
   24CHL1  H21C 2937   3.320   4.334   5.127
   24CHL1   C22 2938   3.121   4.502   4.897
   24CHL1  H22A 2939   3.147   4.421   4.825
   24CHL1  H22B 2940   3.012   4.520   4.886
   24CHL1   C23 2941   3.196   4.630   4.859
   24CHL1  H23A 2942   3.168   4.711   4.930
   24CHL1  H23B 2943   3.306   4.615   4.869
   24CHL1   C24 2944   3.166   4.678   4.716
   24CHL1  H24A 2945   3.058   4.701   4.709
   24CHL1  H24B 2946   3.222   4.772   4.696
   24CHL1   C25 2947   3.202   4.577   4.605
   24CHL1   H25 2948   3.157   4.479   4.631
   24CHL1   C26 2949   3.140   4.619   4.472
   24CHL1  H26A 2950   3.158   4.540   4.396
   24CHL1  H26B 2951   3.030   4.633   4.482
   24CHL1  H26C 2952   3.184   4.714   4.435
   24CHL1   C27 2953   3.354   4.558   4.590
   24CHL1  H27A 2954   3.403   4.655   4.565
   24CHL1  H27B 2955   3.398   4.520   4.685
   24CHL1  H27C 2956   3.376   4.485   4.510
   25CHL1    C3 2957   3.806   5.012   5.996
   25CHL1    H3 2958   3.853   4.911   5.997
   25CHL1    O3 2959   3.810   5.066   6.127
   25CHL1   H3' 2960   3.793   5.159   6.114
   25CHL1    C4 2961   3.885   5.106   5.902
   25CHL1   H4A 2962   3.845   5.209   5.914
   25CHL1   H4B 2963   3.990   5.109   5.939
   25CHL1    C5 2964   3.877   5.066   5.756
   25CHL1    C6 2965   3.988   5.050   5.682
   25CHL1    H6 2966   4.086   5.069   5.727
   25CHL1    C7 2967   3.986   5.017   5.535
   25CHL1   H7A 2968   4.054   5.085   5.480
   25CHL1   H7B 2969   4.023   4.913   5.520
   25CHL1    C8 2970   3.844   5.029   5.474
   25CHL1    H8 2971   3.823   5.137   5.464
   25CHL1   C14 2972   3.840   4.966   5.335
   25CHL1   H14 2973   3.867   4.859   5.347
   25CHL1   C15 2974   3.939   5.020   5.231
   25CHL1  H15A 2975   3.942   5.131   5.237
   25CHL1  H15B 2976   4.042   4.981   5.248
   25CHL1   C16 2977   3.880   4.975   5.097
   25CHL1  H16A 2978   3.878   5.061   5.027
   25CHL1  H16B 2979   3.942   4.894   5.052
   25CHL1   C17 2980   3.736   4.921   5.125
   25CHL1   H17 2981   3.743   4.810   5.129
   25CHL1   C13 2982   3.702   4.968   5.269
   25CHL1   C18 2983   3.649   5.111   5.263
   25CHL1  H18A 2984   3.722   5.174   5.208
   25CHL1  H18B 2985   3.551   5.116   5.211
   25CHL1  H18C 2986   3.636   5.157   5.363
   25CHL1   C12 2987   3.610   4.881   5.356
   25CHL1  H12A 2988   3.507   4.877   5.314
   25CHL1  H12B 2989   3.650   4.778   5.356
   25CHL1   C11 2990   3.602   4.935   5.500
   25CHL1  H11A 2991   3.541   5.027   5.498
   25CHL1  H11B 2992   3.547   4.861   5.563
   25CHL1    C9 2993   3.741   4.964   5.567
   25CHL1    H9 2994   3.782   4.863   5.588
   25CHL1   C10 2995   3.734   5.037   5.703
   25CHL1   C19 2996   3.661   5.173   5.686
   25CHL1  H19A 2997   3.661   5.231   5.782
   25CHL1  H19B 2998   3.709   5.237   5.609
   25CHL1  H19C 2999   3.555   5.159   5.658
   25CHL1    C1 3000   3.655   4.950   5.805
   25CHL1   H1A 3001   3.548   4.945   5.773
   25CHL1   H1B 3002   3.696   4.847   5.802
   25CHL1    C2 3003   3.661   5.001   5.950
   25CHL1   H2A 3004   3.605   4.932   6.017
   25CHL1   H2B 3005   3.612   5.101   5.957
   25CHL1   C20 3006   3.638   4.955   5.011
   25CHL1   H20 3007   3.620   5.065   5.013
   25CHL1   C21 3008   3.503   4.884   5.031
   25CHL1  H21A 3009   3.436   4.907   4.946
   25CHL1  H21B 3010   3.453   4.920   5.124
   25CHL1  H21C 3011   3.517   4.774   5.038
   25CHL1   C22 3012   3.691   4.924   4.868
   25CHL1  H22A 3013   3.793   4.881   4.869
   25CHL1  H22B 3014   3.624   4.848   4.823
   25CHL1   C23 3015   3.688   5.050   4.780
   25CHL1  H23A 3016   3.593   5.104   4.800
   25CHL1  H23B 3017   3.772   5.117   4.810
   25CHL1   C24 3018   3.697   5.021   4.629
   25CHL1  H24A 3019   3.789   4.962   4.609
   25CHL1  H24B 3020   3.610   4.959   4.599
   25CHL1   C25 3021   3.702   5.149   4.543
   25CHL1   H25 3022   3.793   5.205   4.573
   25CHL1   C26 3023   3.715   5.115   4.394
   25CHL1  H26A 3024   3.729   5.207   4.333
   25CHL1  H26B 3025   3.802   5.048   4.380
   25CHL1  H26C 3026   3.624   5.062   4.359
   25CHL1   C27 3027   3.581   5.242   4.559
   25CHL1  H27A 3028   3.564   5.272   4.665
   25CHL1  H27B 3029   3.595   5.334   4.498
   25CHL1  H27C 3030   3.490   5.191   4.523
   26CHL1    C3 3031   3.194   2.310   6.003
   26CHL1    H3 3032   3.084   2.323   6.004
   26CHL1    O3 3033   3.240   2.288   6.136
   26CHL1   H3' 3034   3.325   2.247   6.123
   26CHL1    C4 3035   3.231   2.189   5.915
   26CHL1   H4A 3036   3.341   2.173   5.923
   26CHL1   H4B 3037   3.183   2.099   5.958
   26CHL1    C5 3038   3.196   2.209   5.769
   26CHL1    C6 3039   3.122   2.119   5.701
   26CHL1    H6 3040   3.088   2.027   5.751
   26CHL1    C7 3041   3.090   2.132   5.555
   26CHL1   H7A 3042   3.105   2.035   5.503
   26CHL1   H7B 3043   2.983   2.158   5.543
   26CHL1    C8 3044   3.175   2.242   5.484
   26CHL1    H8 3045   3.279   2.204   5.471
   26CHL1   C14 3046   3.120   2.270   5.345
   26CHL1   H14 3047   3.012   2.291   5.358
   26CHL1   C15 3048   3.129   2.155   5.244
   26CHL1  H15A 3049   3.231   2.110   5.246
   26CHL1  H15B 3050   3.057   2.074   5.268
   26CHL1   C16 3051   3.104   2.223   5.109
   26CHL1  H16A 3052   3.187   2.198   5.040
   26CHL1  H16B 3053   3.009   2.194   5.061
   26CHL1   C17 3054   3.101   2.377   5.138
   26CHL1   H17 3055   2.995   2.403   5.158
   26CHL1   C13 3056   3.177   2.391   5.272
   26CHL1   C18 3057   3.329   2.372   5.244
   26CHL1  H18A 3058   3.349   2.289   5.172
   26CHL1  H18B 3059   3.371   2.465   5.201
   26CHL1  H18C 3060   3.384   2.349   5.337
   26CHL1   C12 3061   3.152   2.515   5.359
   26CHL1  H12A 3062   3.193   2.606   5.311
   26CHL1  H12B 3063   3.042   2.528   5.372
   26CHL1   C11 3064   3.219   2.498   5.497
   26CHL1  H11A 3065   3.329   2.498   5.483
   26CHL1  H11B 3066   3.193   2.586   5.559
   26CHL1    C9 3067   3.175   2.368   5.571
   26CHL1    H9 3068   3.068   2.386   5.594
   26CHL1   C10 3069   3.246   2.342   5.707
   26CHL1   C19 3070   3.399   2.327   5.685
   26CHL1  H19A 3071   3.423   2.242   5.618
   26CHL1  H19B 3072   3.442   2.420   5.641
   26CHL1  H19C 3073   3.452   2.309   5.781
   26CHL1    C1 3074   3.217   2.461   5.803
   26CHL1   H1A 3075   3.270   2.551   5.765
   26CHL1   H1B 3076   3.108   2.483   5.800
   26CHL1    C2 3077   3.259   2.437   5.949
   26CHL1   H2A 3078   3.230   2.524   6.011
   26CHL1   H2B 3079   3.370   2.427   5.954
   26CHL1   C20 3080   3.146   2.459   5.017
   26CHL1   H20 3081   3.255   2.445   5.004
   26CHL1   C21 3082   3.117   2.609   5.038
   26CHL1  H21A 3083   3.186   2.653   5.115
   26CHL1  H21B 3084   3.012   2.624   5.070
   26CHL1  H21C 3085   3.133   2.665   4.944
   26CHL1   C22 3086   3.081   2.415   4.883
   26CHL1  H22A 3087   3.053   2.308   4.878
   26CHL1  H22B 3088   2.988   2.474   4.868
   26CHL1   C23 3089   3.180   2.441   4.768
   26CHL1  H23A 3090   3.230   2.538   4.788
   26CHL1  H23B 3091   3.259   2.363   4.768
   26CHL1   C24 3092   3.115   2.449   4.629
   26CHL1  H24A 3093   3.113   2.348   4.583
   26CHL1  H24B 3094   3.009   2.481   4.639
   26CHL1   C25 3095   3.191   2.550   4.540
   26CHL1   H25 3096   3.217   2.638   4.603
   26CHL1   C26 3097   3.322   2.489   4.490
   26CHL1  H26A 3098   3.304   2.399   4.427
   26CHL1  H26B 3099   3.377   2.564   4.430
   26CHL1  H26C 3100   3.386   2.459   4.576
   26CHL1   C27 3101   3.104   2.605   4.426
   26CHL1  H27A 3102   3.167   2.653   4.348
   26CHL1  H27B 3103   3.044   2.524   4.379
   26CHL1  H27C 3104   3.034   2.682   4.464
   27CHL1    C3 3105   2.616   2.722   6.011
   27CHL1    H3 3106   2.668   2.628   5.982
   27CHL1    O3 3107   2.605   2.729   6.153
   27CHL1   H3' 3108   2.696   2.736   6.184
   27CHL1    C4 3109   2.697   2.843   5.959
   27CHL1   H4A 3110   2.649   2.936   5.997
   27CHL1   H4B 3111   2.798   2.839   6.004
   27CHL1    C5 3112   2.703   2.847   5.807
   27CHL1    C6 3113   2.820   2.849   5.741
   27CHL1    H6 3114   2.914   2.851   5.797
   27CHL1    C7 3115   2.831   2.858   5.591
   27CHL1   H7A 3116   2.904   2.937   5.563
   27CHL1   H7B 3117   2.869   2.761   5.551
   27CHL1    C8 3118   2.697   2.892   5.521
   27CHL1    H8 3119   2.679   3.000   5.538
   27CHL1   C14 3120   2.704   2.864   5.372
   27CHL1   H14 3121   2.718   2.754   5.361
   27CHL1   C15 3122   2.821   2.926   5.294
   27CHL1  H15A 3123   2.837   3.031   5.329
   27CHL1  H15B 3124   2.914   2.868   5.308
   27CHL1   C16 3125   2.773   2.926   5.148
   27CHL1  H16A 3126   2.781   3.030   5.108
   27CHL1  H16B 3127   2.835   2.859   5.085
   27CHL1   C17 3128   2.624   2.880   5.148
   27CHL1   H17 3129   2.625   2.771   5.128
   27CHL1   C13 3130   2.577   2.897   5.294
   27CHL1   C18 3131   2.536   3.045   5.314
   27CHL1  H18A 3132   2.614   3.111   5.272
   27CHL1  H18B 3133   2.440   3.066   5.263
   27CHL1  H18C 3134   2.522   3.071   5.421
   27CHL1   C12 3135   2.468   2.801   5.348
   27CHL1  H12A 3136   2.371   2.819   5.297
   27CHL1  H12B 3137   2.499   2.696   5.327
   27CHL1   C11 3138   2.449   2.820   5.500
   27CHL1  H11A 3139   2.401   2.919   5.515
   27CHL1  H11B 3140   2.378   2.742   5.536
   27CHL1    C9 3141   2.582   2.812   5.583
   27CHL1    H9 3142   2.614   2.706   5.574
   27CHL1   C10 3143   2.567   2.840   5.735
   27CHL1   C19 3144   2.494   2.976   5.756
   27CHL1  H19A 3145   2.390   2.970   5.718
   27CHL1  H19B 3146   2.486   3.002   5.864
   27CHL1  H19C 3147   2.546   3.058   5.703
   27CHL1    C1 3148   2.483   2.726   5.797
   27CHL1   H1A 3149   2.380   2.737   5.758
   27CHL1   H1B 3150   2.524   2.629   5.762
   27CHL1    C2 3151   2.476   2.723   5.951
   27CHL1   H2A 3152   2.421   2.633   5.984
   27CHL1   H2B 3153   2.420   2.812   5.986
   27CHL1   C20 3154   2.544   2.949   5.037
   27CHL1   H20 3155   2.537   3.058   5.058
   27CHL1   C21 3156   2.401   2.893   5.032
   27CHL1  H21A 3157   2.342   2.928   5.119
   27CHL1  H21B 3158   2.403   2.782   5.033
   27CHL1  H21C 3159   2.349   2.926   4.940
   27CHL1   C22 3160   2.605   2.939   4.895
   27CHL1  H22A 3161   2.535   2.988   4.824
   27CHL1  H22B 3162   2.701   2.996   4.891
   27CHL1   C23 3163   2.631   2.796   4.848
   27CHL1  H23A 3164   2.716   2.754   4.907
   27CHL1  H23B 3165   2.544   2.730   4.867
   27CHL1   C24 3166   2.664   2.789   4.698
   27CHL1  H24A 3167   2.571   2.765   4.642
   27CHL1  H24B 3168   2.699   2.888   4.662
   27CHL1   C25 3169   2.773   2.685   4.669
   27CHL1   H25 3170   2.753   2.597   4.733
   27CHL1   C26 3171   2.767   2.639   4.523
   27CHL1  H26A 3172   2.837   2.555   4.505
   27CHL1  H26B 3173   2.665   2.604   4.497
   27CHL1  H26C 3174   2.794   2.722   4.454
   27CHL1   C27 3175   2.909   2.745   4.707
   27CHL1  H27A 3176   2.906   2.794   4.806
   27CHL1  H27B 3177   2.938   2.822   4.632
   27CHL1  H27C 3178   2.989   2.668   4.710
   28CHL1    C3 3179   4.625   2.240   5.996
   28CHL1    H3 3180   4.596   2.343   5.967
   28CHL1    O3 3181   4.606   2.225   6.136
   28CHL1   H3' 3182   4.528   2.278   6.155
   28CHL1    C4 3183   4.538   2.139   5.921
   28CHL1   H4A 3184   4.564   2.036   5.954
   28CHL1   H4B 3185   4.432   2.155   5.950
   28CHL1    C5 3186   4.557   2.152   5.771
   28CHL1    C6 3187   4.453   2.180   5.691
   28CHL1    H6 3188   4.353   2.190   5.734
   28CHL1    C7 3189   4.463   2.193   5.542
   28CHL1   H7A 3190   4.381   2.139   5.491
   28CHL1   H7B 3191   4.454   2.300   5.514
   28CHL1    C8 3192   4.597   2.139   5.486
   28CHL1    H8 3193   4.593   2.028   5.487
   28CHL1   C14 3194   4.612   2.187   5.342
   28CHL1   H14 3195   4.616   2.298   5.347
   28CHL1   C15 3196   4.498   2.155   5.244
   28CHL1  H15A 3197   4.465   2.050   5.257
   28CHL1  H15B 3198   4.411   2.222   5.258
   28CHL1   C16 3199   4.562   2.173   5.105
   28CHL1  H16A 3200   4.551   2.079   5.047
   28CHL1  H16B 3201   4.516   2.257   5.049
   28CHL1   C17 3202   4.714   2.202   5.130
   28CHL1   H17 3203   4.723   2.312   5.139
   28CHL1   C13 3204   4.741   2.145   5.273
   28CHL1   C18 3205   4.749   1.991   5.263
   28CHL1  H18A 3206   4.663   1.948   5.208
   28CHL1  H18B 3207   4.841   1.961   5.208
   28CHL1  H18C 3208   4.753   1.943   5.363
   28CHL1   C12 3209   4.858   2.204   5.356
   28CHL1  H12A 3210   4.957   2.173   5.317
   28CHL1  H12B 3211   4.852   2.315   5.352
   28CHL1   C11 3212   4.852   2.159   5.504
   28CHL1  H11A 3213   4.874   2.050   5.506
   28CHL1  H11B 3214   4.933   2.210   5.560
   28CHL1    C9 3215   4.715   2.187   5.571
   28CHL1    H9 3216   4.706   2.298   5.572
   28CHL1   C10 3217   4.703   2.142   5.720
   28CHL1   C19 3218   4.748   1.994   5.732
   28CHL1  H19A 3219   4.734   1.955   5.836
   28CHL1  H19B 3220   4.690   1.930   5.663
   28CHL1  H19C 3221   4.856   1.984   5.708
   28CHL1    C1 3222   4.794   2.233   5.809
   28CHL1   H1A 3223   4.900   2.212   5.784
   28CHL1   H1B 3224   4.774   2.339   5.781
   28CHL1    C2 3225   4.772   2.218   5.960
   28CHL1   H2A 3226   4.836   2.290   6.016
   28CHL1   H2B 3227   4.802   2.115   5.992
   28CHL1   C20 3228   4.803   2.158   5.013
   28CHL1   H20 3229   4.809   2.047   5.011
   28CHL1   C21 3230   4.942   2.217   5.036
   28CHL1  H21A 3231   4.939   2.328   5.043
   28CHL1  H21B 3232   5.007   2.189   4.950
   28CHL1  H21C 3233   4.993   2.176   5.126
   28CHL1   C22 3234   4.754   2.203   4.873
   28CHL1  H22A 3235   4.645   2.185   4.860
   28CHL1  H22B 3236   4.771   2.313   4.865
   28CHL1   C23 3237   4.825   2.133   4.755
   28CHL1  H23A 3238   4.931   2.112   4.779
   28CHL1  H23B 3239   4.777   2.034   4.737
   28CHL1   C24 3240   4.824   2.217   4.625
   28CHL1  H24A 3241   4.720   2.232   4.590
   28CHL1  H24B 3242   4.866   2.317   4.649
   28CHL1   C25 3243   4.910   2.156   4.511
   28CHL1   H25 3244   5.005   2.120   4.556
   28CHL1   C26 3245   4.839   2.037   4.444
   28CHL1  H26A 3246   4.903   1.995   4.363
   28CHL1  H26B 3247   4.818   1.957   4.518
   28CHL1  H26C 3248   4.743   2.070   4.399
   28CHL1   C27 3249   4.945   2.263   4.406
   28CHL1  H27A 3250   5.007   2.219   4.326
   28CHL1  H27B 3251   4.853   2.305   4.361
   28CHL1  H27C 3252   5.003   2.346   4.453
   29CHL1    C3 3253   1.814   3.848   6.050
   29CHL1    H3 3254   1.912   3.800   6.030
   29CHL1    O3 3255   1.800   3.868   6.189
   29CHL1   H3' 3256   1.732   3.935   6.198
   29CHL1    C4 3257   1.807   3.984   5.979
   29CHL1   H4A 3258   1.713   4.035   6.009
   29CHL1   H4B 3259   1.891   4.046   6.016
   29CHL1    C5 3260   1.809   3.971   5.828
   29CHL1    C6 3261   1.899   4.037   5.753
   29CHL1    H6 3262   1.973   4.101   5.802
   29CHL1    C7 3263   1.896   4.040   5.603
   29CHL1   H7A 3264   1.903   4.144   5.567
   29CHL1   H7B 3265   1.983   3.984   5.563
   29CHL1    C8 3266   1.766   3.979   5.546
   29CHL1    H8 3267   1.682   4.050   5.562
   29CHL1   C14 3268   1.782   3.960   5.397
   29CHL1   H14 3269   1.872   3.896   5.383
   29CHL1   C15 3270   1.809   4.088   5.319
   29CHL1  H15A 3271   1.734   4.165   5.345
   29CHL1  H15B 3272   1.911   4.127   5.338
   29CHL1   C16 3273   1.794   4.041   5.176
   29CHL1  H16A 3274   1.743   4.121   5.118
   29CHL1  H16B 3275   1.894   4.018   5.134
   29CHL1   C17 3276   1.717   3.906   5.177
   29CHL1   H17 3277   1.794   3.828   5.162
   29CHL1   C13 3278   1.669   3.888   5.324
   29CHL1   C18 3279   1.533   3.960   5.339
   29CHL1  H18A 3280   1.535   4.060   5.291
   29CHL1  H18B 3281   1.453   3.900   5.292
   29CHL1  H18C 3282   1.506   3.974   5.446
   29CHL1   C12 3283   1.666   3.747   5.387
   29CHL1  H12A 3284   1.588   3.683   5.339
   29CHL1  H12B 3285   1.764   3.697   5.370
   29CHL1   C11 3286   1.639   3.754   5.539
   29CHL1  H11A 3287   1.534   3.789   5.553
   29CHL1  H11B 3288   1.645   3.651   5.582
   29CHL1    C9 3289   1.737   3.847   5.617
   29CHL1    H9 3290   1.833   3.791   5.615
   29CHL1   C10 3291   1.705   3.875   5.767
   29CHL1   C19 3292   1.569   3.947   5.782
   29CHL1  H19A 3293   1.572   4.050   5.743
   29CHL1  H19B 3294   1.489   3.893   5.726
   29CHL1  H19C 3295   1.537   3.952   5.888
   29CHL1    C1 3296   1.708   3.741   5.846
   29CHL1   H1A 3297   1.624   3.676   5.813
   29CHL1   H1B 3298   1.802   3.688   5.820
   29CHL1    C2 3299   1.703   3.755   5.999
   29CHL1   H2A 3300   1.714   3.655   6.046
   29CHL1   H2B 3301   1.604   3.795   6.030
   29CHL1   C20 3302   1.622   3.898   5.057
   29CHL1   H20 3303   1.530   3.958   5.074
   29CHL1   C21 3304   1.587   3.752   5.040
   29CHL1  H21A 3305   1.500   3.735   4.973
   29CHL1  H21B 3306   1.566   3.704   5.138
   29CHL1  H21C 3307   1.677   3.703   4.996
   29CHL1   C22 3308   1.691   3.948   4.926
   29CHL1  H22A 3309   1.698   4.059   4.926
   29CHL1  H22B 3310   1.795   3.909   4.927
   29CHL1   C23 3311   1.629   3.905   4.792
   29CHL1  H23A 3312   1.538   3.842   4.804
   29CHL1  H23B 3313   1.596   3.997   4.739
   29CHL1   C24 3314   1.731   3.830   4.705
   29CHL1  H24A 3315   1.816   3.898   4.683
   29CHL1  H24B 3316   1.771   3.744   4.763
   29CHL1   C25 3317   1.675   3.775   4.572
   29CHL1   H25 3318   1.598   3.699   4.595
   29CHL1   C26 3319   1.609   3.886   4.489
   29CHL1  H26A 3320   1.681   3.968   4.470
   29CHL1  H26B 3321   1.573   3.846   4.392
   29CHL1  H26C 3322   1.521   3.929   4.542
   29CHL1   C27 3323   1.788   3.708   4.493
   29CHL1  H27A 3324   1.750   3.669   4.396
   29CHL1  H27B 3325   1.869   3.781   4.472
   29CHL1  H27C 3326   1.831   3.623   4.550
   30CHL1    C3 3327   3.086   5.360   6.011
   30CHL1    H3 3328   3.028   5.266   6.021
   30CHL1    O3 3329   3.108   5.413   6.141
   30CHL1   H3' 3330   3.032   5.468   6.159
   30CHL1    C4 3331   3.220   5.333   5.941
   30CHL1   H4A 3332   3.280   5.427   5.945
   30CHL1   H4B 3333   3.275   5.259   6.002
   30CHL1    C5 3334   3.200   5.288   5.797
   30CHL1    C6 3335   3.249   5.171   5.755
   30CHL1    H6 3336   3.306   5.108   5.825
   30CHL1    C7 3337   3.236   5.121   5.615
   30CHL1   H7A 3338   3.331   5.074   5.582
   30CHL1   H7B 3339   3.157   5.042   5.610
   30CHL1    C8 3340   3.199   5.233   5.515
   30CHL1    H8 3341   3.288   5.299   5.504
   30CHL1   C14 3342   3.161   5.173   5.381
   30CHL1   H14 3343   3.068   5.115   5.398
   30CHL1   C15 3344   3.261   5.072   5.320
   30CHL1  H15A 3345   3.364   5.110   5.334
   30CHL1  H15B 3346   3.252   4.972   5.367
   30CHL1   C16 3347   3.225   5.070   5.171
   30CHL1  H16A 3348   3.316   5.098   5.114
   30CHL1  H16B 3349   3.190   4.970   5.138
   30CHL1   C17 3350   3.115   5.178   5.147
   30CHL1   H17 3351   3.017   5.126   5.159
   30CHL1   C13 3352   3.128   5.273   5.270
   30CHL1   C18 3353   3.247   5.368   5.244
   30CHL1  H18A 3354   3.219   5.441   5.165
   30CHL1  H18B 3355   3.273   5.426   5.335
   30CHL1  H18C 3356   3.337   5.313   5.211
   30CHL1   C12 3357   3.003   5.349   5.319
   30CHL1  H12A 3358   2.976   5.429   5.246
   30CHL1  H12B 3359   2.918   5.278   5.325
   30CHL1   C11 3360   3.025   5.414   5.459
   30CHL1  H11A 3361   3.092   5.500   5.441
   30CHL1  H11B 3362   2.928   5.455   5.496
   30CHL1    C9 3363   3.082   5.318   5.568
   30CHL1    H9 3364   3.001   5.245   5.587
   30CHL1   C10 3365   3.114   5.381   5.708
   30CHL1   C19 3366   3.181   5.520   5.689
   30CHL1  H19A 3367   3.106   5.602   5.698
   30CHL1  H19B 3368   3.261   5.539   5.763
   30CHL1  H19C 3369   3.224   5.528   5.587
   30CHL1    C1 3370   2.983   5.408   5.786
   30CHL1   H1A 3371   2.929   5.486   5.729
   30CHL1   H1B 3372   2.921   5.316   5.789
   30CHL1    C2 3373   3.004   5.460   5.930
   30CHL1   H2A 3374   2.906   5.474   5.981
   30CHL1   H2B 3375   3.056   5.558   5.929
   30CHL1   C20 3376   3.119   5.234   5.003
   30CHL1   H20 3377   3.205   5.303   4.993
   30CHL1   C21 3378   2.989   5.312   4.974
   30CHL1  H21A 3379   2.900   5.247   4.987
   30CHL1  H21B 3380   2.989   5.351   4.870
   30CHL1  H21C 3381   2.979   5.400   5.041
   30CHL1   C22 3382   3.140   5.122   4.896
   30CHL1  H22A 3383   3.234   5.067   4.918
   30CHL1  H22B 3384   3.056   5.050   4.901
   30CHL1   C23 3385   3.155   5.170   4.750
   30CHL1  H23A 3386   3.057   5.204   4.711
   30CHL1  H23B 3387   3.225   5.257   4.747
   30CHL1   C24 3388   3.212   5.059   4.659
   30CHL1  H24A 3389   3.310   5.028   4.702
   30CHL1  H24B 3390   3.144   4.971   4.662
   30CHL1   C25 3391   3.235   5.098   4.512
   30CHL1   H25 3392   3.286   5.197   4.510
   30CHL1   C26 3393   3.326   4.996   4.441
   30CHL1  H26A 3394   3.422   4.984   4.495
   30CHL1  H26B 3395   3.277   4.897   4.437
   30CHL1  H26C 3396   3.348   5.029   4.337
   30CHL1   C27 3397   3.105   5.112   4.433
   30CHL1  H27A 3398   3.126   5.144   4.329
   30CHL1  H27B 3399   3.054   5.013   4.429
   30CHL1  H27C 3400   3.038   5.186   4.481
   31CHL1    C3 3401   1.596   4.713   5.988
   31CHL1    H3 3402   1.588   4.606   5.963
   31CHL1    O3 3403   1.613   4.726   6.129
   31CHL1   H3' 3404   1.529   4.697   6.164
   31CHL1    C4 3405   1.716   4.774   5.912
   31CHL1   H4A 3406   1.729   4.880   5.946
   31CHL1   H4B 3407   1.807   4.719   5.943
   31CHL1    C5 3408   1.696   4.770   5.762
   31CHL1    C6 3409   1.787   4.713   5.681
   31CHL1    H6 3410   1.881   4.675   5.724
   31CHL1    C7 3411   1.773   4.703   5.532
   31CHL1   H7A 3412   1.869   4.731   5.482
   31CHL1   H7B 3413   1.750   4.598   5.505
   31CHL1    C8 3414   1.661   4.790   5.473
   31CHL1    H8 3415   1.698   4.895   5.469
   31CHL1   C14 3416   1.626   4.741   5.333
   31CHL1   H14 3417   1.584   4.639   5.345
   31CHL1   C15 3418   1.740   4.725   5.231
   31CHL1  H15A 3419   1.809   4.812   5.237
   31CHL1  H15B 3420   1.797   4.632   5.248
   31CHL1   C16 3421   1.668   4.725   5.094
   31CHL1  H16A 3422   1.712   4.804   5.030
   31CHL1  H16B 3423   1.679   4.627   5.043
   31CHL1   C17 3424   1.518   4.756   5.123
   31CHL1   H17 3425   1.467   4.658   5.134
   31CHL1   C13 3426   1.517   4.822   5.263
   31CHL1   C18 3427   1.562   4.968   5.246
   31CHL1  H18A 3428   1.581   5.018   5.344
   31CHL1  H18B 3429   1.655   4.975   5.186
   31CHL1  H18C 3430   1.483   5.026   5.195
   31CHL1   C12 3431   1.389   4.812   5.349
   31CHL1  H12A 3432   1.308   4.875   5.308
   31CHL1  H12B 3433   1.354   4.706   5.349
   31CHL1   C11 3434   1.415   4.857   5.494
   31CHL1  H11A 3435   1.432   4.967   5.493
   31CHL1  H11B 3436   1.322   4.840   5.554
   31CHL1    C9 3437   1.535   4.785   5.561
   31CHL1    H9 3438   1.507   4.678   5.564
   31CHL1   C10 3439   1.562   4.826   5.709
   31CHL1   C19 3440   1.573   4.980   5.719
   31CHL1  H19A 3441   1.652   5.019   5.650
   31CHL1  H19B 3442   1.477   5.029   5.692
   31CHL1  H19C 3443   1.599   5.014   5.821
   31CHL1    C1 3444   1.444   4.775   5.797
   31CHL1   H1A 3445   1.353   4.832   5.771
   31CHL1   H1B 3446   1.426   4.668   5.772
   31CHL1    C2 3447   1.467   4.785   5.948
   31CHL1   H2A 3448   1.381   4.741   6.002
   31CHL1   H2B 3449   1.475   4.892   5.978
   31CHL1   C20 3450   1.449   4.830   5.007
   31CHL1   H20 3451   1.489   4.933   5.000
   31CHL1   C21 3452   1.297   4.838   5.035
   31CHL1  H21A 3453   1.242   4.871   4.944
   31CHL1  H21B 3454   1.277   4.912   5.114
   31CHL1  H21C 3455   1.257   4.739   5.065
   31CHL1   C22 3456   1.473   4.767   4.867
   31CHL1  H22A 3457   1.536   4.676   4.872
   31CHL1  H22B 3458   1.374   4.734   4.826
   31CHL1   C23 3459   1.535   4.866   4.766
   31CHL1  H23A 3460   1.476   4.961   4.769
   31CHL1  H23B 3461   1.639   4.891   4.797
   31CHL1   C24 3462   1.534   4.812   4.622
   31CHL1  H24A 3463   1.603   4.726   4.613
   31CHL1  H24B 3464   1.431   4.775   4.601
   31CHL1   C25 3465   1.567   4.918   4.515
   31CHL1   H25 3466   1.510   5.010   4.540
   31CHL1   C26 3467   1.716   4.955   4.512
   31CHL1  H26A 3468   1.735   5.031   4.433
   31CHL1  H26B 3469   1.749   4.997   4.609
   31CHL1  H26C 3470   1.778   4.865   4.489
   31CHL1   C27 3471   1.521   4.871   4.376
   31CHL1  H27A 3472   1.413   4.842   4.379
   31CHL1  H27B 3473   1.532   4.952   4.302
   31CHL1  H27C 3474   1.580   4.783   4.343
   32CHL1    C3 3475   4.488   1.372   6.002
   32CHL1    H3 3476   4.392   1.316   5.992
   32CHL1    O3 3477   4.519   1.384   6.140
   32CHL1   H3' 3478   4.538   1.294   6.168
   32CHL1    C4 3479   4.601   1.296   5.931
   32CHL1   H4A 3480   4.697   1.349   5.950
   32CHL1   H4B 3481   4.610   1.196   5.978
   32CHL1    C5 3482   4.575   1.286   5.782
   32CHL1    C6 3483   4.568   1.166   5.721
   32CHL1    H6 3484   4.584   1.074   5.780
   32CHL1    C7 3485   4.548   1.149   5.574
   32CHL1   H7A 3486   4.616   1.070   5.535
   32CHL1   H7B 3487   4.443   1.115   5.554
   32CHL1    C8 3488   4.573   1.280   5.496
   32CHL1    H8 3489   4.683   1.298   5.496
   32CHL1   C14 3490   4.525   1.266   5.353
   32CHL1   H14 3491   4.415   1.252   5.358
   32CHL1   C15 3492   4.578   1.145   5.274
   32CHL1  H15A 3493   4.687   1.132   5.294
   32CHL1  H15B 3494   4.525   1.051   5.302
   32CHL1   C16 3495   4.555   1.183   5.128
   32CHL1  H16A 3496   4.652   1.174   5.075
   32CHL1  H16B 3497   4.480   1.118   5.079
   32CHL1   C17 3498   4.506   1.332   5.126
   32CHL1   H17 3499   4.395   1.327   5.127
   32CHL1   C13 3500   4.547   1.388   5.265
   32CHL1   C18 3501   4.698   1.426   5.258
   32CHL1  H18A 3502   4.758   1.344   5.211
   32CHL1  H18B 3503   4.711   1.518   5.197
   32CHL1  H18C 3504   4.740   1.446   5.358
   32CHL1   C12 3505   4.463   1.502   5.326
   32CHL1  H12A 3506   4.477   1.597   5.269
   32CHL1  H12B 3507   4.356   1.475   5.321
   32CHL1   C11 3508   4.503   1.528   5.474
   32CHL1  H11A 3509   4.604   1.573   5.471
   32CHL1  H11B 3510   4.434   1.603   5.517
   32CHL1    C9 3511   4.503   1.399   5.563
   32CHL1    H9 3512   4.396   1.369   5.569
   32CHL1   C10 3513   4.551   1.420   5.710
   32CHL1   C19 3514   4.685   1.498   5.707
   32CHL1  H19A 3515   4.758   1.447   5.641
   32CHL1  H19B 3516   4.669   1.602   5.670
   32CHL1  H19C 3517   4.730   1.507   5.808
   32CHL1    C1 3518   4.443   1.501   5.789
   32CHL1   H1A 3519   4.436   1.603   5.745
   32CHL1   H1B 3520   4.345   1.452   5.774
   32CHL1    C2 3521   4.470   1.512   5.940
   32CHL1   H2A 3522   4.385   1.564   5.990
   32CHL1   H2B 3523   4.562   1.571   5.957
   32CHL1   C20 3524   4.548   1.407   4.999
   32CHL1   H20 3525   4.656   1.433   5.005
   32CHL1   C21 3526   4.466   1.537   4.987
   32CHL1  H21A 3527   4.484   1.587   4.889
   32CHL1  H21B 3528   4.494   1.610   5.066
   32CHL1  H21C 3529   4.357   1.516   4.994
   32CHL1   C22 3530   4.533   1.321   4.870
   32CHL1  H22A 3531   4.577   1.220   4.883
   32CHL1  H22B 3532   4.425   1.307   4.850
   32CHL1   C23 3533   4.604   1.379   4.746
   32CHL1  H23A 3534   4.564   1.481   4.724
   32CHL1  H23B 3535   4.712   1.391   4.766
   32CHL1   C24 3536   4.582   1.290   4.622
   32CHL1  H24A 3537   4.485   1.237   4.636
   32CHL1  H24B 3538   4.572   1.353   4.531
   32CHL1   C25 3539   4.692   1.186   4.597
   32CHL1   H25 3540   4.724   1.144   4.695
   32CHL1   C26 3541   4.639   1.070   4.511
   32CHL1  H26A 3542   4.555   1.019   4.563
   32CHL1  H26B 3543   4.602   1.109   4.413
   32CHL1  H26C 3544   4.719   0.996   4.491
   32CHL1   C27 3545   4.814   1.251   4.529
   32CHL1  H27A 3546   4.784   1.293   4.430
   32CHL1  H27B 3547   4.854   1.334   4.591
   32CHL1  H27C 3548   4.894   1.176   4.513
   33CHL1    C3 3549   1.117   3.596   6.008
   33CHL1    H3 3550   1.011   3.565   5.995
   33CHL1    O3 3551   1.144   3.608   6.146
   33CHL1   H3' 3552   1.207   3.680   6.152
   33CHL1    C4 3553   1.209   3.489   5.948
   33CHL1   H4A 3554   1.315   3.515   5.970
   33CHL1   H4B 3555   1.190   3.392   6.000
   33CHL1    C5 3556   1.186   3.479   5.798
   33CHL1    C6 3557   1.147   3.365   5.741
   33CHL1    H6 3558   1.134   3.274   5.801
   33CHL1    C7 3559   1.123   3.353   5.593
   33CHL1   H7A 3560   1.155   3.254   5.555
   33CHL1   H7B 3561   1.014   3.365   5.579
   33CHL1    C8 3562   1.192   3.464   5.511
   33CHL1    H8 3563   1.302   3.447   5.517
   33CHL1   C14 3564   1.147   3.460   5.365
   33CHL1   H14 3565   1.038   3.480   5.365
   33CHL1   C15 3566   1.164   3.327   5.289
   33CHL1  H15A 3567   1.262   3.283   5.315
   33CHL1  H15B 3568   1.084   3.254   5.313
   33CHL1   C16 3569   1.162   3.368   5.141
   33CHL1  H16A 3570   1.255   3.331   5.092
   33CHL1  H16B 3571   1.074   3.327   5.087
   33CHL1   C17 3572   1.160   3.525   5.137
   33CHL1   H17 3573   1.053   3.554   5.134
   33CHL1   C13 3574   1.210   3.567   5.277
   33CHL1   C18 3575   1.363   3.555   5.277
   33CHL1  H18A 3576   1.399   3.462   5.227
   33CHL1  H18B 3577   1.404   3.643   5.222
   33CHL1  H18C 3578   1.406   3.558   5.379
   33CHL1   C12 3579   1.163   3.703   5.332
   33CHL1  H12A 3580   1.204   3.788   5.274
   33CHL1  H12B 3581   1.052   3.706   5.324
   33CHL1   C11 3582   1.203   3.720   5.480
   33CHL1  H11A 3583   1.314   3.730   5.481
   33CHL1  H11B 3584   1.160   3.815   5.519
   33CHL1    C9 3585   1.159   3.601   5.571
   33CHL1    H9 3586   1.048   3.605   5.571
   33CHL1   C10 3587   1.202   3.611   5.720
   33CHL1   C19 3588   1.352   3.646   5.724
   33CHL1  H19A 3589   1.365   3.748   5.680
   33CHL1  H19B 3590   1.393   3.651   5.827
   33CHL1  H19C 3591   1.413   3.574   5.665
   33CHL1    C1 3592   1.118   3.721   5.790
   33CHL1   H1A 3593   1.142   3.819   5.743
   33CHL1   H1B 3594   1.011   3.700   5.772
   33CHL1    C2 3595   1.140   3.731   5.942
   33CHL1   H2A 3596   1.070   3.806   5.985
   33CHL1   H2B 3597   1.244   3.766   5.962
   33CHL1   C20 3598   1.226   3.580   5.009
   33CHL1   H20 3599   1.331   3.544   5.004
   33CHL1   C21 3600   1.230   3.735   5.008
   33CHL1  H21A 3601   1.273   3.772   4.913
   33CHL1  H21B 3602   1.293   3.775   5.089
   33CHL1  H21C 3603   1.127   3.777   5.018
   33CHL1   C22 3604   1.151   3.527   4.885
   33CHL1  H22A 3605   1.150   3.416   4.887
   33CHL1  H22B 3606   1.046   3.562   4.891
   33CHL1   C23 3607   1.207   3.567   4.747
   33CHL1  H23A 3608   1.206   3.677   4.735
   33CHL1  H23B 3609   1.312   3.532   4.736
   33CHL1   C24 3610   1.118   3.505   4.638
   33CHL1  H24A 3611   1.113   3.395   4.652
   33CHL1  H24B 3612   1.015   3.545   4.653
   33CHL1   C25 3613   1.161   3.536   4.494
   33CHL1   H25 3614   1.189   3.643   4.487
   33CHL1   C26 3615   1.279   3.450   4.449
   33CHL1  H26A 3616   1.372   3.476   4.505
   33CHL1  H26B 3617   1.257   3.342   4.464
   33CHL1  H26C 3618   1.297   3.465   4.340
   33CHL1   C27 3619   1.043   3.510   4.401
   33CHL1  H27A 3620   0.956   3.571   4.435
   33CHL1  H27B 3621   1.068   3.539   4.296
   33CHL1  H27C 3622   1.013   3.403   4.403
   34CHL1    C3 3623   2.386   5.841   6.012
   34CHL1    H3 3624   2.488   5.827   5.970
   34CHL1    O3 3625   2.397   5.876   6.149
   34CHL1   H3' 3626   2.326   5.829   6.193
   34CHL1    C4 3627   2.314   5.954   5.936
   34CHL1   H4A 3628   2.216   5.972   5.985
   34CHL1   H4B 3629   2.373   6.047   5.950
   34CHL1    C5 3630   2.294   5.920   5.790
   34CHL1    C6 3631   2.340   5.999   5.692
   34CHL1    H6 3632   2.390   6.094   5.718
   34CHL1    C7 3633   2.321   5.973   5.545
   34CHL1   H7A 3634   2.286   6.064   5.493
   34CHL1   H7B 3635   2.419   5.945   5.500
   34CHL1    C8 3636   2.221   5.857   5.517
   34CHL1    H8 3637   2.118   5.899   5.532
   34CHL1   C14 3638   2.236   5.808   5.373
   34CHL1   H14 3639   2.341   5.775   5.362
   34CHL1   C15 3640   2.214   5.912   5.262
   34CHL1  H15A 3641   2.127   5.976   5.288
   34CHL1  H15B 3642   2.304   5.976   5.248
   34CHL1   C16 3643   2.182   5.828   5.138
   34CHL1  H16A 3644   2.086   5.866   5.097
   34CHL1  H16B 3645   2.261   5.837   5.061
   34CHL1   C17 3646   2.168   5.679   5.184
   34CHL1   H17 3647   2.266   5.631   5.166
   34CHL1   C13 3648   2.150   5.688   5.338
   34CHL1   C18 3649   2.002   5.720   5.368
   34CHL1  H18A 3650   1.985   5.752   5.473
   34CHL1  H18B 3651   1.964   5.801   5.302
   34CHL1  H18C 3652   1.943   5.628   5.353
   34CHL1   C12 3653   2.198   5.570   5.424
   34CHL1  H12A 3654   2.138   5.479   5.404
   34CHL1  H12B 3655   2.304   5.548   5.400
   34CHL1   C11 3656   2.185   5.603   5.574
   34CHL1  H11A 3657   2.078   5.599   5.602
   34CHL1  H11B 3658   2.236   5.523   5.632
   34CHL1    C9 3659   2.245   5.742   5.614
   34CHL1    H9 3660   2.354   5.724   5.600
   34CHL1   C10 3661   2.227   5.783   5.763
   34CHL1   C19 3662   2.076   5.799   5.795
   34CHL1  H19A 3663   2.060   5.838   5.898
   34CHL1  H19B 3664   2.026   5.868   5.724
   34CHL1  H19C 3665   2.027   5.700   5.791
   34CHL1    C1 3666   2.286   5.671   5.854
   34CHL1   H1A 3667   2.219   5.582   5.850
   34CHL1   H1B 3668   2.383   5.640   5.811
   34CHL1    C2 3669   2.307   5.710   6.001
   34CHL1   H2A 3670   2.360   5.629   6.054
   34CHL1   H2B 3671   2.207   5.723   6.049
   34CHL1   C20 3672   2.062   5.602   5.101
   34CHL1   H20 3673   1.962   5.630   5.139
   34CHL1   C21 3674   2.075   5.449   5.116
   34CHL1  H21A 3675   1.992   5.399   5.062
   34CHL1  H21B 3676   2.071   5.417   5.222
   34CHL1  H21C 3677   2.170   5.413   5.070
   34CHL1   C22 3678   2.057   5.638   4.950
   34CHL1  H22A 3679   1.977   5.577   4.901
   34CHL1  H22B 3680   2.025   5.744   4.939
   34CHL1   C23 3681   2.188   5.617   4.873
   34CHL1  H23A 3682   2.273   5.652   4.935
   34CHL1  H23B 3683   2.204   5.509   4.854
   34CHL1   C24 3684   2.188   5.694   4.739
   34CHL1  H24A 3685   2.111   5.649   4.673
   34CHL1  H24B 3686   2.161   5.800   4.757
   34CHL1   C25 3687   2.325   5.690   4.668
   34CHL1   H25 3688   2.358   5.584   4.669
   34CHL1   C26 3689   2.313   5.734   4.522
   34CHL1  H26A 3690   2.280   5.840   4.515
   34CHL1  H26B 3691   2.412   5.724   4.471
   34CHL1  H26C 3692   2.240   5.670   4.468
   34CHL1   C27 3693   2.431   5.774   4.741
   34CHL1  H27A 3694   2.400   5.881   4.744
   34CHL1  H27B 3695   2.445   5.739   4.846
   34CHL1  H27C 3696   2.528   5.767   4.689
   35CHL1    C3 3697   3.098   6.253   6.009
   35CHL1    H3 3698   3.035   6.344   6.019
   35CHL1    O3 3699   3.133   6.204   6.138
   35CHL1   H3' 3700   3.150   6.281   6.192
   35CHL1    C4 3701   3.018   6.144   5.936
   35CHL1   H4A 3702   3.074   6.049   5.942
   35CHL1   H4B 3703   2.924   6.127   5.994
   35CHL1    C5 3704   2.990   6.180   5.792
   35CHL1    C6 3705   2.865   6.188   5.744
   35CHL1    H6 3706   2.780   6.165   5.811
   35CHL1    C7 3707   2.832   6.217   5.601
   35CHL1   H7A 3708   2.749   6.151   5.566
   35CHL1   H7B 3709   2.799   6.322   5.590
   35CHL1    C8 3710   2.955   6.193   5.509
   35CHL1    H8 3711   2.973   6.084   5.506
   35CHL1   C14 3712   2.926   6.244   5.369
   35CHL1   H14 3713   2.916   6.355   5.377
   35CHL1   C15 3714   2.797   6.197   5.300
   35CHL1  H15A 3715   2.788   6.087   5.310
   35CHL1  H15B 3716   2.707   6.246   5.342
   35CHL1   C16 3717   2.819   6.235   5.153
   35CHL1  H16A 3718   2.788   6.150   5.088
   35CHL1  H16B 3719   2.761   6.325   5.125
   35CHL1   C17 3720   2.972   6.266   5.136
   35CHL1   H17 3721   2.982   6.376   5.135
   35CHL1   C13 3722   3.039   6.220   5.268
   35CHL1   C18 3723   3.071   6.068   5.258
   35CHL1  H18A 3724   2.983   6.011   5.224
   35CHL1  H18B 3725   3.155   6.050   5.187
   35CHL1  H18C 3726   3.104   6.027   5.356
   35CHL1   C12 3727   3.159   6.303   5.319
   35CHL1  H12A 3728   3.247   6.289   5.253
   35CHL1  H12B 3729   3.131   6.410   5.318
   35CHL1   C11 3730   3.198   6.264   5.463
   35CHL1  H11A 3731   3.244   6.163   5.456
   35CHL1  H11B 3732   3.277   6.333   5.500
   35CHL1    C9 3733   3.080   6.263   5.565
   35CHL1    H9 3734   3.050   6.370   5.576
   35CHL1   C10 3735   3.116   6.213   5.708
   35CHL1   C19 3736   3.203   6.085   5.695
   35CHL1  H19A 3737   3.224   6.038   5.794
   35CHL1  H19B 3738   3.153   6.010   5.631
   35CHL1  H19C 3739   3.302   6.109   5.652
   35CHL1    C1 3740   3.195   6.323   5.784
   35CHL1   H1A 3741   3.291   6.343   5.731
   35CHL1   H1B 3742   3.137   6.418   5.782
   35CHL1    C2 3743   3.226   6.290   5.932
   35CHL1   H2A 3744   3.275   6.376   5.980
   35CHL1   H2B 3745   3.296   6.204   5.935
   35CHL1   C20 3746   3.025   6.214   5.002
   35CHL1   H20 3747   3.013   6.103   4.997
   35CHL1   C21 3748   3.174   6.246   4.986
   35CHL1  H21A 3749   3.186   6.356   4.985
   35CHL1  H21B 3750   3.215   6.204   4.892
   35CHL1  H21C 3751   3.236   6.203   5.068
   35CHL1   C22 3752   2.946   6.274   4.882
   35CHL1  H22A 3753   2.843   6.232   4.882
   35CHL1  H22B 3754   2.937   6.384   4.896
   35CHL1   C23 3755   3.009   6.248   4.744
   35CHL1  H23A 3756   3.094   6.318   4.730
   35CHL1  H23B 3757   3.048   6.144   4.742
   35CHL1   C24 3758   2.910   6.267   4.628
   35CHL1  H24A 3759   2.831   6.189   4.634
   35CHL1  H24B 3760   2.860   6.365   4.639
   35CHL1   C25 3761   2.975   6.260   4.488
   35CHL1   H25 3762   3.051   6.341   4.482
   35CHL1   C26 3763   3.047   6.127   4.462
   35CHL1  H26A 3764   3.092   6.126   4.361
   35CHL1  H26B 3765   3.129   6.111   4.536
   35CHL1  H26C 3766   2.975   6.042   4.470
   35CHL1   C27 3767   2.871   6.285   4.378
   35CHL1  H27A 3768   2.816   6.380   4.397
   35CHL1  H27B 3769   2.919   6.291   4.278
   35CHL1  H27C 3770   2.797   6.202   4.376
   36CHL1    C3 3771   0.896   4.240   6.000
   36CHL1    H3 3772   0.973   4.305   5.953
   36CHL1    O3 3773   0.888   4.273   6.138
   36CHL1   H3' 3774   0.861   4.192   6.182
   36CHL1    C4 3775   0.760   4.266   5.933
   36CHL1   H4A 3776   0.683   4.207   5.987
   36CHL1   H4B 3777   0.735   4.373   5.947
   36CHL1    C5 3778   0.762   4.227   5.786
   36CHL1    C6 3779   0.735   4.316   5.690
   36CHL1    H6 3780   0.707   4.419   5.718
   36CHL1    C7 3781   0.733   4.284   5.544
   36CHL1   H7A 3782   0.644   4.330   5.495
   36CHL1   H7B 3783   0.823   4.327   5.496
   36CHL1    C8 3784   0.730   4.131   5.516
   36CHL1    H8 3785   0.627   4.095   5.536
   36CHL1   C14 3786   0.767   4.106   5.370
   36CHL1   H14 3787   0.873   4.137   5.360
   36CHL1   C15 3788   0.692   4.186   5.262
   36CHL1  H15A 3789   0.583   4.182   5.282
   36CHL1  H15B 3790   0.725   4.292   5.258
   36CHL1   C16 3791   0.724   4.110   5.133
   36CHL1  H16A 3792   0.630   4.088   5.080
   36CHL1  H16B 3793   0.791   4.169   5.066
   36CHL1   C17 3794   0.796   3.977   5.176
   36CHL1   H17 3795   0.905   3.998   5.174
   36CHL1   C13 3796   0.763   3.960   5.326
   36CHL1   C18 3797   0.620   3.900   5.339
   36CHL1  H18A 3798   0.585   3.904   5.444
   36CHL1  H18B 3799   0.548   3.956   5.275
   36CHL1  H18C 3800   0.621   3.794   5.307
   36CHL1   C12 3801   0.864   3.883   5.413
   36CHL1  H12A 3802   0.859   3.775   5.392
   36CHL1  H12B 3803   0.967   3.919   5.389
   36CHL1   C11 3804   0.839   3.905   5.564
   36CHL1  H11A 3805   0.744   3.853   5.589
   36CHL1  H11B 3806   0.921   3.856   5.621
   36CHL1    C9 3807   0.829   4.056   5.605
   36CHL1    H9 3808   0.928   4.099   5.582
   36CHL1   C10 3809   0.806   4.081   5.757
   36CHL1   C19 3810   0.694   3.986   5.807
   36CHL1  H19A 3811   0.669   4.005   5.914
   36CHL1  H19B 3812   0.602   3.998   5.747
   36CHL1  H19C 3813   0.727   3.880   5.802
   36CHL1    C1 3814   0.938   4.053   5.834
   36CHL1   H1A 3815   0.961   3.945   5.827
   36CHL1   H1B 3816   1.021   4.108   5.785
   36CHL1    C2 3817   0.937   4.093   5.983
   36CHL1   H2A 3818   1.038   4.077   6.028
   36CHL1   H2B 3819   0.865   4.029   6.038
   36CHL1   C20 3820   0.768   3.864   5.076
   36CHL1   H20 3821   0.661   3.837   5.083
   36CHL1   C21 3822   0.849   3.738   5.111
   36CHL1  H21A 3823   0.843   3.664   5.029
   36CHL1  H21B 3824   0.810   3.690   5.203
   36CHL1  H21C 3825   0.955   3.765   5.128
   36CHL1   C22 3826   0.792   3.905   4.928
   36CHL1  H22A 3827   0.770   3.818   4.862
   36CHL1  H22B 3828   0.717   3.983   4.901
   36CHL1   C23 3829   0.932   3.960   4.892
   36CHL1  H23A 3830   0.976   4.013   4.979
   36CHL1  H23B 3831   0.999   3.876   4.865
   36CHL1   C24 3832   0.924   4.061   4.775
   36CHL1  H24A 3833   0.872   4.011   4.691
   36CHL1  H24B 3834   0.862   4.147   4.807
   36CHL1   C25 3835   1.059   4.115   4.724
   36CHL1   H25 3836   1.117   4.029   4.682
   36CHL1   C26 3837   1.036   4.217   4.612
   36CHL1  H26A 3838   0.984   4.307   4.651
   36CHL1  H26B 3839   1.133   4.249   4.567
   36CHL1  H26C 3840   0.974   4.173   4.531
   36CHL1   C27 3841   1.144   4.179   4.835
   36CHL1  H27A 3842   1.089   4.264   4.881
   36CHL1  H27B 3843   1.170   4.105   4.914
   36CHL1  H27C 3844   1.239   4.219   4.792
   37CHL1    C3 3845   1.075   1.846   5.951
   37CHL1    H3 3846   1.061   1.736   5.940
   37CHL1    O3 3847   1.099   1.875   6.088
   37CHL1   H3' 3848   1.088   1.970   6.093
   37CHL1    C4 3849   1.192   1.895   5.864
   37CHL1   H4A 3850   1.217   1.999   5.893
   37CHL1   H4B 3851   1.281   1.834   5.893
   37CHL1    C5 3852   1.170   1.892   5.714
   37CHL1    C6 3853   1.265   1.847   5.630
   37CHL1    H6 3854   1.363   1.816   5.671
   37CHL1    C7 3855   1.249   1.834   5.482
   37CHL1   H7A 3856   1.332   1.883   5.427
   37CHL1   H7B 3857   1.253   1.726   5.456
   37CHL1    C8 3858   1.115   1.890   5.426
   37CHL1    H8 3859   1.131   1.998   5.409
   37CHL1   C14 3860   1.078   1.821   5.295
   37CHL1   H14 3861   1.059   1.715   5.323
   37CHL1   C15 3862   1.184   1.811   5.185
   37CHL1  H15A 3863   1.228   1.911   5.167
   37CHL1  H15B 3864   1.265   1.739   5.212
   37CHL1   C16 3865   1.103   1.764   5.064
   37CHL1  H16A 3866   1.139   1.818   4.973
   37CHL1  H16B 3867   1.116   1.655   5.047
   37CHL1   C17 3868   0.952   1.792   5.093
   37CHL1   H17 3869   0.904   1.694   5.113
   37CHL1   C13 3870   0.948   1.869   5.228
   37CHL1   C18 3871   0.942   2.021   5.205
   37CHL1  H18A 3872   0.836   2.054   5.209
   37CHL1  H18B 3873   0.996   2.079   5.283
   37CHL1  H18C 3874   0.979   2.051   5.104
   37CHL1   C12 3875   0.837   1.835   5.328
   37CHL1  H12A 3876   0.738   1.867   5.288
   37CHL1  H12B 3877   0.836   1.726   5.344
   37CHL1   C11 3878   0.863   1.906   5.462
   37CHL1  H11A 3879   0.859   2.017   5.448
   37CHL1  H11B 3880   0.780   1.880   5.532
   37CHL1    C9 3881   1.000   1.869   5.524
   37CHL1    H9 3882   0.993   1.759   5.539
   37CHL1   C10 3883   1.028   1.928   5.665
   37CHL1   C19 3884   1.022   2.083   5.657
   37CHL1  H19A 3885   1.044   2.128   5.756
   37CHL1  H19B 3886   1.095   2.122   5.584
   37CHL1  H19C 3887   0.920   2.117   5.627
   37CHL1    C1 3888   0.920   1.874   5.763
   37CHL1   H1A 3889   0.819   1.912   5.734
   37CHL1   H1B 3890   0.916   1.763   5.754
   37CHL1    C2 3891   0.944   1.911   5.909
   37CHL1   H2A 3892   0.859   1.874   5.970
   37CHL1   H2B 3893   0.949   2.021   5.921
   37CHL1   C20 3894   0.884   1.853   4.969
   37CHL1   H20 3895   0.939   1.944   4.940
   37CHL1   C21 3896   0.739   1.894   5.000
   37CHL1  H21A 3897   0.737   2.000   5.033
   37CHL1  H21B 3898   0.696   1.831   5.079
   37CHL1  H21C 3899   0.674   1.889   4.910
   37CHL1   C22 3900   0.890   1.763   4.843
   37CHL1  H22A 3901   0.995   1.730   4.824
   37CHL1  H22B 3902   0.828   1.671   4.858
   37CHL1   C23 3903   0.842   1.840   4.719
   37CHL1  H23A 3904   0.732   1.847   4.720
   37CHL1  H23B 3905   0.883   1.943   4.723
   37CHL1   C24 3906   0.883   1.778   4.585
   37CHL1  H24A 3907   0.993   1.784   4.570
   37CHL1  H24B 3908   0.855   1.670   4.587
   37CHL1   C25 3909   0.809   1.846   4.468
   37CHL1   H25 3910   0.702   1.852   4.495
   37CHL1   C26 3911   0.859   1.989   4.442
   37CHL1  H26A 3912   0.801   2.036   4.360
   37CHL1  H26B 3913   0.847   2.052   4.533
   37CHL1  H26C 3914   0.966   1.988   4.414
   37CHL1   C27 3915   0.820   1.761   4.341
   37CHL1  H27A 3916   0.788   1.657   4.364
   37CHL1  H27B 3917   0.750   1.798   4.263
   37CHL1  H27C 3918   0.923   1.760   4.301
   38CHL1    C3 3919   3.146   0.694   5.974
   38CHL1    H3 3920   3.056   0.753   5.948
   38CHL1    O3 3921   3.158   0.688   6.115
   38CHL1   H3' 3922   3.249   0.712   6.135
   38CHL1    C4 3923   3.134   0.552   5.918
   38CHL1   H4A 3924   3.219   0.492   5.956
   38CHL1   H4B 3925   3.042   0.506   5.961
   38CHL1    C5 3926   3.133   0.549   5.766
   38CHL1    C6 3927   3.033   0.494   5.697
   38CHL1    H6 3928   2.949   0.448   5.751
   38CHL1    C7 3929   3.033   0.479   5.548
   38CHL1   H7A 3930   3.002   0.376   5.520
   38CHL1   H7B 3931   2.958   0.550   5.506
   38CHL1    C8 3932   3.167   0.513   5.479
   38CHL1    H8 3933   3.237   0.428   5.491
   38CHL1   C14 3934   3.140   0.537   5.332
   38CHL1   H14 3935   3.062   0.616   5.329
   38CHL1   C15 3936   3.085   0.420   5.250
   38CHL1  H15A 3937   3.154   0.333   5.254
   38CHL1  H15B 3938   2.987   0.383   5.286
   38CHL1   C16 3939   3.080   0.478   5.109
   38CHL1  H16A 3940   3.107   0.400   5.035
   38CHL1  H16B 3941   2.978   0.516   5.086
   38CHL1   C17 3942   3.180   0.599   5.110
   38CHL1   H17 3943   3.120   0.692   5.114
   38CHL1   C13 3944   3.254   0.589   5.246
   38CHL1   C18 3945   3.364   0.481   5.235
   38CHL1  H18A 3946   3.455   0.527   5.191
   38CHL1  H18B 3947   3.388   0.440   5.335
   38CHL1  H18C 3948   3.334   0.396   5.169
   38CHL1   C12 3949   3.307   0.718   5.311
   38CHL1  H12A 3950   3.396   0.754   5.256
   38CHL1  H12B 3951   3.228   0.796   5.306
   38CHL1   C11 3952   3.345   0.695   5.460
   38CHL1  H11A 3953   3.430   0.623   5.464
   38CHL1  H11B 3954   3.379   0.791   5.503
   38CHL1    C9 3955   3.226   0.639   5.543
   38CHL1    H9 3956   3.146   0.716   5.534
   38CHL1   C10 3957   3.250   0.621   5.696
   38CHL1   C19 3958   3.378   0.535   5.716
   38CHL1  H19A 3959   3.369   0.437   5.666
   38CHL1  H19B 3960   3.467   0.589   5.677
   38CHL1  H19C 3961   3.396   0.517   5.824
   38CHL1    C1 3962   3.267   0.761   5.762
   38CHL1   H1A 3963   3.362   0.804   5.725
   38CHL1   H1B 3964   3.184   0.827   5.728
   38CHL1    C2 3965   3.270   0.762   5.916
   38CHL1   H2A 3966   3.276   0.867   5.952
   38CHL1   H2B 3967   3.362   0.709   5.950
   38CHL1   C20 3968   3.261   0.602   4.980
   38CHL1   H20 3969   3.316   0.506   4.970
   38CHL1   C21 3970   3.363   0.717   4.981
   38CHL1  H21A 3971   3.412   0.725   4.881
   38CHL1  H21B 3972   3.442   0.699   5.057
   38CHL1  H21C 3973   3.313   0.814   5.003
   38CHL1   C22 3974   3.169   0.617   4.856
   38CHL1  H22A 3975   3.064   0.588   4.878
   38CHL1  H22B 3976   3.166   0.724   4.826
   38CHL1   C23 3977   3.216   0.531   4.737
   38CHL1  H23A 3978   3.323   0.551   4.717
   38CHL1  H23B 3979   3.205   0.424   4.764
   38CHL1   C24 3980   3.132   0.560   4.612
   38CHL1  H24A 3981   3.024   0.559   4.639
   38CHL1  H24B 3982   3.156   0.663   4.576
   38CHL1   C25 3983   3.153   0.461   4.497
   38CHL1   H25 3984   3.117   0.361   4.529
   38CHL1   C26 3985   3.069   0.505   4.376
   38CHL1  H26A 3986   2.961   0.501   4.401
   38CHL1  H26B 3987   3.094   0.610   4.350
   38CHL1  H26C 3988   3.088   0.440   4.288
   38CHL1   C27 3989   3.302   0.446   4.458
   38CHL1  H27A 3990   3.358   0.396   4.540
   38CHL1  H27B 3991   3.312   0.386   4.366
   38CHL1  H27C 3992   3.347   0.546   4.441
   39CHL1    C3 3993   4.430   0.553   5.981
   39CHL1    H3 3994   4.348   0.627   5.978
   39CHL1    O3 3995   4.495   0.560   6.107
   39CHL1   H3' 3996   4.555   0.485   6.109
   39CHL1    C4 3997   4.371   0.412   5.962
   39CHL1   H4A 3998   4.450   0.337   5.983
   39CHL1   H4B 3999   4.293   0.398   6.040
   39CHL1    C5 4000   4.315   0.388   5.822
   39CHL1    C6 4001   4.190   0.345   5.801
   39CHL1    H6 4002   4.123   0.325   5.886
   39CHL1    C7 4003   4.135   0.313   5.664
   39CHL1   H7A 4004   4.078   0.217   5.664
   39CHL1   H7B 4005   4.064   0.393   5.632
   39CHL1    C8 4006   4.247   0.300   5.558
   39CHL1    H8 4007   4.303   0.207   5.580
   39CHL1   C14 4008   4.189   0.287   5.418
   39CHL1   H14 4009   4.130   0.380   5.400
   39CHL1   C15 4010   4.092   0.170   5.392
   39CHL1  H15A 4011   4.126   0.080   5.447
   39CHL1  H15B 4012   3.989   0.197   5.423
   39CHL1   C16 4013   4.102   0.145   5.240
   39CHL1  H16A 4014   4.140   0.041   5.225
   39CHL1  H16B 4015   4.003   0.154   5.190
   39CHL1   C17 4016   4.205   0.248   5.185
   39CHL1   H17 4017   4.146   0.340   5.164
   39CHL1   C13 4018   4.294   0.282   5.307
   39CHL1   C18 4019   4.391   0.162   5.329
   39CHL1  H18A 4020   4.468   0.160   5.249
   39CHL1  H18B 4021   4.445   0.171   5.426
   39CHL1  H18C 4022   4.338   0.065   5.329
   39CHL1   C12 4023   4.367   0.417   5.310
   39CHL1  H12A 4024   4.445   0.423   5.231
   39CHL1  H12B 4025   4.293   0.498   5.291
   39CHL1   C11 4026   4.435   0.441   5.446
   39CHL1  H11A 4027   4.521   0.370   5.451
   39CHL1  H11B 4028   4.477   0.543   5.448
   39CHL1    C9 4029   4.341   0.421   5.569
   39CHL1    H9 4030   4.273   0.509   5.566
   39CHL1   C10 4031   4.412   0.424   5.707
   39CHL1   C19 4032   4.526   0.320   5.707
   39CHL1  H19A 4033   4.608   0.352   5.638
   39CHL1  H19B 4034   4.572   0.309   5.807
   39CHL1  H19C 4035   4.491   0.220   5.675
   39CHL1    C1 4036   4.470   0.567   5.732
   39CHL1   H1A 4037   4.547   0.589   5.655
   39CHL1   H1B 4038   4.388   0.641   5.720
   39CHL1    C2 4039   4.532   0.586   5.872
   39CHL1   H2A 4040   4.566   0.691   5.883
   39CHL1   H2B 4041   4.621   0.520   5.881
   39CHL1   C20 4042   4.272   0.205   5.053
   39CHL1   H20 4043   4.354   0.133   5.073
   39CHL1   C21 4044   4.333   0.330   4.984
   39CHL1  H21A 4045   4.418   0.370   5.042
   39CHL1  H21B 4046   4.258   0.410   4.971
   39CHL1  H21C 4047   4.374   0.304   4.884
   39CHL1   C22 4048   4.173   0.131   4.958
   39CHL1  H22A 4049   4.140   0.036   5.006
   39CHL1  H22B 4050   4.082   0.195   4.945
   39CHL1   C23 4051   4.226   0.094   4.819
   39CHL1  H23A 4052   4.257   0.186   4.764
   39CHL1  H23B 4053   4.315   0.028   4.828
   39CHL1   C24 4054   4.117   0.025   4.735
   39CHL1  H24A 4055   4.091   7.231   4.781
   39CHL1  H24B 4056   4.026   0.088   4.743
   39CHL1   C25 4057   4.150   0.007   4.585
   39CHL1   H25 4058   4.258   0.030   4.571
   39CHL1   C26 4059   4.123   7.169   4.533
   39CHL1  H26A 4060   4.159   7.091   4.604
   39CHL1  H26B 4061   4.014   7.152   4.519
   39CHL1  H26C 4062   4.172   7.154   4.434
   39CHL1   C27 4063   4.066   0.103   4.501
   39CHL1  H27A 4064   4.104   0.110   4.397
   39CHL1  H27B 4065   3.960   0.069   4.498
   39CHL1  H27C 4066   4.066   0.204   4.548
   40CHL1    C3 4067   2.421   6.624   6.011
   40CHL1    H3 4068   2.515   6.574   5.980
   40CHL1    O3 4069   2.426   6.642   6.152
   40CHL1   H3' 4070   2.493   6.710   6.165
   40CHL1    C4 4071   2.409   6.761   5.945
   40CHL1   H4A 4072   2.315   6.810   5.976
   40CHL1   H4B 4073   2.492   6.826   5.981
   40CHL1    C5 4074   2.413   6.744   5.795
   40CHL1    C6 4075   2.513   6.799   5.725
   40CHL1    H6 4076   2.590   6.858   5.776
   40CHL1    C7 4077   2.524   6.788   5.577
   40CHL1   H7A 4078   2.543   6.890   5.535
   40CHL1   H7B 4079   2.610   6.723   5.551
   40CHL1    C8 4080   2.397   6.735   5.508
   40CHL1    H8 4081   2.323   6.818   5.503
   40CHL1   C14 4082   2.432   6.687   5.369
   40CHL1   H14 4083   2.495   6.597   5.383
   40CHL1   C15 4084   2.518   6.780   5.284
   40CHL1  H15A 4085   2.486   6.886   5.293
   40CHL1  H15B 4086   2.625   6.767   5.311
   40CHL1   C16 4087   2.498   6.728   5.142
   40CHL1  H16A 4088   2.465   6.811   5.076
   40CHL1  H16B 4089   2.593   6.685   5.104
   40CHL1   C17 4090   2.393   6.614   5.150
   40CHL1   H17 4091   2.449   6.520   5.165
   40CHL1   C13 4092   2.316   6.641   5.282
   40CHL1   C18 4093   2.215   6.756   5.258
   40CHL1  H18A 4094   2.263   6.843   5.210
   40CHL1  H18B 4095   2.132   6.721   5.192
   40CHL1  H18C 4096   2.169   6.790   5.353
   40CHL1   C12 4097   2.253   6.520   5.355
   40CHL1  H12A 4098   2.162   6.486   5.303
   40CHL1  H12B 4099   2.326   6.437   5.356
   40CHL1   C11 4100   2.217   6.555   5.503
   40CHL1  H11A 4101   2.132   6.627   5.499
   40CHL1  H11B 4102   2.181   6.463   5.554
   40CHL1    C9 4103   2.335   6.618   5.584
   40CHL1    H9 4104   2.414   6.540   5.587
   40CHL1   C10 4105   2.305   6.652   5.733
   40CHL1   C19 4106   2.170   6.728   5.741
   40CHL1  H19A 4107   2.146   6.759   5.845
   40CHL1  H19B 4108   2.171   6.818   5.677
   40CHL1  H19C 4109   2.086   6.663   5.708
   40CHL1    C1 4110   2.298   6.520   5.816
   40CHL1   H1A 4111   2.207   6.464   5.787
   40CHL1   H1B 4112   2.386   6.458   5.789
   40CHL1    C2 4113   2.301   6.538   5.970
   40CHL1   H2A 4114   2.306   6.439   6.019
   40CHL1   H2B 4115   2.207   6.588   6.002
   40CHL1   C20 4116   2.321   6.603   5.015
   40CHL1   H20 4117   2.265   6.698   4.997
   40CHL1   C21 4118   2.221   6.486   5.019
   40CHL1  H21A 4119   2.274   6.391   5.042
   40CHL1  H21B 4120   2.170   6.476   4.920
   40CHL1  H21C 4121   2.143   6.504   5.096
   40CHL1   C22 4122   2.420   6.584   4.898
   40CHL1  H22A 4123   2.514   6.643   4.909
   40CHL1  H22B 4124   2.450   6.477   4.895
   40CHL1   C23 4125   2.362   6.626   4.762
   40CHL1  H23A 4126   2.260   6.582   4.754
   40CHL1  H23B 4127   2.351   6.736   4.759
   40CHL1   C24 4128   2.449   6.579   4.645
   40CHL1  H24A 4129   2.540   6.643   4.639
   40CHL1  H24B 4130   2.483   6.475   4.663
   40CHL1   C25 4131   2.377   6.582   4.509
   40CHL1   H25 4132   2.449   6.548   4.432
   40CHL1   C26 4133   2.259   6.484   4.505
   40CHL1  H26A 4134   2.179   6.512   4.578
   40CHL1  H26B 4135   2.212   6.482   4.404
   40CHL1  H26C 4136   2.294   6.381   4.530
   40CHL1   C27 4137   2.331   6.724   4.471
   40CHL1  H27A 4138   2.418   6.794   4.471
   40CHL1  H27B 4139   2.286   6.724   4.369
   40CHL1  H27C 4140   2.256   6.762   4.543
   41CHL1    C3 4141   1.680   6.285   5.995
   41CHL1    H3 4142   1.590   6.348   5.986
   41CHL1    O3 4143   1.696   6.245   6.130
   41CHL1   H3' 4144   1.632   6.174   6.141
   41CHL1    C4 4145   1.664   6.158   5.908
   41CHL1   H4A 4146   1.750   6.091   5.928
   41CHL1   H4B 4147   1.573   6.105   5.942
   41CHL1    C5 4148   1.656   6.191   5.760
   41CHL1    C6 4149   1.551   6.153   5.687
   41CHL1    H6 4150   1.470   6.095   5.733
   41CHL1    C7 4151   1.538   6.180   5.540
   41CHL1   H7A 4152   1.500   6.090   5.486
   41CHL1   H7B 4153   1.463   6.261   5.524
   41CHL1    C8 4154   1.671   6.224   5.475
   41CHL1    H8 4155   1.735   6.133   5.463
   41CHL1   C14 4156   1.644   6.286   5.339
   41CHL1   H14 4157   1.586   6.378   5.360
   41CHL1   C15 4158   1.556   6.207   5.240
   41CHL1  H15A 4159   1.585   6.099   5.241
   41CHL1  H15B 4160   1.448   6.214   5.266
   41CHL1   C16 4161   1.588   6.270   5.104
   41CHL1  H16A 4162   1.626   6.190   5.037
   41CHL1  H16B 4163   1.498   6.316   5.058
   41CHL1   C17 4164   1.698   6.378   5.130
   41CHL1   H17 4165   1.643   6.471   5.154
   41CHL1   C13 4166   1.767   6.333   5.261
   41CHL1   C18 4167   1.861   6.214   5.229
   41CHL1  H18A 4168   1.951   6.250   5.175
   41CHL1  H18B 4169   1.897   6.164   5.322
   41CHL1  H18C 4170   1.811   6.137   5.167
   41CHL1   C12 4171   1.837   6.439   5.347
   41CHL1  H12A 4172   1.933   6.471   5.301
   41CHL1  H12B 4173   1.771   6.529   5.355
   41CHL1   C11 4174   1.869   6.387   5.489
   41CHL1  H11A 4175   1.948   6.310   5.478
   41CHL1  H11B 4176   1.911   6.470   5.549
   41CHL1    C9 4177   1.745   6.326   5.562
   41CHL1    H9 4178   1.674   6.411   5.573
   41CHL1   C10 4179   1.773   6.276   5.706
   41CHL1   C19 4180   1.900   6.187   5.705
   41CHL1  H19A 4181   1.921   6.143   5.805
   41CHL1  H19B 4182   1.890   6.104   5.632
   41CHL1  H19C 4183   1.990   6.247   5.678
   41CHL1    C1 4184   1.794   6.399   5.799
   41CHL1   H1A 4185   1.887   6.452   5.770
   41CHL1   H1B 4186   1.709   6.469   5.785
   41CHL1    C2 4187   1.803   6.366   5.950
   41CHL1   H2A 4188   1.808   6.460   6.009
   41CHL1   H2B 4189   1.895   6.307   5.970
   41CHL1   C20 4190   1.783   6.407   5.005
   41CHL1   H20 4191   1.854   6.324   4.989
   41CHL1   C21 4192   1.863   6.538   5.026
   41CHL1  H21A 4193   1.934   6.528   5.111
   41CHL1  H21B 4194   1.794   6.623   5.047
   41CHL1  H21C 4195   1.923   6.563   4.936
   41CHL1   C22 4196   1.698   6.420   4.877
   41CHL1  H22A 4197   1.636   6.328   4.863
   41CHL1  H22B 4198   1.628   6.505   4.887
   41CHL1   C23 4199   1.779   6.436   4.748
   41CHL1  H23A 4200   1.828   6.536   4.746
   41CHL1  H23B 4201   1.859   6.358   4.745
   41CHL1   C24 4202   1.690   6.420   4.624
   41CHL1  H24A 4203   1.635   6.324   4.633
   41CHL1  H24B 4204   1.615   6.502   4.625
   41CHL1   C25 4205   1.765   6.420   4.490
   41CHL1   H25 4206   1.844   6.343   4.496
   41CHL1   C26 4207   1.668   6.383   4.377
   41CHL1  H26A 4208   1.614   6.290   4.404
   41CHL1  H26B 4209   1.594   6.463   4.361
   41CHL1  H26C 4210   1.724   6.364   4.283
   41CHL1   C27 4211   1.831   6.556   4.461
   41CHL1  H27A 4212   1.887   6.552   4.365
   41CHL1  H27B 4213   1.753   6.635   4.454
   41CHL1  H27C 4214   1.903   6.583   4.541
   42CHL1    C3 4215   5.186   6.534   6.027
   42CHL1    H3 4216   5.225   6.636   6.006
   42CHL1    O3 4217   5.184   6.512   6.168
   42CHL1   H3' 4218   5.277   6.504   6.192
   42CHL1    C4 4219   5.043   6.522   5.971
   42CHL1   H4A 4220   5.001   6.423   6.000
   42CHL1   H4B 4221   4.981   6.599   6.021
   42CHL1    C5 4222   5.043   6.537   5.821
   42CHL1    C6 4223   4.972   6.633   5.760
   42CHL1    H6 4224   4.911   6.701   5.822
   42CHL1    C7 4225   4.961   6.651   5.611
   42CHL1   H7A 4226   4.855   6.665   5.582
   42CHL1   H7B 4227   5.018   6.741   5.579
   42CHL1    C8 4228   5.013   6.528   5.534
   42CHL1    H8 4229   4.936   6.449   5.546
   42CHL1   C14 4230   5.031   6.561   5.386
   42CHL1   H14 4231   5.109   6.640   5.381
   42CHL1   C15 4232   4.911   6.616   5.305
   42CHL1  H15A 4233   4.819   6.561   5.334
   42CHL1  H15B 4234   4.896   6.724   5.323
   42CHL1   C16 4235   4.947   6.585   5.158
   42CHL1  H16A 4236   4.865   6.525   5.113
   42CHL1  H16B 4237   4.960   6.678   5.098
   42CHL1   C17 4238   5.080   6.503   5.161
   42CHL1   H17 4239   5.162   6.577   5.153
   42CHL1   C13 4240   5.085   6.445   5.303
   42CHL1   C18 4241   4.985   6.327   5.309
   42CHL1  H18A 4242   4.889   6.349   5.257
   42CHL1  H18B 4243   5.031   6.238   5.262
   42CHL1  H18C 4244   4.960   6.299   5.414
   42CHL1   C12 4245   5.222   6.406   5.360
   42CHL1  H12A 4246   5.264   6.319   5.306
   42CHL1  H12B 4247   5.292   6.492   5.348
   42CHL1   C11 4248   5.213   6.368   5.508
   42CHL1  H11A 4249   5.156   6.273   5.514
   42CHL1  H11B 4250   5.315   6.349   5.547
   42CHL1    C9 4251   5.146   6.478   5.594
   42CHL1    H9 4252   5.214   6.565   5.589
   42CHL1   C10 4253   5.135   6.440   5.745
   42CHL1   C19 4254   5.080   6.296   5.757
   42CHL1  H19A 4255   5.054   6.269   5.862
   42CHL1  H19B 4256   4.990   6.282   5.694
   42CHL1  H19C 4257   5.156   6.222   5.724
   42CHL1    C1 4258   5.277   6.446   5.809
   42CHL1   H1A 4259   5.341   6.366   5.764
   42CHL1   H1B 4260   5.324   6.543   5.783
   42CHL1    C2 4261   5.278   6.430   5.962
   42CHL1   H2A 4262   5.383   6.441   5.999
   42CHL1   H2B 4263   5.243   6.328   5.988
   42CHL1   C20 4264   5.096   6.402   5.046
   42CHL1   H20 4265   5.024   6.318   5.060
   42CHL1   C21 4266   5.240   6.345   5.049
   42CHL1  H21A 4267   5.245   6.255   5.115
   42CHL1  H21B 4268   5.311   6.421   5.088
   42CHL1  H21C 4269   5.278   6.314   4.949
   42CHL1   C22 4270   5.064   6.455   4.905
   42CHL1  H22A 4271   4.966   6.507   4.904
   42CHL1  H22B 4272   5.143   6.527   4.873
   42CHL1   C23 4273   5.055   6.338   4.805
   42CHL1  H23A 4274   5.148   6.278   4.808
   42CHL1  H23B 4275   4.972   6.270   4.834
   42CHL1   C24 4276   5.037   6.382   4.660
   42CHL1  H24A 4277   4.929   6.397   4.639
   42CHL1  H24B 4278   5.088   6.480   4.645
   42CHL1   C25 4279   5.097   6.282   4.559
   42CHL1   H25 4280   5.208   6.290   4.566
   42CHL1   C26 4281   5.058   6.136   4.586
   42CHL1  H26A 4282   5.094   6.102   4.685
   42CHL1  H26B 4283   4.947   6.125   4.582
   42CHL1  H26C 4284   5.103   6.069   4.509
   42CHL1   C27 4285   5.054   6.325   4.420
   42CHL1  H27A 4286   5.116   6.278   4.341
   42CHL1  H27B 4287   4.947   6.299   4.403
   42CHL1  H27C 4288   5.062   6.436   4.411
   43CHL1    C3 4289   0.521   2.340   6.002
   43CHL1    H3 4290   0.471   2.436   5.976
   43CHL1    O3 4291   0.537   2.333   6.143
   43CHL1   H3' 4292   0.621   2.376   6.160
   43CHL1    C4 4293   0.439   2.222   5.949
   43CHL1   H4A 4294   0.486   2.127   5.982
   43CHL1   H4B 4295   0.339   2.225   5.997
   43CHL1    C5 4296   0.432   2.228   5.798
   43CHL1    C6 4297   0.314   2.232   5.736
   43CHL1    H6 4298   0.224   2.224   5.799
   43CHL1    C7 4299   0.294   2.240   5.588
   43CHL1   H7A 4300   0.213   2.171   5.556
   43CHL1   H7B 4301   0.261   2.343   5.562
   43CHL1    C8 4302   0.421   2.210   5.508
   43CHL1    H8 4303   0.432   2.099   5.505
   43CHL1   C14 4304   0.410   2.267   5.368
   43CHL1   H14 4305   0.418   2.377   5.379
   43CHL1   C15 4306   0.277   2.246   5.295
   43CHL1  H15A 4307   0.252   2.138   5.306
   43CHL1  H15B 4308   0.194   2.307   5.336
   43CHL1   C16 4309   0.312   2.282   5.151
   43CHL1  H16A 4310   0.275   2.204   5.081
   43CHL1  H16B 4311   0.269   2.380   5.123
   43CHL1   C17 4312   0.467   2.297   5.143
   43CHL1   H17 4313   0.488   2.405   5.160
   43CHL1   C13 4314   0.520   2.227   5.271
   43CHL1   C18 4315   0.519   2.074   5.248
   43CHL1  H18A 4316   0.598   2.047   5.175
   43CHL1  H18B 4317   0.540   2.019   5.342
   43CHL1  H18C 4318   0.422   2.038   5.207
   43CHL1   C12 4319   0.652   2.279   5.331
   43CHL1  H12A 4320   0.739   2.242   5.273
   43CHL1  H12B 4321   0.653   2.390   5.327
   43CHL1   C11 4322   0.669   2.236   5.479
   43CHL1  H11A 4323   0.681   2.125   5.478
   43CHL1  H11B 4324   0.762   2.280   5.521
   43CHL1    C9 4325   0.547   2.270   5.570
   43CHL1    H9 4326   0.534   2.380   5.565
   43CHL1   C10 4327   0.564   2.237   5.721
   43CHL1   C19 4328   0.624   2.097   5.734
   43CHL1  H19A 4329   0.723   2.091   5.684
   43CHL1  H19B 4330   0.638   2.065   5.839
   43CHL1  H19C 4331   0.554   2.025   5.684
   43CHL1    C1 4332   0.655   2.342   5.787
   43CHL1   H1A 4333   0.758   2.330   5.746
   43CHL1   H1B 4334   0.619   2.443   5.758
   43CHL1    C2 4335   0.660   2.335   5.941
   43CHL1   H2A 4336   0.720   2.419   5.981
   43CHL1   H2B 4337   0.707   2.239   5.971
   43CHL1   C20 4338   0.519   2.267   5.001
   43CHL1   H20 4339   0.490   2.163   4.972
   43CHL1   C21 4340   0.672   2.279   4.998
   43CHL1  H21A 4341   0.719   2.208   5.070
   43CHL1  H21B 4342   0.702   2.383   5.025
   43CHL1  H21C 4343   0.712   2.254   4.898
   43CHL1   C22 4344   0.455   2.368   4.901
   43CHL1  H22A 4345   0.344   2.359   4.904
   43CHL1  H22B 4346   0.480   2.469   4.938
   43CHL1   C23 4347   0.498   2.363   4.753
   43CHL1  H23A 4348   0.496   2.468   4.717
   43CHL1  H23B 4349   0.602   2.327   4.739
   43CHL1   C24 4350   0.401   2.285   4.663
   43CHL1  H24A 4351   0.418   2.176   4.674
   43CHL1  H24B 4352   0.298   2.307   4.697
   43CHL1   C25 4353   0.411   2.326   4.514
   43CHL1   H25 4354   0.411   2.437   4.511
   43CHL1   C26 4355   0.540   2.276   4.448
   43CHL1  H26A 4356   0.547   2.313   4.343
   43CHL1  H26B 4357   0.629   2.311   4.504
   43CHL1  H26C 4358   0.541   2.165   4.446
   43CHL1   C27 4359   0.287   2.281   4.434
   43CHL1  H27A 4360   0.194   2.299   4.491
   43CHL1  H27B 4361   0.281   2.336   4.338
   43CHL1  H27C 4362   0.293   2.172   4.411
   44CHL1    C3 4363   0.267   4.692   6.009
   44CHL1    H3 4364   0.285   4.801   6.008
   44CHL1    O3 4365   0.265   4.646   6.143
   44CHL1   H3' 4366   0.182   4.678   6.180
   44CHL1    C4 4367   0.131   4.661   5.945
   44CHL1   H4A 4368   0.107   4.554   5.962
   44CHL1   H4B 4369   0.053   4.720   5.999
   44CHL1    C5 4370   0.128   4.690   5.796
   44CHL1    C6 4371   0.035   4.770   5.742
   44CHL1    H6 4372   7.261   4.815   5.805
   44CHL1    C7 4373   0.018   4.789   5.594
   44CHL1   H7A 4374   7.215   4.776   5.565
   44CHL1   H7B 4375   0.047   4.893   5.568
   44CHL1    C8 4376   0.105   4.693   5.508
   44CHL1    H8 4377   0.055   4.594   5.502
   44CHL1   C14 4378   0.119   4.752   5.369
   44CHL1   H14 4379   0.168   4.850   5.386
   44CHL1   C15 4380   7.295   4.784   5.292
   44CHL1  H15A 4381   7.238   4.690   5.276
   44CHL1  H15B 4382   7.227   4.856   5.342
   44CHL1   C16 4383   0.051   4.838   5.162
   44CHL1  H16A 4384   7.292   4.818   5.072
   44CHL1  H16B 4385   0.062   4.948   5.171
   44CHL1   C17 4386   0.193   4.777   5.150
   44CHL1   H17 4387   0.261   4.861   5.176
   44CHL1   C13 4388   0.208   4.679   5.269
   44CHL1   C18 4389   0.151   4.539   5.237
   44CHL1  H18A 4390   0.223   4.483   5.174
   44CHL1  H18B 4391   0.135   4.480   5.330
   44CHL1  H18C 4392   0.055   4.545   5.182
   44CHL1   C12 4393   0.348   4.667   5.330
   44CHL1  H12A 4394   0.415   4.609   5.263
   44CHL1  H12B 4395   0.389   4.770   5.338
   44CHL1   C11 4396   0.343   4.605   5.471
   44CHL1  H11A 4397   0.313   4.498   5.460
   44CHL1  H11B 4398   0.446   4.606   5.514
   44CHL1    C9 4399   0.245   4.678   5.568
   44CHL1    H9 4400   0.284   4.781   5.576
   44CHL1   C10 4401   0.240   4.623   5.714
   44CHL1   C19 4402   0.215   4.470   5.709
   44CHL1  H19A 4403   0.301   4.418   5.661
   44CHL1  H19B 4404   0.205   4.428   5.811
   44CHL1  H19C 4405   0.123   4.447   5.652
   44CHL1    C1 4406   0.376   4.654   5.784
   44CHL1   H1A 4407   0.457   4.599   5.733
   44CHL1   H1B 4408   0.396   4.763   5.772
   44CHL1    C2 4409   0.379   4.620   5.934
   44CHL1   H2A 4410   0.477   4.650   5.978
   44CHL1   H2B 4411   0.368   4.511   5.947
   44CHL1   C20 4412   0.231   4.745   5.004
   44CHL1   H20 4413   0.208   4.839   4.949
   44CHL1   C21 4414   0.144   4.637   4.935
   44CHL1  H21A 4415   0.035   4.655   4.951
   44CHL1  H21B 4416   0.169   4.535   4.971
   44CHL1  H21C 4417   0.161   4.639   4.825
   44CHL1   C22 4418   0.382   4.723   4.982
   44CHL1  H22A 4419   0.438   4.796   5.044
   44CHL1  H22B 4420   0.411   4.621   5.014
   44CHL1   C23 4421   0.420   4.746   4.835
   44CHL1  H23A 4422   0.380   4.662   4.774
   44CHL1  H23B 4423   0.372   4.839   4.799
   44CHL1   C24 4424   0.571   4.760   4.813
   44CHL1  H24A 4425   0.607   4.848   4.871
   44CHL1  H24B 4426   0.623   4.670   4.852
   44CHL1   C25 4427   0.610   4.780   4.665
   44CHL1   H25 4428   0.547   4.862   4.624
   44CHL1   C26 4429   0.757   4.823   4.653
   44CHL1  H26A 4430   0.823   4.746   4.696
   44CHL1  H26B 4431   0.784   4.837   4.546
   44CHL1  H26C 4432   0.774   4.919   4.706
   44CHL1   C27 4433   0.584   4.653   4.582
   44CHL1  H27A 4434   0.476   4.627   4.582
   44CHL1  H27B 4435   0.616   4.668   4.477
   44CHL1  H27C 4436   0.641   4.568   4.625
   45CHL1    C3 4437   0.209   5.452   5.984
   45CHL1    H3 4438   0.312   5.460   5.943
   45CHL1    O3 4439   0.211   5.490   6.120
   45CHL1   H3' 4440   0.286   5.442   6.157
   45CHL1    C4 4441   0.117   5.546   5.904
   45CHL1   H4A 4442   0.017   5.550   5.952
   45CHL1   H4B 4443   0.158   5.648   5.911
   45CHL1    C5 4444   0.100   5.501   5.760
   45CHL1    C6 4445   0.128   5.583   5.658
   45CHL1    H6 4446   0.158   5.687   5.679
   45CHL1    C7 4447   0.118   5.545   5.513
   45CHL1   H7A 4448   0.075   5.629   5.453
   45CHL1   H7B 4449   0.218   5.521   5.471
   45CHL1    C8 4450   0.029   5.421   5.495
   45CHL1    H8 4451   7.230   5.456   5.516
   45CHL1   C14 4452   0.042   5.366   5.353
   45CHL1   H14 4453   0.145   5.326   5.343
   45CHL1   C15 4454   0.025   5.464   5.235
   45CHL1  H15A 4455   7.241   5.529   5.253
   45CHL1  H15B 4456   0.115   5.527   5.219
   45CHL1   C16 4457   7.302   5.370   5.116
   45CHL1  H16A 4458   7.218   5.411   5.055
   45CHL1  H16B 4459   0.088   5.361   5.051
   45CHL1   C17 4460   7.265   5.229   5.174
   45CHL1   H17 4461   0.053   5.167   5.163
   45CHL1   C13 4462   7.250   5.251   5.326
   45CHL1   C18 4463   7.106   5.300   5.355
   45CHL1  H18A 4464   7.090   5.325   5.462
   45CHL1  H18B 4465   7.077   5.386   5.292
   45CHL1  H18C 4466   7.036   5.216   5.336
   45CHL1   C12 4467   7.296   5.135   5.416
   45CHL1  H12A 4468   7.228   5.048   5.405
   45CHL1  H12B 4469   0.095   5.104   5.386
   45CHL1   C11 4470   7.296   5.175   5.565
   45CHL1  H11A 4471   7.190   5.181   5.594
   45CHL1  H11B 4472   0.040   5.095   5.625
   45CHL1    C9 4473   0.067   5.309   5.594
   45CHL1    H9 4474   0.174   5.289   5.574
   45CHL1   C10 4475   0.058   5.354   5.742
   45CHL1   C19 4476   7.214   5.342   5.790
   45CHL1  H19A 4477   7.146   5.395   5.721
   45CHL1  H19B 4478   7.183   5.235   5.796
   45CHL1  H19C 4479   7.199   5.383   5.892
   45CHL1    C1 4480   0.149   5.262   5.828
   45CHL1   H1A 4481   0.110   5.158   5.826
   45CHL1   H1B 4482   0.251   5.260   5.782
   45CHL1    C2 4483   0.163   5.306   5.975
   45CHL1   H2A 4484   0.235   5.240   6.027
   45CHL1   H2B 4485   0.065   5.295   6.025
   45CHL1   C20 4486   7.153   5.163   5.092
   45CHL1   H20 4487   7.072   5.238   5.079
   45CHL1   C21 4488   7.087   5.037   5.154
   45CHL1  H21A 4489   7.085   5.037   5.265
   45CHL1  H21B 4490   7.137   4.944   5.119
   45CHL1  H21C 4491   6.982   5.028   5.119
   45CHL1   C22 4492   7.208   5.125   4.952
   45CHL1  H22A 4493   7.253   5.215   4.905
   45CHL1  H22B 4494   7.290   5.051   4.968
   45CHL1   C23 4495   7.107   5.062   4.854
   45CHL1  H23A 4496   7.044   4.988   4.907
   45CHL1  H23B 4497   7.038   5.140   4.814
   45CHL1   C24 4498   7.176   4.986   4.740
   45CHL1  H24A 4499   7.270   4.939   4.778
   45CHL1  H24B 4500   7.110   4.903   4.709
   45CHL1   C25 4501   7.208   5.069   4.614
   45CHL1   H25 4502   7.111   5.104   4.573
   45CHL1   C26 4503   7.294   5.193   4.641
   45CHL1  H26A 4504   7.237   5.268   4.700
   45CHL1  H26B 4505   0.083   5.165   4.696
   45CHL1  H26C 4506   0.020   5.241   4.545
   45CHL1   C27 4507   7.277   4.979   4.511
   45CHL1  H27A 4508   7.218   4.887   4.491
   45CHL1  H27B 4509   7.290   5.033   4.415
   45CHL1  H27C 4510   0.072   4.948   4.550
   46CHL1    C3 4511   1.185   6.706   6.044
   46CHL1    H3 4512   1.148   6.807   6.070
   46CHL1    O3 4513   1.231   6.647   6.165
   46CHL1   H3' 4514   1.155   6.655   6.224
   46CHL1    C4 4515   1.066   6.625   5.989
   46CHL1   H4A 4516   1.097   6.518   5.980
   46CHL1   H4B 4517   0.983   6.627   6.063
   46CHL1    C5 4518   1.020   6.678   5.855
   46CHL1    C6 4519   0.895   6.723   5.835
   46CHL1    H6 4520   0.821   6.719   5.917
   46CHL1    C7 4521   0.844   6.769   5.702
   46CHL1   H7A 4522   0.739   6.736   5.688
   46CHL1   H7B 4523   0.845   6.879   5.695
   46CHL1    C8 4524   0.932   6.711   5.587
   46CHL1    H8 4525   0.919   6.600   5.586
   46CHL1   C14 4526   0.885   6.765   5.453
   46CHL1   H14 4527   0.891   6.876   5.461
   46CHL1   C15 4528   0.741   6.734   5.415
   46CHL1  H15A 4529   0.721   6.625   5.430
   46CHL1  H15B 4530   0.671   6.791   5.478
   46CHL1   C16 4531   0.735   6.771   5.267
   46CHL1  H16A 4532   0.683   6.690   5.210
   46CHL1  H16B 4533   0.681   6.867   5.252
   46CHL1   C17 4534   0.881   6.789   5.219
   46CHL1   H17 4535   0.902   6.898   5.222
   46CHL1   C13 4536   0.968   6.727   5.331
   46CHL1   C18 4537   0.968   6.572   5.312
   46CHL1  H18A 4538   1.038   6.543   5.230
   46CHL1  H18B 4539   1.002   6.520   5.404
   46CHL1  H18C 4540   0.867   6.535   5.286
   46CHL1   C12 4541   1.109   6.784   5.358
   46CHL1  H12A 4542   1.181   6.764   5.276
   46CHL1  H12B 4543   1.101   6.894   5.369
   46CHL1   C11 4544   1.169   6.725   5.488
   46CHL1  H11A 4545   1.184   6.616   5.469
   46CHL1  H11B 4546   1.269   6.769   5.506
   46CHL1    C9 4547   1.078   6.746   5.613
   46CHL1    H9 4548   1.075   6.856   5.630
   46CHL1   C10 4549   1.130   6.682   5.746
   46CHL1   C19 4550   1.178   6.538   5.714
   46CHL1  H19A 4551   1.208   6.484   5.806
   46CHL1  H19B 4552   1.097   6.481   5.664
   46CHL1  H19C 4553   1.267   6.541   5.648
   46CHL1    C1 4554   1.247   6.766   5.805
   46CHL1   H1A 4555   1.331   6.767   5.732
   46CHL1   H1B 4556   1.212   6.871   5.817
   46CHL1    C2 4557   1.299   6.717   5.942
   46CHL1   H2A 4558   1.375   6.788   5.980
   46CHL1   H2B 4559   1.347   6.618   5.930
   46CHL1   C20 4560   0.898   6.745   5.072
   46CHL1   H20 4561   0.875   6.637   5.062
   46CHL1   C21 4562   1.048   6.764   5.045
   46CHL1  H21A 4563   1.109   6.692   5.104
   46CHL1  H21B 4564   1.080   6.867   5.069
   46CHL1  H21C 4565   1.074   6.739   4.939
   46CHL1   C22 4566   0.798   6.821   4.976
   46CHL1  H22A 4567   0.695   6.792   5.006
   46CHL1  H22B 4568   0.808   6.930   4.997
   46CHL1   C23 4569   0.802   6.803   4.821
   46CHL1  H23A 4570   0.890   6.858   4.781
   46CHL1  H23B 4571   0.814   6.696   4.793
   46CHL1   C24 4572   0.683   6.866   4.746
   46CHL1  H24A 4573   0.593   6.801   4.754
   46CHL1  H24B 4574   0.662   6.961   4.799
   46CHL1   C25 4575   0.702   6.914   4.599
   46CHL1   H25 4576   0.759   7.009   4.604
   46CHL1   C26 4577   0.779   6.819   4.508
   46CHL1  H26A 4578   0.810   6.874   4.416
   46CHL1  H26B 4579   0.870   6.780   4.558
   46CHL1  H26C 4580   0.714   6.735   4.476
   46CHL1   C27 4581   0.568   6.939   4.530
   46CHL1  H27A 4582   0.587   6.968   4.425
   46CHL1  H27B 4583   0.509   6.846   4.528
   46CHL1  H27C 4584   0.510   7.019   4.581
   47CHL1    C3 4585   1.201   0.380   5.981
   47CHL1    H3 4586   1.166   0.484   5.998
   47CHL1    O3 4587   1.225   0.320   6.108
   47CHL1   H3' 4588   1.287   0.377   6.154
   47CHL1    C4 4589   1.094   0.301   5.903
   47CHL1   H4A 4590   1.125   0.195   5.903
   47CHL1   H4B 4591   1.000   0.305   5.963
   47CHL1    C5 4592   1.073   0.351   5.761
   47CHL1    C6 4593   0.951   0.386   5.716
   47CHL1    H6 4594   0.863   0.374   5.782
   47CHL1    C7 4595   0.924   0.435   5.576
   47CHL1   H7A 4596   0.831   0.389   5.535
   47CHL1   H7B 4597   0.909   0.545   5.580
   47CHL1    C8 4598   1.042   0.404   5.479
   47CHL1    H8 4599   1.044   0.294   5.465
   47CHL1   C14 4600   1.023   0.467   5.340
   47CHL1   H14 4601   1.025   0.577   5.353
   47CHL1   C15 4602   0.895   0.435   5.259
   47CHL1  H15A 4603   0.873   0.326   5.270
   47CHL1  H15B 4604   0.806   0.493   5.292
   47CHL1   C16 4605   0.933   0.461   5.112
   47CHL1  H16A 4606   0.914   0.368   5.054
   47CHL1  H16B 4607   0.872   0.541   5.066
   47CHL1   C17 4608   1.085   0.495   5.110
   47CHL1   H17 4609   1.097   0.605   5.121
   47CHL1   C13 4610   1.137   0.438   5.244
   47CHL1   C18 4611   1.152   0.288   5.225
   47CHL1  H18A 4612   1.244   0.274   5.164
   47CHL1  H18B 4613   1.168   0.232   5.320
   47CHL1  H18C 4614   1.067   0.243   5.170
   47CHL1   C12 4615   1.262   0.501   5.306
   47CHL1  H12A 4616   1.349   0.481   5.239
   47CHL1  H12B 4617   1.247   0.611   5.313
   47CHL1   C11 4618   1.295   0.443   5.444
   47CHL1  H11A 4619   1.329   0.338   5.426
   47CHL1  H11B 4620   1.381   0.498   5.488
   47CHL1    C9 4621   1.175   0.446   5.544
   47CHL1    H9 4622   1.161   0.553   5.570
   47CHL1   C10 4623   1.201   0.370   5.677
   47CHL1   C19 4624   1.258   0.229   5.645
   47CHL1  H19A 4625   1.361   0.236   5.606
   47CHL1  H19B 4626   1.261   0.166   5.737
   47CHL1  H19C 4627   1.195   0.176   5.570
   47CHL1    C1 4628   1.305   0.447   5.763
   47CHL1   H1A 4629   1.402   0.453   5.708
   47CHL1   H1B 4630   1.268   0.551   5.776
   47CHL1    C2 4631   1.330   0.385   5.902
   47CHL1   H2A 4632   1.404   0.444   5.960
   47CHL1   H2B 4633   1.371   0.282   5.892
   47CHL1   C20 4634   1.149   0.458   4.974
   47CHL1   H20 4635   1.124   0.352   4.950
   47CHL1   C21 4636   1.303   0.470   4.977
   47CHL1  H21A 4637   1.348   0.442   4.879
   47CHL1  H21B 4638   1.350   0.403   5.051
   47CHL1  H21C 4639   1.332   0.575   4.999
   47CHL1   C22 4640   1.094   0.549   4.860
   47CHL1  H22A 4641   0.983   0.552   4.863
   47CHL1  H22B 4642   1.130   0.652   4.882
   47CHL1   C23 4643   1.138   0.512   4.717
   47CHL1  H23A 4644   1.149   0.606   4.659
   47CHL1  H23B 4645   1.237   0.462   4.715
   47CHL1   C24 4646   1.036   0.424   4.643
   47CHL1  H24A 4647   1.000   0.344   4.711
   47CHL1  H24B 4648   0.949   0.487   4.616
   47CHL1   C25 4649   1.088   0.355   4.515
   47CHL1   H25 4650   1.146   0.267   4.550
   47CHL1   C26 4651   0.969   0.307   4.430
   47CHL1  H26A 4652   0.904   0.393   4.404
   47CHL1  H26B 4653   1.005   0.261   4.335
   47CHL1  H26C 4654   0.909   0.233   4.486
   47CHL1   C27 4655   1.184   0.439   4.428
   47CHL1  H27A 4656   1.267   0.482   4.488
   47CHL1  H27B 4657   1.229   0.375   4.349
   47CHL1  H27C 4658   1.130   0.521   4.376
   48CHL1    C3 4659   6.424   0.034   5.968
   48CHL1    H3 4660   6.374   7.241   5.949
   48CHL1    O3 4661   6.443   0.054   6.108
   48CHL1   H3' 4662   6.355   0.079   6.139
   48CHL1    C4 4663   6.559   0.034   5.898
   48CHL1   H4A 4664   6.609   0.127   5.933
   48CHL1   H4B 4665   6.616   7.250   5.935
   48CHL1    C5 4666   6.559   0.038   5.746
   48CHL1    C6 4667   6.634   7.259   5.672
   48CHL1    H6 4668   6.701   7.187   5.721
   48CHL1    C7 4669   6.643   7.266   5.522
   48CHL1   H7A 4670   6.749   7.261   5.489
   48CHL1   H7B 4671   6.591   7.178   5.478
   48CHL1    C8 4672   6.580   0.091   5.464
   48CHL1    H8 4673   6.650   0.175   5.484
   48CHL1   C14 4674   6.560   0.080   5.313
   48CHL1   H14 4675   6.499   7.292   5.299
   48CHL1   C15 4676   6.684   0.061   5.221
   48CHL1  H15A 4677   6.766   0.129   5.253
   48CHL1  H15B 4678   6.721   7.260   5.224
   48CHL1   C16 4679   6.632   0.100   5.081
   48CHL1  H16A 4680   6.695   0.180   5.037
   48CHL1  H16B 4681   6.629   0.013   5.013
   48CHL1   C17 4682   6.486   0.147   5.102
   48CHL1   H17 4683   6.431   0.050   5.099
   48CHL1   C13 4684   6.482   0.193   5.248
   48CHL1   C18 4685   6.560   0.327   5.257
   48CHL1  H18A 4686   6.588   0.351   5.362
   48CHL1  H18B 4687   6.654   0.326   5.198
   48CHL1  H18C 4688   6.496   0.409   5.219
   48CHL1   C12 4689   6.345   0.202   5.318
   48CHL1  H12A 4690   6.282   0.282   5.273
   48CHL1  H12B 4691   6.292   0.106   5.306
   48CHL1   C11 4692   6.364   0.232   5.466
   48CHL1  H11A 4693   6.415   0.330   5.477
   48CHL1  H11B 4694   6.265   0.242   5.516
   48CHL1    C9 4695   6.445   0.119   5.535
   48CHL1    H9 4696   6.385   0.027   5.521
   48CHL1   C10 4697   6.460   0.140   5.687
   48CHL1   C19 4698   6.509   0.283   5.710
   48CHL1  H19A 4699   6.421   0.352   5.706
   48CHL1  H19B 4700   6.560   0.298   5.807
   48CHL1  H19C 4701   6.577   0.313   5.627
   48CHL1    C1 4702   6.325   0.128   5.761
   48CHL1   H1A 4703   6.254   0.205   5.723
   48CHL1   H1B 4704   6.280   0.029   5.741
   48CHL1    C2 4705   6.341   0.150   5.912
   48CHL1   H2A 4706   6.242   0.160   5.961
   48CHL1   H2B 4707   6.392   0.246   5.935
   48CHL1   C20 4708   6.420   0.235   4.994
   48CHL1   H20 4709   6.441   0.342   5.014
   48CHL1   C21 4710   6.269   0.208   5.010
   48CHL1  H21A 4711   6.212   0.209   4.915
   48CHL1  H21B 4712   6.246   0.110   5.058
   48CHL1  H21C 4713   6.226   0.285   5.078
   48CHL1   C22 4714   6.466   0.210   4.846
   48CHL1  H22A 4715   6.574   0.233   4.837
   48CHL1  H22B 4716   6.452   0.101   4.828
   48CHL1   C23 4717   6.388   0.292   4.738
   48CHL1  H23A 4718   6.281   0.262   4.741
   48CHL1  H23B 4719   6.394   0.399   4.765
   48CHL1   C24 4720   6.432   0.276   4.591
   48CHL1  H24A 4721   6.532   0.323   4.579
   48CHL1  H24B 4722   6.443   0.169   4.564
   48CHL1   C25 4723   6.338   0.338   4.484
   48CHL1   H25 4724   6.323   0.444   4.511
   48CHL1   C26 4725   6.402   0.332   4.344
   48CHL1  H26A 4726   6.413   0.227   4.311
   48CHL1  H26B 4727   6.338   0.385   4.270
   48CHL1  H26C 4728   6.503   0.380   4.345
   48CHL1   C27 4729   6.200   0.269   4.474
   48CHL1  H27A 4730   6.134   0.327   4.406
   48CHL1  H27B 4731   6.211   0.167   4.431
   48CHL1  H27C 4732   6.150   0.260   4.572
   49CHL1    C3 4733   3.880   3.791   2.517
   49CHL1    H3 4734   3.869   3.902   2.515
   49CHL1    O3 4735   3.911   3.746   2.386
   49CHL1   H3' 4736   4.007   3.737   2.383
   49CHL1    C4 4737   3.995   3.754   2.613
   49CHL1   H4A 4738   4.018   3.646   2.600
   49CHL1   H4B 4739   4.086   3.809   2.580
   49CHL1    C5 4740   3.961   3.784   2.758
   49CHL1    C6 4741   4.038   3.863   2.834
   49CHL1    H6 4742   4.129   3.908   2.791
   49CHL1    C7 4743   4.016   3.885   2.982
   49CHL1   H7A 4744   4.113   3.880   3.036
   49CHL1   H7B 4745   3.972   3.985   3.000
   49CHL1    C8 4746   3.921   3.778   3.042
   49CHL1    H8 4747   3.975   3.682   3.042
   49CHL1   C14 4748   3.883   3.814   3.186
   49CHL1   H14 4749   3.823   3.907   3.180
   49CHL1   C15 4750   3.997   3.846   3.285
   49CHL1  H15A 4751   4.082   3.777   3.267
   49CHL1  H15B 4752   4.033   3.950   3.272
   49CHL1   C16 4753   3.937   3.821   3.424
   49CHL1  H16A 4754   3.999   3.745   3.477
   49CHL1  H16B 4755   3.934   3.913   3.485
   49CHL1   C17 4756   3.793   3.765   3.403
   49CHL1   H17 4757   3.726   3.853   3.398
   49CHL1   C13 4758   3.794   3.711   3.256
   49CHL1   C18 4759   3.868   3.574   3.255
   49CHL1  H18A 4760   3.975   3.585   3.279
   49CHL1  H18B 4761   3.825   3.505   3.331
   49CHL1  H18C 4762   3.860   3.525   3.156
   49CHL1   C12 4763   3.662   3.712   3.176
   49CHL1  H12A 4764   3.589   3.638   3.215
   49CHL1  H12B 4765   3.615   3.813   3.186
   49CHL1   C11 4766   3.682   3.682   3.025
   49CHL1  H11A 4767   3.705   3.574   3.020
   49CHL1  H11B 4768   3.587   3.698   2.971
   49CHL1    C9 4769   3.795   3.764   2.955
   49CHL1    H9 4770   3.755   3.867   2.946
   49CHL1   C10 4771   3.831   3.719   2.810
   49CHL1   C19 4772   3.847   3.565   2.808
   49CHL1  H19A 4773   3.916   3.531   2.889
   49CHL1  H19B 4774   3.748   3.517   2.822
   49CHL1  H19C 4775   3.886   3.527   2.711
   49CHL1    C1 4776   3.717   3.760   2.711
   49CHL1   H1A 4777   3.623   3.709   2.740
   49CHL1   H1B 4778   3.700   3.870   2.720
   49CHL1    C2 4779   3.747   3.728   2.563
   49CHL1   H2A 4780   3.665   3.766   2.498
   49CHL1   H2B 4781   3.753   3.618   2.549
   49CHL1   C20 4782   3.745   3.680   3.524
   49CHL1   H20 4783   3.802   3.585   3.526
   49CHL1   C21 4784   3.596   3.646   3.508
   49CHL1  H21A 4785   3.532   3.735   3.531
   49CHL1  H21B 4786   3.571   3.566   3.582
   49CHL1  H21C 4787   3.570   3.606   3.408
   49CHL1   C22 4788   3.769   3.752   3.662
   49CHL1  H22A 4789   3.878   3.749   3.685
   49CHL1  H22B 4790   3.744   3.858   3.640
   49CHL1   C23 4791   3.691   3.714   3.792
   49CHL1  H23A 4792   3.584   3.693   3.770
   49CHL1  H23B 4793   3.733   3.623   3.840
   49CHL1   C24 4794   3.695   3.826   3.899
   49CHL1  H24A 4795   3.788   3.884   3.885
   49CHL1  H24B 4796   3.605   3.888   3.879
   49CHL1   C25 4797   3.678   3.804   4.051
   49CHL1   H25 4798   3.694   3.903   4.098
   49CHL1   C26 4799   3.533   3.768   4.088
   49CHL1  H26A 4800   3.467   3.856   4.073
   49CHL1  H26B 4801   3.495   3.686   4.022
   49CHL1  H26C 4802   3.526   3.737   4.194
   49CHL1   C27 4803   3.785   3.713   4.109
   49CHL1  H27A 4804   3.884   3.763   4.102
   49CHL1  H27B 4805   3.764   3.691   4.216
   49CHL1  H27C 4806   3.791   3.618   4.053
   50CHL1    C3 4807   4.186   3.042   2.492
   50CHL1    H3 4808   4.291   3.073   2.505
   50CHL1    O3 4809   4.162   3.017   2.354
   50CHL1   H3' 4810   4.067   3.029   2.344
   50CHL1    C4 4811   4.159   2.913   2.571
   50CHL1   H4A 4812   4.055   2.880   2.551
   50CHL1   H4B 4813   4.226   2.835   2.529
   50CHL1    C5 4814   4.180   2.934   2.719
   50CHL1    C6 4815   4.268   2.859   2.787
   50CHL1    H6 4816   4.324   2.781   2.733
   50CHL1    C7 4817   4.293   2.869   2.935
   50CHL1   H7A 4818   4.293   2.768   2.981
   50CHL1   H7B 4819   4.393   2.914   2.953
   50CHL1    C8 4820   4.186   2.957   3.004
   50CHL1    H8 4821   4.093   2.896   3.010
   50CHL1   C14 4822   4.231   2.991   3.145
   50CHL1   H14 4823   4.328   3.045   3.136
   50CHL1   C15 4824   4.257   2.872   3.240
   50CHL1  H15A 4825   4.177   2.796   3.225
   50CHL1  H15B 4826   4.356   2.825   3.222
   50CHL1   C16 4827   4.245   2.933   3.380
   50CHL1  H16A 4828   4.171   2.876   3.439
   50CHL1  H16B 4829   4.343   2.929   3.433
   50CHL1   C17 4830   4.197   3.081   3.361
   50CHL1   H17 4831   4.287   3.147   3.357
   50CHL1   C13 4832   4.137   3.084   3.219
   50CHL1   C18 4833   3.998   3.021   3.228
   50CHL1  H18A 4834   3.954   2.998   3.128
   50CHL1  H18B 4835   3.998   2.927   3.287
   50CHL1  H18C 4836   3.931   3.094   3.277
   50CHL1   C12 4837   4.135   3.218   3.142
   50CHL1  H12A 4838   4.070   3.294   3.191
   50CHL1  H12B 4839   4.238   3.259   3.137
   50CHL1   C11 4840   4.082   3.196   2.999
   50CHL1  H11A 4841   3.974   3.171   3.005
   50CHL1  H11B 4842   4.090   3.291   2.943
   50CHL1    C9 4843   4.159   3.084   2.922
   50CHL1    H9 4844   4.260   3.128   2.906
   50CHL1   C10 4845   4.102   3.051   2.781
   50CHL1   C19 4846   3.953   3.009   2.793
   50CHL1  H19A 4847   3.940   2.922   2.861
   50CHL1  H19B 4848   3.890   3.093   2.829
   50CHL1  H19C 4849   3.911   2.979   2.694
   50CHL1    C1 4850   4.114   3.178   2.691
   50CHL1   H1A 4851   4.041   3.254   2.726
   50CHL1   H1B 4852   4.216   3.221   2.705
   50CHL1    C2 4853   4.093   3.153   2.541
   50CHL1   H2A 4854   4.112   3.247   2.484
   50CHL1   H2B 4855   3.987   3.124   2.524
   50CHL1   C20 4856   4.114   3.129   3.481
   50CHL1   H20 4857   4.027   3.061   3.495
   50CHL1   C21 4858   4.061   3.271   3.455
   50CHL1  H21A 4859   4.143   3.340   3.429
   50CHL1  H21B 4860   4.009   3.311   3.545
   50CHL1  H21C 4861   3.985   3.272   3.374
   50CHL1   C22 4862   4.197   3.126   3.612
   50CHL1  H22A 4863   4.259   3.034   3.618
   50CHL1  H22B 4864   4.267   3.212   3.608
   50CHL1   C23 4865   4.116   3.134   3.743
   50CHL1  H23A 4866   4.179   3.185   3.820
   50CHL1  H23B 4867   4.026   3.197   3.727
   50CHL1   C24 4868   4.067   3.000   3.798
   50CHL1  H24A 4869   3.995   2.957   3.726
   50CHL1  H24B 4870   4.152   2.929   3.809
   50CHL1   C25 4871   3.997   3.016   3.935
   50CHL1   H25 4872   3.930   3.105   3.928
   50CHL1   C26 4873   3.906   2.897   3.967
   50CHL1  H26A 4874   3.969   2.807   3.983
   50CHL1  H26B 4875   3.848   2.916   4.060
   50CHL1  H26C 4876   3.835   2.878   3.884
   50CHL1   C27 4877   4.097   3.038   4.050
   50CHL1  H27A 4878   4.044   3.041   4.147
   50CHL1  H27B 4879   4.170   2.955   4.052
   50CHL1  H27C 4880   4.151   3.134   4.037
   51CHL1    C3 4881   4.358   4.364   2.508
   51CHL1    H3 4882   4.265   4.425   2.503
   51CHL1    O3 4883   4.376   4.294   2.386
   51CHL1   H3' 4884   4.296   4.241   2.376
   51CHL1    C4 4885   4.479   4.457   2.530
   51CHL1   H4A 4886   4.572   4.398   2.512
   51CHL1   H4B 4887   4.475   4.533   2.449
   51CHL1    C5 4888   4.486   4.520   2.667
   51CHL1    C6 4889   4.504   4.652   2.682
   51CHL1    H6 4890   4.515   4.716   2.593
   51CHL1    C7 4891   4.525   4.718   2.815
   51CHL1   H7A 4892   4.615   4.783   2.812
   51CHL1   H7B 4893   4.439   4.785   2.838
   51CHL1    C8 4894   4.541   4.616   2.930
   51CHL1    H8 4895   4.645   4.577   2.924
   51CHL1   C14 4896   4.521   4.683   3.063
   51CHL1   H14 4897   4.415   4.717   3.066
   51CHL1   C15 4898   4.604   4.810   3.087
   51CHL1  H15A 4899   4.705   4.799   3.043
   51CHL1  H15B 4900   4.555   4.899   3.042
   51CHL1   C16 4901   4.614   4.819   3.239
   51CHL1  H16A 4902   4.721   4.814   3.269
   51CHL1  H16B 4903   4.576   4.916   3.278
   51CHL1   C17 4904   4.536   4.697   3.296
   51CHL1   H17 4905   4.429   4.727   3.304
   51CHL1   C13 4906   4.539   4.591   3.184
   51CHL1   C18 4907   4.677   4.522   3.183
   51CHL1  H18A 4908   4.755   4.599   3.167
   51CHL1  H18B 4909   4.696   4.469   3.279
   51CHL1  H18C 4910   4.686   4.449   3.101
   51CHL1   C12 4911   4.424   4.488   3.179
   51CHL1  H12A 4912   4.431   4.416   3.262
   51CHL1  H12B 4913   4.327   4.542   3.188
   51CHL1   C11 4914   4.427   4.411   3.045
   51CHL1  H11A 4915   4.511   4.338   3.051
   51CHL1  H11B 4916   4.334   4.351   3.038
   51CHL1    C9 4917   4.440   4.501   2.918
   51CHL1    H9 4918   4.341   4.550   2.908
   51CHL1   C10 4919   4.464   4.423   2.786
   51CHL1   C19 4920   4.591   4.337   2.807
   51CHL1  H19A 4921   4.656   4.375   2.889
   51CHL1  H19B 4922   4.563   4.232   2.832
   51CHL1  H19C 4923   4.656   4.335   2.717
   51CHL1    C1 4924   4.341   4.333   2.758
   51CHL1   H1A 4925   4.332   4.256   2.838
   51CHL1   H1B 4926   4.250   4.397   2.762
   51CHL1    C2 4927   4.343   4.262   2.622
   51CHL1   H2A 4928   4.249   4.205   2.608
   51CHL1   H2B 4929   4.427   4.190   2.619
   51CHL1   C20 4930   4.582   4.664   3.438
   51CHL1   H20 4931   4.690   4.639   3.439
   51CHL1   C21 4932   4.503   4.545   3.496
   51CHL1  H21A 4933   4.393   4.562   3.485
   51CHL1  H21B 4934   4.526   4.532   3.604
   51CHL1  H21C 4935   4.531   4.451   3.444
   51CHL1   C22 4936   4.562   4.792   3.523
   51CHL1  H22A 4937   4.628   4.871   3.483
   51CHL1  H22B 4938   4.457   4.827   3.512
   51CHL1   C23 4939   4.594   4.783   3.672
   51CHL1  H23A 4940   4.522   4.717   3.725
   51CHL1  H23B 4941   4.696   4.743   3.686
   51CHL1   C24 4942   4.587   4.925   3.728
   51CHL1  H24A 4943   4.651   4.990   3.664
   51CHL1  H24B 4944   4.483   4.966   3.720
   51CHL1   C25 4945   4.636   4.937   3.872
   51CHL1   H25 4946   4.719   4.865   3.886
   51CHL1   C26 4947   4.692   5.077   3.893
   51CHL1  H26A 4948   4.749   5.083   3.988
   51CHL1  H26B 4949   4.761   5.103   3.810
   51CHL1  H26C 4950   4.610   5.153   3.894
   51CHL1   C27 4951   4.524   4.903   3.971
   51CHL1  H27A 4952   4.441   4.977   3.964
   51CHL1  H27B 4953   4.482   4.802   3.950
   51CHL1  H27C 4954   4.562   4.903   4.076
   52CHL1    C3 4955   4.134   5.142   2.481
   52CHL1    H3 4956   4.127   5.252   2.496
   52CHL1    O3 4957   4.121   5.114   2.342
   52CHL1   H3' 4958   4.031   5.138   2.322
   52CHL1    C4 4959   4.271   5.092   2.530
   52CHL1   H4A 4960   4.282   4.985   2.503
   52CHL1   H4B 4961   4.348   5.149   2.472
   52CHL1    C5 4962   4.290   5.109   2.679
   52CHL1    C6 4963   4.397   5.174   2.729
   52CHL1    H6 4964   4.474   5.213   2.661
   52CHL1    C7 4965   4.423   5.195   2.876
   52CHL1   H7A 4966   4.527   5.167   2.901
   52CHL1   H7B 4967   4.410   5.302   2.901
   52CHL1    C8 4968   4.327   5.111   2.965
   52CHL1    H8 4969   4.365   5.007   2.964
   52CHL1   C14 4970   4.328   5.165   3.107
   52CHL1   H14 4971   4.287   5.268   3.101
   52CHL1   C15 4972   4.463   5.181   3.179
   52CHL1  H15A 4973   4.527   5.092   3.159
   52CHL1  H15B 4974   4.517   5.272   3.145
   52CHL1   C16 4975   4.425   5.188   3.327
   52CHL1  H16A 4976   4.484   5.113   3.384
   52CHL1  H16B 4977   4.444   5.289   3.369
   52CHL1   C17 4978   4.272   5.158   3.337
   52CHL1   H17 4979   4.221   5.256   3.334
   52CHL1   C13 4980   4.236   5.090   3.204
   52CHL1   C18 4981   4.277   4.942   3.214
   52CHL1  H18A 4982   4.209   4.885   3.281
   52CHL1  H18B 4983   4.276   4.891   3.115
   52CHL1  H18C 4984   4.379   4.933   3.257
   52CHL1   C12 4985   4.093   5.110   3.151
   52CHL1  H12A 4986   4.019   5.058   3.216
   52CHL1  H12B 4987   4.069   5.218   3.152
   52CHL1   C11 4988   4.079   5.056   3.008
   52CHL1  H11A 4989   4.091   4.946   3.010
   52CHL1  H11B 4990   3.976   5.077   2.972
   52CHL1    C9 4991   4.184   5.115   2.910
   52CHL1    H9 4992   4.159   5.223   2.902
   52CHL1   C10 4993   4.173   5.058   2.766
   52CHL1   C19 4994   4.179   4.902   2.771
   52CHL1  H19A 4995   4.258   4.868   2.842
   52CHL1  H19B 4996   4.082   4.861   2.808
   52CHL1  H19C 4997   4.198   4.858   2.672
   52CHL1    C1 4998   4.036   5.100   2.706
   52CHL1   H1A 4999   3.954   5.046   2.759
   52CHL1   H1B 5000   4.021   5.208   2.724
   52CHL1    C2 5001   4.022   5.072   2.556
   52CHL1   H2A 5002   3.923   5.108   2.520
   52CHL1   H2B 5003   4.027   4.963   2.537
   52CHL1   C20 5004   4.235   5.092   3.471
   52CHL1   H20 5005   4.295   4.999   3.484
   52CHL1   C21 5006   4.087   5.051   3.474
   52CHL1  H21A 5007   4.021   5.139   3.457
   52CHL1  H21B 5008   4.061   5.005   3.572
   52CHL1  H21C 5009   4.066   4.973   3.398
   52CHL1   C22 5010   4.269   5.187   3.588
   52CHL1  H22A 5011   4.379   5.191   3.601
   52CHL1  H22B 5012   4.235   5.290   3.563
   52CHL1   C23 5013   4.204   5.149   3.722
   52CHL1  H23A 5014   4.093   5.158   3.713
   52CHL1  H23B 5015   4.229   5.044   3.748
   52CHL1   C24 5016   4.247   5.242   3.835
   52CHL1  H24A 5017   4.353   5.222   3.859
   52CHL1  H24B 5018   4.240   5.348   3.801
   52CHL1   C25 5019   4.161   5.225   3.962
   52CHL1   H25 5020   4.144   5.116   3.977
   52CHL1   C26 5021   4.238   5.278   4.082
   52CHL1  H26A 5022   4.328   5.215   4.095
   52CHL1  H26B 5023   4.272   5.383   4.064
   52CHL1  H26C 5024   4.178   5.275   4.175
   52CHL1   C27 5025   4.024   5.294   3.952
   52CHL1  H27A 5026   3.968   5.281   4.046
   52CHL1  H27B 5027   4.037   5.403   3.934
   52CHL1  H27C 5028   3.964   5.251   3.869
   53CHL1    C3 5029   3.466   5.301   2.543
   53CHL1    H3 5030   3.376   5.235   2.552
   53CHL1    O3 5031   3.496   5.320   2.405
   53CHL1   H3' 5032   3.448   5.251   2.359
   53CHL1    C4 5033   3.436   5.436   2.609
   53CHL1   H4A 5034   3.522   5.504   2.593
   53CHL1   H4B 5035   3.350   5.482   2.556
   53CHL1    C5 5036   3.408   5.418   2.757
   53CHL1    C6 5037   3.289   5.449   2.810
   53CHL1    H6 5038   3.212   5.493   2.746
   53CHL1    C7 5039   3.256   5.432   2.955
   53CHL1   H7A 5040   3.194   5.517   2.991
   53CHL1   H7B 5041   3.195   5.340   2.968
   53CHL1    C8 5042   3.383   5.418   3.045
   53CHL1    H8 5043   3.435   5.516   3.048
   53CHL1   C14 5044   3.342   5.378   3.186
   53CHL1   H14 5045   3.289   5.281   3.175
   53CHL1   C15 5046   3.240   5.465   3.261
   53CHL1  H15A 5047   3.273   5.571   3.260
   53CHL1  H15B 5048   3.137   5.457   3.218
   53CHL1   C16 5049   3.248   5.416   3.405
   53CHL1  H16A 5050   3.254   5.505   3.470
   53CHL1  H16B 5051   3.158   5.357   3.433
   53CHL1   C17 5052   3.375   5.326   3.415
   53CHL1   H17 5053   3.340   5.221   3.409
   53CHL1   C13 5054   3.456   5.351   3.284
   53CHL1   C18 5055   3.542   5.477   3.305
   53CHL1  H18A 5056   3.482   5.558   3.350
   53CHL1  H18B 5057   3.627   5.454   3.372
   53CHL1  H18C 5058   3.585   5.513   3.209
   53CHL1   C12 5059   3.542   5.237   3.225
   53CHL1  H12A 5060   3.631   5.218   3.288
   53CHL1  H12B 5061   3.482   5.144   3.223
   53CHL1   C11 5062   3.591   5.271   3.082
   53CHL1  H11A 5063   3.665   5.352   3.091
   53CHL1  H11B 5064   3.644   5.182   3.040
   53CHL1    C9 5065   3.477   5.314   2.984
   53CHL1    H9 5066   3.413   5.223   2.975
   53CHL1   C10 5067   3.521   5.349   2.838
   53CHL1   C19 5068   3.643   5.445   2.845
   53CHL1  H19A 5069   3.675   5.478   2.744
   53CHL1  H19B 5070   3.620   5.535   2.906
   53CHL1  H19C 5071   3.731   5.393   2.890
   53CHL1    C1 5072   3.560   5.219   2.763
   53CHL1   H1A 5073   3.649   5.172   2.811
   53CHL1   H1B 5074   3.475   5.148   2.772
   53CHL1    C2 5075   3.586   5.234   2.611
   53CHL1   H2A 5076   3.603   5.134   2.566
   53CHL1   H2B 5077   3.676   5.296   2.595
   53CHL1   C20 5078   3.444   5.344   3.552
   53CHL1   H20 5079   3.498   5.441   3.555
   53CHL1   C21 5080   3.546   5.231   3.570
   53CHL1  H21A 5081   3.624   5.233   3.491
   53CHL1  H21B 5082   3.495   5.132   3.569
   53CHL1  H21C 5083   3.600   5.242   3.667
   53CHL1   C22 5084   3.342   5.348   3.669
   53CHL1  H22A 5085   3.291   5.447   3.668
   53CHL1  H22B 5086   3.265   5.270   3.654
   53CHL1   C23 5087   3.401   5.330   3.810
   53CHL1  H23A 5088   3.423   5.222   3.826
   53CHL1  H23B 5089   3.496   5.387   3.819
   53CHL1   C24 5090   3.304   5.378   3.920
   53CHL1  H24A 5091   3.306   5.489   3.923
   53CHL1  H24B 5092   3.201   5.347   3.892
   53CHL1   C25 5093   3.333   5.323   4.061
   53CHL1   H25 5094   3.316   5.213   4.059
   53CHL1   C26 5095   3.479   5.346   4.104
   53CHL1  H26A 5096   3.505   5.454   4.097
   53CHL1  H26B 5097   3.494   5.313   4.209
   53CHL1  H26C 5098   3.549   5.288   4.040
   53CHL1   C27 5099   3.235   5.383   4.163
   53CHL1  H27A 5100   3.242   5.494   4.162
   53CHL1  H27B 5101   3.131   5.355   4.138
   53CHL1  H27C 5102   3.258   5.347   4.265
   54CHL1    C3 5103   2.666   5.385   2.523
   54CHL1    H3 5104   2.663   5.274   2.527
   54CHL1    O3 5105   2.687   5.426   2.389
   54CHL1   H3' 5106   2.601   5.420   2.347
   54CHL1    C4 5107   2.532   5.441   2.574
   54CHL1   H4A 5108   2.530   5.550   2.550
   54CHL1   H4B 5109   2.451   5.395   2.515
   54CHL1    C5 5110   2.510   5.423   2.723
   54CHL1    C6 5111   2.399   5.366   2.774
   54CHL1    H6 5112   2.321   5.330   2.706
   54CHL1    C7 5113   2.366   5.357   2.920
   54CHL1   H7A 5114   2.262   5.389   2.938
   54CHL1   H7B 5115   2.374   5.251   2.952
   54CHL1    C8 5116   2.462   5.444   3.006
   54CHL1    H8 5117   2.435   5.551   2.991
   54CHL1   C14 5118   2.443   5.412   3.154
   54CHL1   H14 5119   2.457   5.302   3.164
   54CHL1   C15 5120   2.305   5.443   3.215
   54CHL1  H15A 5121   2.272   5.544   3.183
   54CHL1  H15B 5122   2.229   5.369   3.184
   54CHL1   C16 5123   2.333   5.443   3.367
   54CHL1  H16A 5124   2.298   5.539   3.410
   54CHL1  H16B 5125   2.280   5.360   3.419
   54CHL1   C17 5126   2.488   5.428   3.383
   54CHL1   H17 5127   2.509   5.319   3.388
   54CHL1   C13 5128   2.545   5.476   3.248
   54CHL1   C18 5129   2.537   5.631   3.242
   54CHL1  H18A 5130   2.551   5.668   3.138
   54CHL1  H18B 5131   2.439   5.669   3.278
   54CHL1  H18C 5132   2.617   5.675   3.305
   54CHL1   C12 5133   2.684   5.425   3.205
   54CHL1  H12A 5134   2.765   5.465   3.270
   54CHL1  H12B 5135   2.683   5.314   3.214
   54CHL1   C11 5136   2.716   5.465   3.060
   54CHL1  H11A 5137   2.729   5.575   3.057
   54CHL1  H11B 5138   2.813   5.419   3.032
   54CHL1    C9 5139   2.606   5.419   2.959
   54CHL1    H9 5140   2.616   5.308   2.957
   54CHL1   C10 5141   2.626   5.467   2.813
   54CHL1   C19 5142   2.626   5.622   2.809
   54CHL1  H19A 5143   2.705   5.663   2.876
   54CHL1  H19B 5144   2.647   5.660   2.707
   54CHL1  H19C 5145   2.529   5.664   2.842
   54CHL1    C1 5146   2.760   5.410   2.758
   54CHL1   H1A 5147   2.845   5.452   2.815
   54CHL1   H1B 5148   2.760   5.300   2.774
   54CHL1    C2 5149   2.783   5.435   2.608
   54CHL1   H2A 5150   2.877   5.384   2.575
   54CHL1   H2B 5151   2.797   5.544   2.590
   54CHL1   C20 5152   2.541   5.490   3.513
   54CHL1   H20 5153   2.527   5.600   3.508
   54CHL1   C21 5154   2.692   5.462   3.527
   54CHL1  H21A 5155   2.715   5.356   3.502
   54CHL1  H21B 5156   2.724   5.480   3.632
   54CHL1  H21C 5157   2.751   5.529   3.461
   54CHL1   C22 5158   2.468   5.443   3.641
   54CHL1  H22A 5159   2.495   5.515   3.721
   54CHL1  H22B 5160   2.358   5.451   3.628
   54CHL1   C23 5161   2.503   5.301   3.690
   54CHL1  H23A 5162   2.489   5.230   3.606
   54CHL1  H23B 5163   2.610   5.296   3.720
   54CHL1   C24 5164   2.417   5.256   3.808
   54CHL1  H24A 5165   2.310   5.262   3.777
   54CHL1  H24B 5166   2.438   5.149   3.831
   54CHL1   C25 5167   2.436   5.337   3.938
   54CHL1   H25 5168   2.450   5.444   3.912
   54CHL1   C26 5169   2.311   5.328   4.027
   54CHL1  H26A 5170   2.220   5.352   3.968
   54CHL1  H26B 5171   2.301   5.226   4.068
   54CHL1  H26C 5172   2.318   5.400   4.112
   54CHL1   C27 5173   2.559   5.289   4.018
   54CHL1  H27A 5174   2.571   5.351   4.110
   54CHL1  H27B 5175   2.545   5.183   4.048
   54CHL1  H27C 5176   2.651   5.298   3.957
   55CHL1    C3 5177   5.226   1.957   2.519
   55CHL1    H3 5178   5.335   1.979   2.525
   55CHL1    O3 5179   5.192   1.938   2.382
   55CHL1   H3' 5180   5.189   1.843   2.370
   55CHL1    C4 5181   5.195   1.830   2.599
   55CHL1   H4A 5182   5.089   1.803   2.584
   55CHL1   H4B 5183   5.254   1.746   2.555
   55CHL1    C5 5184   5.225   1.849   2.746
   55CHL1    C6 5185   5.316   1.773   2.809
   55CHL1    H6 5186   5.368   1.693   2.754
   55CHL1    C7 5187   5.346   1.783   2.956
   55CHL1   H7A 5188   5.358   1.681   2.999
   55CHL1   H7B 5189   5.442   1.837   2.971
   55CHL1    C8 5190   5.234   1.857   3.033
   55CHL1    H8 5191   5.145   1.790   3.035
   55CHL1   C14 5192   5.281   1.884   3.176
   55CHL1   H14 5193   5.367   1.954   3.167
   55CHL1   C15 5194   5.333   1.765   3.257
   55CHL1  H15A 5195   5.257   1.683   3.254
   55CHL1  H15B 5196   5.431   1.726   3.222
   55CHL1   C16 5197   5.339   1.819   3.400
   55CHL1  H16A 5198   5.298   1.742   3.469
   55CHL1  H16B 5199   5.443   1.843   3.430
   55CHL1   C17 5200   5.253   1.950   3.402
   55CHL1   H17 5201   5.324   2.034   3.400
   55CHL1   C13 5202   5.179   1.954   3.266
   55CHL1   C18 5203   5.049   1.871   3.277
   55CHL1  H18A 5204   5.068   1.772   3.324
   55CHL1  H18B 5205   4.973   1.924   3.339
   55CHL1  H18C 5206   5.003   1.854   3.178
   55CHL1   C12 5207   5.153   2.092   3.200
   55CHL1  H12A 5208   5.076   2.149   3.257
   55CHL1  H12B 5209   5.247   2.151   3.202
   55CHL1   C11 5210   5.106   2.078   3.053
   55CHL1  H11A 5211   5.003   2.035   3.057
   55CHL1  H11B 5212   5.097   2.179   3.007
   55CHL1    C9 5213   5.198   1.988   2.963
   55CHL1    H9 5214   5.294   2.044   2.956
   55CHL1   C10 5215   5.150   1.965   2.816
   55CHL1   C19 5216   4.999   1.932   2.819
   55CHL1  H19A 5217   4.981   1.848   2.889
   55CHL1  H19B 5218   4.940   2.020   2.852
   55CHL1  H19C 5219   4.960   1.904   2.719
   55CHL1    C1 5220   5.174   2.092   2.730
   55CHL1   H1A 5221   5.109   2.173   2.769
   55CHL1   H1B 5222   5.280   2.124   2.743
   55CHL1    C2 5223   5.148   2.076   2.578
   55CHL1   H2A 5224   5.177   2.169   2.525
   55CHL1   H2B 5225   5.040   2.059   2.561
   55CHL1   C20 5226   5.174   1.960   3.535
   55CHL1   H20 5227   5.102   1.876   3.542
   55CHL1   C21 5228   5.096   2.092   3.539
   55CHL1  H21A 5229   5.041   2.103   3.634
   55CHL1  H21B 5230   5.022   2.098   3.456
   55CHL1  H21C 5231   5.168   2.177   3.529
   55CHL1   C22 5232   5.271   1.952   3.657
   55CHL1  H22A 5233   5.327   1.856   3.653
   55CHL1  H22B 5234   5.344   2.035   3.650
   55CHL1   C23 5235   5.206   1.957   3.797
   55CHL1  H23A 5236   5.156   2.055   3.812
   55CHL1  H23B 5237   5.128   1.878   3.804
   55CHL1   C24 5238   5.312   1.938   3.907
   55CHL1  H24A 5239   5.357   1.837   3.896
   55CHL1  H24B 5240   5.392   2.013   3.890
   55CHL1   C25 5241   5.260   1.954   4.051
   55CHL1   H25 5242   5.207   2.052   4.058
   55CHL1   C26 5243   5.162   1.843   4.091
   55CHL1  H26A 5244   5.125   1.859   4.195
   55CHL1  H26B 5245   5.074   1.842   4.023
   55CHL1  H26C 5246   5.211   1.744   4.086
   55CHL1   C27 5247   5.378   1.958   4.150
   55CHL1  H27A 5248   5.434   1.862   4.146
   55CHL1  H27B 5249   5.448   2.040   4.124
   55CHL1  H27C 5250   5.342   1.973   4.254
   56CHL1    C3 5251   6.000   4.185   2.481
   56CHL1    H3 5252   5.986   4.074   2.488
   56CHL1    O3 5253   6.001   4.223   2.344
   56CHL1   H3' 5254   6.026   4.315   2.345
   56CHL1    C4 5255   5.884   4.255   2.553
   56CHL1   H4A 5256   5.895   4.365   2.537
   56CHL1   H4B 5257   5.790   4.226   2.503
   56CHL1    C5 5258   5.883   4.226   2.701
   56CHL1    C6 5259   5.772   4.179   2.762
   56CHL1    H6 5260   5.681   4.164   2.703
   56CHL1    C7 5261   5.764   4.155   2.909
   56CHL1   H7A 5262   5.673   4.205   2.951
   56CHL1   H7B 5263   5.754   4.046   2.927
   56CHL1    C8 5264   5.885   4.208   2.990
   56CHL1    H8 5265   5.872   4.317   3.005
   56CHL1   C14 5266   5.890   4.137   3.124
   56CHL1   H14 5267   5.910   4.030   3.101
   56CHL1   C15 5268   5.760   4.137   3.204
   56CHL1  H15A 5269   5.715   4.239   3.205
   56CHL1  H15B 5270   5.689   4.065   3.159
   56CHL1   C16 5271   5.805   4.097   3.344
   56CHL1  H16A 5272   5.764   4.171   3.416
   56CHL1  H16B 5273   5.768   3.996   3.372
   56CHL1   C17 5274   5.962   4.100   3.345
   56CHL1   H17 5275   5.996   3.996   3.330
   56CHL1   C13 5276   6.001   4.180   3.219
   56CHL1   C18 5277   5.992   4.330   3.252
   56CHL1  H18A 5278   5.894   4.354   3.298
   56CHL1  H18B 5279   6.072   4.362   3.321
   56CHL1  H18C 5280   6.004   4.390   3.159
   56CHL1   C12 5281   6.133   4.146   3.147
   56CHL1  H12A 5282   6.220   4.181   3.208
   56CHL1  H12B 5283   6.142   4.036   3.136
   56CHL1   C11 5284   6.139   4.211   3.007
   56CHL1  H11A 5285   6.148   4.321   3.020
   56CHL1  H11B 5286   6.231   4.176   2.956
   56CHL1    C9 5287   6.015   4.181   2.916
   56CHL1    H9 5288   6.018   4.072   2.899
   56CHL1   C10 5289   6.016   4.247   2.775
   56CHL1   C19 5290   6.032   4.400   2.788
   56CHL1  H19A 5291   5.948   4.445   2.845
   56CHL1  H19B 5292   6.127   4.425   2.839
   56CHL1  H19C 5293   6.035   4.449   2.688
   56CHL1    C1 5294   6.135   4.187   2.694
   56CHL1   H1A 5295   6.230   4.221   2.738
   56CHL1   H1B 5296   6.131   4.076   2.702
   56CHL1    C2 5297   6.134   4.223   2.544
   56CHL1   H2A 5298   6.217   4.172   2.492
   56CHL1   H2B 5299   6.148   4.333   2.532
   56CHL1   C20 5300   6.014   4.147   3.482
   56CHL1   H20 5301   5.978   4.252   3.495
   56CHL1   C21 5302   6.168   4.149   3.487
   56CHL1  H21A 5303   6.202   4.180   3.588
   56CHL1  H21B 5304   6.208   4.224   3.415
   56CHL1  H21C 5305   6.210   4.049   3.463
   56CHL1   C22 5306   5.956   4.063   3.599
   56CHL1  H22A 5307   5.846   4.049   3.586
   56CHL1  H22B 5308   6.002   3.962   3.598
   56CHL1   C23 5309   5.971   4.127   3.738
   56CHL1  H23A 5310   5.902   4.074   3.807
   56CHL1  H23B 5311   6.074   4.112   3.775
   56CHL1   C24 5312   5.939   4.277   3.739
   56CHL1  H24A 5313   6.030   4.331   3.706
   56CHL1  H24B 5314   5.859   4.300   3.665
   56CHL1   C25 5315   5.893   4.335   3.873
   56CHL1   H25 5316   5.911   4.444   3.869
   56CHL1   C26 5317   5.742   4.318   3.892
   56CHL1  H26A 5318   5.696   4.267   3.804
   56CHL1  H26B 5319   5.722   4.259   3.983
   56CHL1  H26C 5320   5.694   4.418   3.903
   56CHL1   C27 5321   5.972   4.277   3.992
   56CHL1  H27A 5322   5.952   4.334   4.085
   56CHL1  H27B 5323   5.945   4.171   4.009
   56CHL1  H27C 5324   6.081   4.284   3.972
   57CHL1    C3 5325   4.598   1.415   2.494
   57CHL1    H3 5326   4.517   1.490   2.487
   57CHL1    O3 5327   4.631   1.369   2.363
   57CHL1   H3' 5328   4.692   1.435   2.330
   57CHL1    C4 5329   4.722   1.479   2.557
   57CHL1   H4A 5330   4.807   1.408   2.546
   57CHL1   H4B 5331   4.749   1.568   2.496
   57CHL1    C5 5332   4.706   1.516   2.704
   57CHL1    C6 5333   4.733   1.639   2.750
   57CHL1    H6 5334   4.772   1.715   2.681
   57CHL1    C7 5335   4.724   1.676   2.895
   57CHL1   H7A 5336   4.815   1.733   2.927
   57CHL1   H7B 5337   4.636   1.742   2.912
   57CHL1    C8 5338   4.712   1.553   2.989
   57CHL1    H8 5339   4.812   1.504   2.993
   57CHL1   C14 5340   4.675   1.596   3.129
   57CHL1   H14 5341   4.576   1.647   3.121
   57CHL1   C15 5342   4.769   1.698   3.195
   57CHL1  H15A 5343   4.874   1.668   3.173
   57CHL1  H15B 5344   4.752   1.801   3.157
   57CHL1   C16 5345   4.741   1.684   3.344
   57CHL1  H16A 5346   4.836   1.658   3.395
   57CHL1  H16B 5347   4.701   1.778   3.388
   57CHL1   C17 5348   4.638   1.568   3.360
   57CHL1   H17 5349   4.537   1.614   3.353
   57CHL1   C13 5350   4.656   1.484   3.231
   57CHL1   C18 5351   4.784   1.398   3.245
   57CHL1  H18A 5352   4.870   1.459   3.282
   57CHL1  H18B 5353   4.766   1.316   3.317
   57CHL1  H18C 5354   4.814   1.353   3.149
   57CHL1   C12 5355   4.538   1.398   3.179
   57CHL1  H12A 5356   4.521   1.310   3.246
   57CHL1  H12B 5357   4.446   1.459   3.178
   57CHL1   C11 5358   4.566   1.345   3.036
   57CHL1  H11A 5359   4.646   1.268   3.043
   57CHL1  H11B 5360   4.474   1.294   2.999
   57CHL1    C9 5361   4.608   1.455   2.933
   57CHL1    H9 5362   4.516   1.516   2.918
   57CHL1   C10 5363   4.650   1.403   2.793
   57CHL1   C19 5364   4.766   1.301   2.808
   57CHL1  H19A 5365   4.833   1.296   2.720
   57CHL1  H19B 5366   4.829   1.323   2.897
   57CHL1  H19C 5367   4.723   1.199   2.820
   57CHL1    C1 5368   4.527   1.337   2.724
   57CHL1   H1A 5369   4.496   1.247   2.782
   57CHL1   H1B 5370   4.442   1.409   2.728
   57CHL1    C2 5371   4.548   1.296   2.577
   57CHL1   H2A 5372   4.452   1.258   2.535
   57CHL1   H2B 5373   4.622   1.214   2.572
   57CHL1   C20 5374   4.646   1.501   3.499
   57CHL1   H20 5375   4.735   1.434   3.503
   57CHL1   C21 5376   4.519   1.417   3.524
   57CHL1  H21A 5377   4.521   1.371   3.625
   57CHL1  H21B 5378   4.510   1.335   3.450
   57CHL1  H21C 5379   4.428   1.481   3.516
   57CHL1   C22 5380   4.664   1.605   3.613
   57CHL1  H22A 5381   4.753   1.668   3.593
   57CHL1  H22B 5382   4.575   1.672   3.615
   57CHL1   C23 5383   4.686   1.550   3.755
   57CHL1  H23A 5384   4.594   1.500   3.792
   57CHL1  H23B 5385   4.768   1.475   3.752
   57CHL1   C24 5386   4.723   1.664   3.852
   57CHL1  H24A 5387   4.814   1.716   3.814
   57CHL1  H24B 5388   4.641   1.738   3.852
   57CHL1   C25 5389   4.749   1.622   3.998
   57CHL1   H25 5390   4.660   1.566   4.034
   57CHL1   C26 5391   4.872   1.530   4.010
   57CHL1  H26A 5392   4.890   1.503   4.117
   57CHL1  H26B 5393   4.857   1.437   3.953
   57CHL1  H26C 5394   4.963   1.582   3.971
   57CHL1   C27 5395   4.767   1.745   4.088
   57CHL1  H27A 5396   4.786   1.715   4.193
   57CHL1  H27B 5397   4.853   1.806   4.053
   57CHL1  H27C 5398   4.676   1.809   4.085
   58CHL1    C3 5399   5.963   2.145   2.491
   58CHL1    H3 5400   6.002   2.043   2.508
   58CHL1    O3 5401   5.930   2.158   2.353
   58CHL1   H3' 5402   5.861   2.093   2.341
   58CHL1    C4 5403   5.834   2.165   2.572
   58CHL1   H4A 5404   5.793   2.265   2.549
   58CHL1   H4B 5405   5.759   2.090   2.538
   58CHL1    C5 5406   5.859   2.154   2.721
   58CHL1    C6 5407   5.788   2.068   2.795
   58CHL1    H6 5408   5.710   2.007   2.748
   58CHL1    C7 5409   5.804   2.055   2.943
   58CHL1   H7A 5410   5.705   2.051   2.993
   58CHL1   H7B 5411   5.857   1.960   2.965
   58CHL1    C8 5412   5.887   2.169   3.006
   58CHL1    H8 5413   5.822   2.260   3.013
   58CHL1   C14 5414   5.930   2.126   3.144
   58CHL1   H14 5415   5.996   2.039   3.127
   58CHL1   C15 5416   5.820   2.074   3.239
   58CHL1  H15A 5417   5.736   2.147   3.243
   58CHL1  H15B 5418   5.782   1.975   3.209
   58CHL1   C16 5419   5.892   2.070   3.374
   58CHL1  H16A 5420   5.833   2.124   3.450
   58CHL1  H16B 5421   5.909   1.966   3.409
   58CHL1   C17 5422   6.029   2.141   3.351
   58CHL1   H17 5423   6.100   2.064   3.313
   58CHL1   C13 5424   6.013   2.227   3.224
   58CHL1   C18 5425   5.933   2.354   3.256
   58CHL1  H18A 5426   5.903   2.404   3.161
   58CHL1  H18B 5427   5.842   2.333   3.315
   58CHL1  H18C 5428   5.994   2.428   3.312
   58CHL1   C12 5429   6.140   2.258   3.141
   58CHL1  H12A 5430   6.199   2.339   3.190
   58CHL1  H12B 5431   6.204   2.167   3.137
   58CHL1   C11 5432   6.106   2.301   2.997
   58CHL1  H11A 5433   6.058   2.401   3.004
   58CHL1  H11B 5434   6.200   2.312   2.939
   58CHL1    C9 5435   6.011   2.201   2.923
   58CHL1    H9 5436   6.068   2.106   2.916
   58CHL1   C10 5437   5.976   2.240   2.777
   58CHL1   C19 5438   5.929   2.387   2.777
   58CHL1  H19A 5439   5.893   2.417   2.676
   58CHL1  H19B 5440   5.846   2.403   2.849
   58CHL1  H19C 5441   6.013   2.456   2.802
   58CHL1    C1 5442   6.101   2.227   2.684
   58CHL1   H1A 5443   6.175   2.304   2.714
   58CHL1   H1B 5444   6.147   2.128   2.700
   58CHL1    C2 5445   6.071   2.244   2.534
   58CHL1   H2A 5446   6.163   2.228   2.475
   58CHL1   H2B 5447   6.036   2.348   2.514
   58CHL1   C20 5448   6.085   2.195   3.483
   58CHL1   H20 5449   6.005   2.251   3.536
   58CHL1   C21 5450   6.198   2.297   3.461
   58CHL1  H21A 5451   6.271   2.259   3.386
   58CHL1  H21B 5452   6.252   2.317   3.557
   58CHL1  H21C 5453   6.159   2.394   3.425
   58CHL1   C22 5454   6.129   2.078   3.577
   58CHL1  H22A 5455   6.198   2.119   3.653
   58CHL1  H22B 5456   6.039   2.041   3.631
   58CHL1   C23 5457   6.194   1.956   3.506
   58CHL1  H23A 5458   6.115   1.896   3.456
   58CHL1  H23B 5459   6.260   1.993   3.425
   58CHL1   C24 5460   6.277   1.865   3.596
   58CHL1  H24A 5461   6.312   1.928   3.681
   58CHL1  H24B 5462   6.214   1.784   3.639
   58CHL1   C25 5463   6.401   1.806   3.525
   58CHL1   H25 5464   6.460   1.889   3.482
   58CHL1   C26 5465   6.493   1.731   3.623
   58CHL1  H26A 5466   6.553   1.801   3.685
   58CHL1  H26B 5467   6.432   1.668   3.692
   58CHL1  H26C 5468   6.564   1.666   3.569
   58CHL1   C27 5469   6.362   1.716   3.408
   58CHL1  H27A 5470   6.312   1.775   3.328
   58CHL1  H27B 5471   6.451   1.665   3.365
   58CHL1  H27C 5472   6.290   1.639   3.444
   59CHL1    C3 5473   4.117   0.852   2.472
   59CHL1    H3 5474   4.009   0.838   2.494
   59CHL1    O3 5475   4.139   0.840   2.332
   59CHL1   H3' 5476   4.051   0.823   2.297
   59CHL1    C4 5477   4.162   0.991   2.519
   59CHL1   H4A 5478   4.266   1.008   2.483
   59CHL1   H4B 5479   4.098   1.066   2.468
   59CHL1    C5 5480   4.158   1.008   2.670
   59CHL1    C6 5481   4.098   1.113   2.726
   59CHL1    H6 5482   4.053   1.190   2.663
   59CHL1    C7 5483   4.097   1.136   2.874
   59CHL1   H7A 5484   4.143   1.236   2.892
   59CHL1   H7B 5485   3.991   1.139   2.908
   59CHL1    C8 5486   4.178   1.039   2.962
   59CHL1    H8 5487   4.281   1.081   2.970
   59CHL1   C14 5488   4.115   1.022   3.099
   59CHL1   H14 5489   4.025   0.959   3.083
   59CHL1   C15 5490   4.061   1.146   3.168
   59CHL1  H15A 5491   4.134   1.230   3.162
   59CHL1  H15B 5492   3.964   1.175   3.122
   59CHL1   C16 5493   4.041   1.102   3.313
   59CHL1  H16A 5494   4.093   1.173   3.381
   59CHL1  H16B 5495   3.933   1.098   3.340
   59CHL1   C17 5496   4.104   0.959   3.323
   59CHL1   H17 5497   4.022   0.887   3.302
   59CHL1   C13 5498   4.199   0.949   3.202
   59CHL1   C18 5499   4.329   1.029   3.232
   59CHL1  H18A 5500   4.382   0.985   3.319
   59CHL1  H18B 5501   4.398   1.027   3.145
   59CHL1  H18C 5502   4.307   1.135   3.257
   59CHL1   C12 5503   4.226   0.808   3.144
   59CHL1  H12A 5504   4.300   0.752   3.206
   59CHL1  H12B 5505   4.131   0.751   3.145
   59CHL1   C11 5506   4.277   0.811   2.998
   59CHL1  H11A 5507   4.380   0.852   2.999
   59CHL1  H11B 5508   4.282   0.707   2.959
   59CHL1    C9 5509   4.188   0.899   2.904
   59CHL1    H9 5510   4.086   0.855   2.909
   59CHL1   C10 5511   4.224   0.897   2.753
   59CHL1   C19 5512   4.375   0.926   2.739
   59CHL1  H19A 5513   4.401   1.023   2.787
   59CHL1  H19B 5514   4.435   0.847   2.789
   59CHL1  H19C 5515   4.407   0.931   2.633
   59CHL1    C1 5516   4.179   0.759   2.696
   59CHL1   H1A 5517   4.232   0.677   2.748
   59CHL1   H1B 5518   4.071   0.745   2.720
   59CHL1    C2 5519   4.195   0.743   2.545
   59CHL1   H2A 5520   4.160   0.642   2.513
   59CHL1   H2B 5521   4.301   0.754   2.517
   59CHL1   C20 5522   4.151   0.931   3.466
   59CHL1   H20 5523   4.226   1.007   3.496
   59CHL1   C21 5524   4.214   0.791   3.477
   59CHL1  H21A 5525   4.139   0.713   3.452
   59CHL1  H21B 5526   4.254   0.773   3.579
   59CHL1  H21C 5527   4.300   0.782   3.407
   59CHL1   C22 5528   4.030   0.942   3.563
   59CHL1  H22A 5529   3.985   1.043   3.556
   59CHL1  H22B 5530   3.953   0.868   3.531
   59CHL1   C23 5531   4.061   0.917   3.711
   59CHL1  H23A 5532   4.107   0.817   3.725
   59CHL1  H23B 5533   4.133   0.994   3.746
   59CHL1   C24 5534   3.932   0.924   3.794
   59CHL1  H24A 5535   3.876   1.014   3.765
   59CHL1  H24B 5536   3.869   0.835   3.773
   59CHL1   C25 5537   3.960   0.932   3.945
   59CHL1   H25 5538   4.029   1.018   3.960
   59CHL1   C26 5539   3.831   0.964   4.021
   59CHL1  H26A 5540   3.787   1.059   3.985
   59CHL1  H26B 5541   3.756   0.882   4.007
   59CHL1  H26C 5542   3.852   0.975   4.130
   59CHL1   C27 5543   4.031   0.809   4.001
   59CHL1  H27A 5544   4.065   0.830   4.105
   59CHL1  H27B 5545   3.962   0.723   4.002
   59CHL1  H27C 5546   4.121   0.783   3.941
   60CHL1    C3 5547   4.485   6.581   2.536
   60CHL1    H3 5548   4.551   6.667   2.558
   60CHL1    O3 5549   4.473   6.566   2.396
   60CHL1   H3' 5550   4.412   6.493   2.385
   60CHL1    C4 5551   4.547   6.452   2.592
   60CHL1   H4A 5552   4.488   6.366   2.556
   60CHL1   H4B 5553   4.649   6.441   2.548
   60CHL1    C5 5554   4.552   6.450   2.744
   60CHL1    C6 5555   4.667   6.428   2.810
   60CHL1    H6 5556   4.759   6.409   2.753
   60CHL1    C7 5557   4.675   6.410   2.958
   60CHL1   H7A 5558   4.742   6.326   2.984
   60CHL1   H7B 5559   4.717   6.503   3.004
   60CHL1    C8 5560   4.534   6.384   3.019
   60CHL1    H8 5561   4.499   6.284   2.986
   60CHL1   C14 5562   4.546   6.378   3.171
   60CHL1   H14 5563   4.603   6.469   3.200
   60CHL1   C15 5564   4.622   6.257   3.228
   60CHL1  H15A 5565   4.582   6.164   3.184
   60CHL1  H15B 5566   4.731   6.260   3.207
   60CHL1   C16 5567   4.590   6.264   3.377
   60CHL1  H16A 5568   4.554   6.164   3.411
   60CHL1  H16B 5569   4.679   6.292   3.438
   60CHL1   C17 5570   4.478   6.372   3.393
   60CHL1   H17 5571   4.529   6.469   3.411
   60CHL1   C13 5572   4.416   6.383   3.251
   60CHL1   C18 5573   4.329   6.257   3.225
   60CHL1  H18A 5574   4.374   6.164   3.266
   60CHL1  H18B 5575   4.229   6.270   3.274
   60CHL1  H18C 5576   4.313   6.241   3.117
   60CHL1   C12 5577   4.341   6.511   3.208
   60CHL1  H12A 5578   4.244   6.520   3.262
   60CHL1  H12B 5579   4.403   6.599   3.232
   60CHL1   C11 5580   4.311   6.510   3.056
   60CHL1  H11A 5581   4.239   6.428   3.035
   60CHL1  H11B 5582   4.261   6.605   3.028
   60CHL1    C9 5583   4.439   6.492   2.968
   60CHL1    H9 5584   4.494   6.588   2.982
   60CHL1   C10 5585   4.417   6.477   2.815
   60CHL1   C19 5586   4.322   6.356   2.788
   60CHL1  H19A 5587   4.221   6.376   2.830
   60CHL1  H19B 5588   4.310   6.338   2.679
   60CHL1  H19C 5589   4.362   6.263   2.833
   60CHL1    C1 5590   4.355   6.606   2.753
   60CHL1   H1A 5591   4.252   6.619   2.794
   60CHL1   H1B 5592   4.416   6.693   2.785
   60CHL1    C2 5593   4.347   6.605   2.599
   60CHL1   H2A 5594   4.306   6.702   2.562
   60CHL1   H2B 5595   4.277   6.526   2.566
   60CHL1   C20 5596   4.391   6.345   3.517
   60CHL1   H20 5597   4.333   6.253   3.501
   60CHL1   C21 5598   4.293   6.462   3.540
   60CHL1  H21A 5599   4.218   6.467   3.457
   60CHL1  H21B 5600   4.347   6.559   3.545
   60CHL1  H21C 5601   4.236   6.448   3.634
   60CHL1   C22 5602   4.480   6.322   3.644
   60CHL1  H22A 5603   4.546   6.235   3.626
   60CHL1  H22B 5604   4.545   6.411   3.659
   60CHL1   C23 5605   4.404   6.295   3.776
   60CHL1  H23A 5606   4.363   6.392   3.812
   60CHL1  H23B 5607   4.317   6.228   3.756
   60CHL1   C24 5608   4.490   6.233   3.888
   60CHL1  H24A 5609   4.595   6.269   3.879
   60CHL1  H24B 5610   4.452   6.271   3.985
   60CHL1   C25 5611   4.485   6.078   3.897
   60CHL1   H25 5612   4.378   6.054   3.914
   60CHL1   C26 5613   4.530   6.006   3.768
   60CHL1  H26A 5614   4.633   6.033   3.737
   60CHL1  H26B 5615   4.526   5.896   3.781
   60CHL1  H26C 5616   4.465   6.034   3.682
   60CHL1   C27 5617   4.556   6.021   4.020
   60CHL1  H27A 5618   4.521   6.070   4.113
   60CHL1  H27B 5619   4.536   5.912   4.028
   60CHL1  H27C 5620   4.667   6.033   4.013
   61CHL1    C3 5621   6.525   2.617   2.472
   61CHL1    H3 5622   6.525   2.507   2.456
   61CHL1    O3 5623   6.488   2.681   2.350
   61CHL1   H3' 5624   6.398   2.654   2.331
   61CHL1    C4 5625   6.422   2.653   2.581
   61CHL1   H4A 5626   6.406   2.763   2.580
   61CHL1   H4B 5627   6.324   2.608   2.551
   61CHL1    C5 5628   6.463   2.611   2.720
   61CHL1    C6 5629   6.381   2.540   2.800
   61CHL1    H6 5630   6.281   2.512   2.763
   61CHL1    C7 5631   6.413   2.506   2.943
   61CHL1   H7A 5632   6.324   2.524   3.007
   61CHL1   H7B 5633   6.439   2.398   2.950
   61CHL1    C8 5634   6.532   2.589   2.997
   61CHL1    H8 5635   6.496   2.694   3.010
   61CHL1   C14 5636   6.575   2.538   3.133
   61CHL1   H14 5637   6.605   2.432   3.117
   61CHL1   C15 5638   6.466   2.534   3.242
   61CHL1  H15A 5639   6.402   2.624   3.235
   61CHL1  H15B 5640   6.403   2.443   3.234
   61CHL1   C16 5641   6.546   2.538   3.373
   61CHL1  H16A 5642   6.523   2.633   3.425
   61CHL1  H16B 5643   6.522   2.456   3.444
   61CHL1   C17 5644   6.697   2.536   3.332
   61CHL1   H17 5645   6.724   2.432   3.307
   61CHL1   C13 5646   6.697   2.607   3.195
   61CHL1   C18 5647   6.671   2.757   3.212
   61CHL1  H18A 5648   6.590   2.777   3.286
   61CHL1  H18B 5649   6.763   2.810   3.248
   61CHL1  H18C 5650   6.643   2.805   3.116
   61CHL1   C12 5651   6.815   2.581   3.099
   61CHL1  H12A 5652   6.905   2.633   3.138
   61CHL1  H12B 5653   6.836   2.472   3.094
   61CHL1   C11 5654   6.784   2.634   2.957
   61CHL1  H11A 5655   6.787   2.745   2.963
   61CHL1  H11B 5656   6.866   2.602   2.889
   61CHL1    C9 5657   6.648   2.586   2.897
   61CHL1    H9 5658   6.663   2.478   2.875
   61CHL1   C10 5659   6.606   2.652   2.762
   61CHL1   C19 5660   6.604   2.806   2.779
   61CHL1  H19A 5661   6.705   2.845   2.804
   61CHL1  H19B 5662   6.572   2.858   2.686
   61CHL1  H19C 5663   6.533   2.836   2.860
   61CHL1    C1 5664   6.707   2.614   2.651
   61CHL1   H1A 5665   6.807   2.656   2.675
   61CHL1   H1B 5666   6.717   2.503   2.648
   61CHL1    C2 5667   6.667   2.662   2.510
   61CHL1   H2A 5668   6.739   2.624   2.434
   61CHL1   H2B 5669   6.671   2.773   2.508
   61CHL1   C20 5670   6.782   2.572   3.456
   61CHL1   H20 5671   6.721   2.641   3.519
   61CHL1   C21 5672   6.915   2.646   3.434
   61CHL1  H21A 5673   6.907   2.725   3.356
   61CHL1  H21B 5674   6.995   2.574   3.405
   61CHL1  H21C 5675   6.947   2.693   3.529
   61CHL1   C22 5676   6.810   2.444   3.538
   61CHL1  H22A 5677   6.741   2.362   3.509
   61CHL1  H22B 5678   6.913   2.408   3.518
   61CHL1   C23 5679   6.791   2.465   3.688
   61CHL1  H23A 5680   6.855   2.549   3.720
   61CHL1  H23B 5681   6.685   2.494   3.705
   61CHL1   C24 5682   6.822   2.339   3.770
   61CHL1  H24A 5683   6.774   2.250   3.726
   61CHL1  H24B 5684   6.931   2.317   3.768
   61CHL1   C25 5685   6.774   2.350   3.915
   61CHL1   H25 5686   6.665   2.330   3.917
   61CHL1   C26 5687   6.842   2.243   4.003
   61CHL1  H26A 5688   6.818   2.257   4.110
   61CHL1  H26B 5689   6.807   2.142   3.973
   61CHL1  H26C 5690   6.953   2.244   3.990
   61CHL1   C27 5691   6.786   2.491   3.971
   61CHL1  H27A 5692   6.722   2.562   3.915
   61CHL1  H27B 5693   6.751   2.491   4.077
   61CHL1  H27C 5694   6.891   2.528   3.966
   62CHL1    C3 5695   1.748   1.258   2.498
   62CHL1    H3 5696   1.832   1.190   2.525
   62CHL1    O3 5697   1.711   1.235   2.363
   62CHL1   H3' 5698   1.781   1.277   2.312
   62CHL1    C4 5699   1.629   1.230   2.593
   62CHL1   H4A 5700   1.543   1.291   2.559
   62CHL1   H4B 5701   1.601   1.124   2.580
   62CHL1    C5 5702   1.664   1.263   2.737
   62CHL1    C6 5703   1.666   1.168   2.832
   62CHL1    H6 5704   1.637   1.066   2.806
   62CHL1    C7 5705   1.705   1.192   2.976
   62CHL1   H7A 5706   1.637   1.138   3.045
   62CHL1   H7B 5707   1.808   1.154   2.992
   62CHL1    C8 5708   1.704   1.343   3.013
   62CHL1    H8 5709   1.596   1.371   3.020
   62CHL1   C14 5710   1.778   1.367   3.146
   62CHL1   H14 5711   1.884   1.339   3.127
   62CHL1   C15 5712   1.735   1.286   3.270
   62CHL1  H15A 5713   1.624   1.282   3.273
   62CHL1  H15B 5714   1.775   1.182   3.268
   62CHL1   C16 5715   1.787   1.367   3.391
   62CHL1  H16A 5716   1.706   1.373   3.466
   62CHL1  H16B 5717   1.875   1.317   3.438
   62CHL1   C17 5718   1.828   1.510   3.341
   62CHL1   H17 5719   1.939   1.512   3.338
   62CHL1   C13 5720   1.780   1.513   3.192
   62CHL1   C18 5721   1.637   1.560   3.203
   62CHL1  H18A 5722   1.636   1.668   3.229
   62CHL1  H18B 5723   1.587   1.550   3.105
   62CHL1  H18C 5724   1.580   1.503   3.280
   62CHL1   C12 5725   1.854   1.594   3.083
   62CHL1  H12A 5726   1.857   1.703   3.107
   62CHL1  H12B 5727   1.957   1.558   3.068
   62CHL1   C11 5728   1.790   1.578   2.944
   62CHL1  H11A 5729   1.694   1.634   2.943
   62CHL1  H11B 5730   1.857   1.626   2.870
   62CHL1    C9 5731   1.768   1.429   2.904
   62CHL1    H9 5732   1.869   1.383   2.900
   62CHL1   C10 5733   1.713   1.408   2.760
   62CHL1   C19 5734   1.606   1.517   2.734
   62CHL1  H19A 5735   1.655   1.615   2.715
   62CHL1  H19B 5736   1.544   1.494   2.645
   62CHL1  H19C 5737   1.541   1.531   2.822
   62CHL1    C1 5738   1.828   1.432   2.659
   62CHL1   H1A 5739   1.861   1.538   2.668
   62CHL1   H1B 5740   1.912   1.365   2.688
   62CHL1    C2 5741   1.794   1.403   2.512
   62CHL1   H2A 5742   1.883   1.423   2.448
   62CHL1   H2B 5743   1.712   1.471   2.479
   62CHL1   C20 5744   1.777   1.620   3.440
   62CHL1   H20 5745   1.667   1.613   3.444
   62CHL1   C21 5746   1.808   1.766   3.395
   62CHL1  H21A 5747   1.728   1.834   3.431
   62CHL1  H21B 5748   1.813   1.776   3.284
   62CHL1  H21C 5749   1.904   1.804   3.436
   62CHL1   C22 5750   1.821   1.601   3.588
   62CHL1  H22A 5751   1.772   1.510   3.627
   62CHL1  H22B 5752   1.930   1.585   3.596
   62CHL1   C23 5753   1.782   1.723   3.675
   62CHL1  H23A 5754   1.851   1.807   3.653
   62CHL1  H23B 5755   1.680   1.757   3.647
   62CHL1   C24 5756   1.786   1.700   3.828
   62CHL1  H24A 5757   1.890   1.675   3.858
   62CHL1  H24B 5758   1.759   1.797   3.875
   62CHL1   C25 5759   1.691   1.592   3.883
   62CHL1   H25 5760   1.740   1.493   3.868
   62CHL1   C26 5761   1.664   1.611   4.033
   62CHL1  H26A 5762   1.596   1.697   4.049
   62CHL1  H26B 5763   1.617   1.520   4.076
   62CHL1  H26C 5764   1.758   1.632   4.089
   62CHL1   C27 5765   1.557   1.592   3.809
   62CHL1  H27A 5766   1.487   1.524   3.862
   62CHL1  H27B 5767   1.513   1.694   3.808
   62CHL1  H27C 5768   1.567   1.556   3.704
   63CHL1    C3 5769   6.404   4.665   2.525
   63CHL1    H3 5770   6.296   4.691   2.534
   63CHL1    O3 5771   6.446   4.684   2.390
   63CHL1   H3' 5772   6.457   4.594   2.358
   63CHL1    C4 5773   6.487   4.756   2.617
   63CHL1   H4A 5774   6.595   4.739   2.594
   63CHL1   H4B 5775   6.466   4.861   2.588
   63CHL1    C5 5776   6.463   4.732   2.765
   63CHL1    C6 5777   6.433   4.832   2.849
   63CHL1    H6 5778   6.428   4.935   2.811
   63CHL1    C7 5779   6.418   4.814   2.998
   63CHL1   H7A 5780   6.474   4.893   3.052
   63CHL1   H7B 5781   6.311   4.824   3.026
   63CHL1    C8 5782   6.469   4.676   3.046
   63CHL1    H8 5783   6.580   4.683   3.045
   63CHL1   C14 5784   6.423   4.646   3.187
   63CHL1   H14 5785   6.313   4.638   3.182
   63CHL1   C15 5786   6.444   4.756   3.292
   63CHL1  H15A 5787   6.542   4.805   3.277
   63CHL1  H15B 5788   6.366   4.834   3.285
   63CHL1   C16 5789   6.435   4.680   3.424
   63CHL1  H16A 5790   6.519   4.710   3.491
   63CHL1  H16B 5791   6.340   4.705   3.476
   63CHL1   C17 5792   6.439   4.526   3.394
   63CHL1   H17 5793   6.334   4.490   3.405
   63CHL1   C13 5794   6.472   4.512   3.243
   63CHL1   C18 5795   6.624   4.483   3.223
   63CHL1  H18A 5796   6.689   4.524   3.303
   63CHL1  H18B 5797   6.640   4.373   3.222
   63CHL1  H18C 5798   6.662   4.518   3.124
   63CHL1   C12 5799   6.394   4.407   3.162
   63CHL1  H12A 5800   6.418   4.304   3.199
   63CHL1  H12B 5801   6.285   4.423   3.176
   63CHL1   C11 5802   6.431   4.419   3.012
   63CHL1  H11A 5803   6.534   4.380   3.000
   63CHL1  H11B 5804   6.366   4.353   2.953
   63CHL1    C9 5805   6.420   4.565   2.954
   63CHL1    H9 5806   6.310   4.581   2.947
   63CHL1   C10 5807   6.472   4.585   2.810
   63CHL1   C19 5808   6.621   4.550   2.809
   63CHL1  H19A 5809   6.683   4.620   2.870
   63CHL1  H19B 5810   6.640   4.446   2.845
   63CHL1  H19C 5811   6.657   4.555   2.704
   63CHL1    C1 5812   6.393   4.494   2.712
   63CHL1   H1A 5813   6.412   4.388   2.736
   63CHL1   H1B 5814   6.284   4.514   2.726
   63CHL1    C2 5815   6.423   4.517   2.562
   63CHL1   H2A 5816   6.356   4.454   2.501
   63CHL1   H2B 5817   6.528   4.487   2.541
   63CHL1   C20 5818   6.523   4.450   3.499
   63CHL1   H20 5819   6.628   4.487   3.495
   63CHL1   C21 5820   6.522   4.297   3.476
   63CHL1  H21A 5821   6.575   4.246   3.559
   63CHL1  H21B 5822   6.571   4.268   3.380
   63CHL1  H21C 5823   6.417   4.260   3.474
   63CHL1   C22 5824   6.473   4.475   3.643
   63CHL1  H22A 5825   6.417   4.571   3.650
   63CHL1  H22B 5826   6.401   4.394   3.667
   63CHL1   C23 5827   6.580   4.481   3.753
   63CHL1  H23A 5828   6.645   4.390   3.747
   63CHL1  H23B 5829   6.644   4.571   3.738
   63CHL1   C24 5830   6.511   4.487   3.889
   63CHL1  H24A 5831   6.442   4.574   3.887
   63CHL1  H24B 5832   6.451   4.395   3.903
   63CHL1   C25 5833   6.598   4.509   4.013
   63CHL1   H25 5834   6.633   4.614   4.010
   63CHL1   C26 5835   6.512   4.493   4.140
   63CHL1  H26A 5836   6.575   4.511   4.229
   63CHL1  H26B 5837   6.429   4.566   4.139
   63CHL1  H26C 5838   6.470   4.390   4.146
   63CHL1   C27 5839   6.721   4.417   4.018
   63CHL1  H27A 5840   6.789   4.438   3.933
   63CHL1  H27B 5841   6.777   4.434   4.113
   63CHL1  H27C 5842   6.689   4.310   4.014
   64CHL1    C3 5843   1.106   5.782   2.506
   64CHL1    H3 5844   1.129   5.678   2.538
   64CHL1    O3 5845   1.108   5.789   2.365
   64CHL1   H3' 5846   1.189   5.744   2.339
   64CHL1    C4 5847   0.966   5.820   2.557
   64CHL1   H4A 5848   0.940   5.922   2.520
   64CHL1   H4B 5849   0.892   5.751   2.512
   64CHL1    C5 5850   0.962   5.816   2.709
   64CHL1    C6 5851   0.876   5.736   2.774
   64CHL1    H6 5852   0.805   5.676   2.716
   64CHL1    C7 5853   0.865   5.728   2.923
   64CHL1   H7A 5854   0.758   5.734   2.952
   64CHL1   H7B 5855   0.905   5.631   2.958
   64CHL1    C8 5856   0.938   5.844   2.996
   64CHL1    H8 5857   0.872   5.932   2.988
   64CHL1   C14 5858   0.965   5.808   3.143
   64CHL1   H14 5859   1.046   5.731   3.140
   64CHL1   C15 5860   0.854   5.739   3.223
   64CHL1  H15A 5861   0.756   5.785   3.199
   64CHL1  H15B 5862   0.848   5.631   3.200
   64CHL1   C16 5863   0.895   5.765   3.369
   64CHL1  H16A 5864   0.810   5.818   3.417
   64CHL1  H16B 5865   0.914   5.670   3.424
   64CHL1   C17 5866   1.022   5.856   3.370
   64CHL1   H17 5867   1.110   5.789   3.373
   64CHL1   C13 5868   1.022   5.921   3.229
   64CHL1   C18 5869   0.925   6.042   3.234
   64CHL1  H18A 5870   0.889   6.069   3.133
   64CHL1  H18B 5871   0.837   6.021   3.298
   64CHL1  H18C 5872   0.977   6.131   3.275
   64CHL1   C12 5873   1.158   5.958   3.167
   64CHL1  H12A 5874   1.202   6.047   3.218
   64CHL1  H12B 5875   1.228   5.873   3.180
   64CHL1   C11 5876   1.144   5.989   3.016
   64CHL1  H11A 5877   1.085   6.082   3.008
   64CHL1  H11B 5878   1.245   6.007   2.974
   64CHL1    C9 5879   1.073   5.878   2.933
   64CHL1    H9 5880   1.135   5.787   2.944
   64CHL1   C10 5881   1.066   5.905   2.779
   64CHL1   C19 5882   1.025   6.052   2.752
   64CHL1  H19A 5883   1.096   6.124   2.799
   64CHL1  H19B 5884   1.024   6.076   2.644
   64CHL1  H19C 5885   0.923   6.070   2.792
   64CHL1    C1 5886   1.207   5.878   2.718
   64CHL1   H1A 5887   1.278   5.954   2.756
   64CHL1   H1B 5888   1.242   5.778   2.753
   64CHL1    C2 5889   1.212   5.877   2.564
   64CHL1   H2A 5890   1.313   5.847   2.530
   64CHL1   H2B 5891   1.192   5.980   2.526
   64CHL1   C20 5892   1.028   5.947   3.495
   64CHL1   H20 5893   0.939   6.014   3.493
   64CHL1   C21 5894   1.153   6.037   3.493
   64CHL1  H21A 5895   1.147   6.112   3.411
   64CHL1  H21B 5896   1.245   5.976   3.481
   64CHL1  H21C 5897   1.160   6.094   3.589
   64CHL1   C22 5898   1.022   5.870   3.630
   64CHL1  H22A 5899   0.949   5.786   3.621
   64CHL1  H22B 5900   1.121   5.824   3.651
   64CHL1   C23 5901   0.978   5.957   3.749
   64CHL1  H23A 5902   1.061   6.024   3.781
   64CHL1  H23B 5903   0.895   6.022   3.716
   64CHL1   C24 5904   0.928   5.875   3.869
   64CHL1  H24A 5905   0.858   5.798   3.829
   64CHL1  H24B 5906   1.012   5.820   3.918
   64CHL1   C25 5907   0.852   5.958   3.974
   64CHL1   H25 5908   0.798   6.039   3.920
   64CHL1   C26 5909   0.744   5.877   4.047
   64CHL1  H26A 5910   0.707   5.935   4.135
   64CHL1  H26B 5911   0.656   5.860   3.981
   64CHL1  H26C 5912   0.783   5.780   4.083
   64CHL1   C27 5913   0.946   6.022   4.077
   64CHL1  H27A 5914   0.997   5.943   4.137
   64CHL1  H27B 5915   1.023   6.084   4.027
   64CHL1  H27C 5916   0.889   6.087   4.147
   65CHL1    C3 5917   0.972   1.460   2.508
   65CHL1    H3 5918   0.957   1.561   2.552
   65CHL1    O3 5919   0.943   1.466   2.369
   65CHL1   H3' 5920   0.990   1.543   2.337
   65CHL1    C4 5921   1.117   1.415   2.531
   65CHL1   H4A 5922   1.131   1.318   2.478
   65CHL1   H4B 5923   1.184   1.488   2.481
   65CHL1    C5 5924   1.152   1.397   2.677
   65CHL1    C6 5925   1.261   1.454   2.728
   65CHL1    H6 5926   1.327   1.515   2.664
   65CHL1    C7 5927   1.307   1.437   2.870
   65CHL1   H7A 5928   1.407   1.388   2.872
   65CHL1   H7B 5929   1.320   1.536   2.916
   65CHL1    C8 5930   1.217   1.350   2.959
   65CHL1    H8 5931   1.259   1.247   2.949
   65CHL1   C14 5932   1.219   1.399   3.104
   65CHL1   H14 5933   1.162   1.495   3.106
   65CHL1   C15 5934   1.354   1.431   3.165
   65CHL1  H15A 5935   1.429   1.354   3.138
   65CHL1  H15B 5936   1.388   1.531   3.129
   65CHL1   C16 5937   1.331   1.432   3.316
   65CHL1  H16A 5938   1.409   1.368   3.363
   65CHL1  H16B 5939   1.338   1.534   3.359
   65CHL1   C17 5940   1.189   1.373   3.339
   65CHL1   H17 5941   1.120   1.460   3.348
   65CHL1   C13 5942   1.155   1.307   3.203
   65CHL1   C18 5943   1.234   1.176   3.202
   65CHL1  H18A 5944   1.181   1.107   3.270
   65CHL1  H18B 5945   1.236   1.129   3.101
   65CHL1  H18C 5946   1.338   1.185   3.237
   65CHL1   C12 5947   1.007   1.289   3.163
   65CHL1  H12A 5948   0.959   1.210   3.224
   65CHL1  H12B 5949   0.954   1.385   3.181
   65CHL1   C11 5950   0.992   1.251   3.013
   65CHL1  H11A 5951   1.029   1.147   3.001
   65CHL1  H11B 5952   0.884   1.252   2.987
   65CHL1    C9 5953   1.071   1.344   2.916
   65CHL1    H9 5954   1.032   1.447   2.933
   65CHL1   C10 5955   1.052   1.317   2.764
   65CHL1   C19 5956   1.080   1.167   2.735
   65CHL1  H19A 5957   1.006   1.103   2.787
   65CHL1  H19B 5958   1.072   1.145   2.626
   65CHL1  H19C 5959   1.182   1.138   2.769
   65CHL1    C1 5960   0.905   1.353   2.726
   65CHL1   H1A 5961   0.837   1.278   2.771
   65CHL1   H1B 5962   0.881   1.452   2.771
   65CHL1    C2 5963   0.876   1.362   2.576
   65CHL1   H2A 5964   0.771   1.393   2.560
   65CHL1   H2B 5965   0.889   1.261   2.530
   65CHL1   C20 5966   1.181   1.290   3.468
   65CHL1   H20 5967   1.228   1.190   3.453
   65CHL1   C21 5968   1.032   1.271   3.505
   65CHL1  H21A 5969   1.022   1.221   3.604
   65CHL1  H21B 5970   0.981   1.209   3.429
   65CHL1  H21C 5971   0.981   1.370   3.511
   65CHL1   C22 5972   1.254   1.351   3.590
   65CHL1  H22A 5973   1.345   1.409   3.563
   65CHL1  H22B 5974   1.184   1.424   3.635
   65CHL1   C23 5975   1.299   1.249   3.698
   65CHL1  H23A 5976   1.239   1.156   3.692
   65CHL1  H23B 5977   1.405   1.222   3.680
   65CHL1   C24 5978   1.281   1.316   3.834
   65CHL1  H24A 5979   1.320   1.419   3.822
   65CHL1  H24B 5980   1.172   1.323   3.854
   65CHL1   C25 5981   1.347   1.260   3.962
   65CHL1   H25 5982   1.292   1.168   3.992
   65CHL1   C26 5983   1.495   1.226   3.948
   65CHL1  H26A 5984   1.553   1.315   3.916
   65CHL1  H26B 5985   1.537   1.191   4.045
   65CHL1  H26C 5986   1.509   1.146   3.873
   65CHL1   C27 5987   1.327   1.369   4.069
   65CHL1  H27A 5988   1.225   1.412   4.059
   65CHL1  H27B 5989   1.339   1.332   4.173
   65CHL1  H27C 5990   1.400   1.452   4.053
   66CHL1    C3 5991   7.057   3.219   2.511
   66CHL1    H3 5992   7.140   3.292   2.522
   66CHL1    O3 5993   7.019   3.211   2.375
   66CHL1   H3' 5994   7.092   3.167   2.332
   66CHL1    C4 5995   7.106   3.080   2.555
   66CHL1   H4A 5996   7.026   3.006   2.532
   66CHL1   H4B 5997   7.194   3.052   2.494
   66CHL1    C5 5998   7.138   3.073   2.703
   66CHL1    C6 5999   7.257   3.029   2.747
   66CHL1    H6 6000   0.029   2.995   2.675
   66CHL1    C7 6001   7.290   3.014   2.893
   66CHL1   H7A 6002   0.027   2.912   2.913
   66CHL1   H7B 6003   0.064   3.088   2.922
   66CHL1    C8 6004   7.169   3.029   2.986
   66CHL1    H8 6005   7.111   2.934   2.980
   66CHL1   C14 6006   7.216   3.050   3.129
   66CHL1   H14 6007   7.271   3.146   3.130
   66CHL1   C15 6008   0.012   2.947   3.186
   66CHL1  H15A 6009   7.287   2.844   3.153
   66CHL1  H15B 6010   0.115   2.969   3.152
   66CHL1   C16 6011   7.300   2.960   3.338
   66CHL1  H16A 6012   7.274   2.861   3.380
   66CHL1  H16B 6013   0.091   2.995   3.386
   66CHL1   C17 6014   7.185   3.062   3.363
   66CHL1   H17 6015   7.233   3.162   3.372
   66CHL1   C13 6016   7.104   3.064   3.230
   66CHL1   C18 6017   7.014   2.938   3.228
   66CHL1  H18A 6018   7.071   2.846   3.254
   66CHL1  H18B 6019   6.931   2.950   3.301
   66CHL1  H18C 6020   6.967   2.922   3.129
   66CHL1   C12 6021   7.026   3.191   3.191
   66CHL1  H12A 6022   6.937   3.209   3.255
   66CHL1  H12B 6023   7.094   3.279   3.199
   66CHL1   C11 6024   6.972   3.182   3.047
   66CHL1  H11A 6025   6.891   3.106   3.047
   66CHL1  H11B 6026   6.925   3.279   3.020
   66CHL1    C9 6027   7.081   3.145   2.942
   66CHL1    H9 6028   7.148   3.233   2.939
   66CHL1   C10 6029   7.028   3.126   2.797
   66CHL1   C19 6030   6.916   3.019   2.796
   66CHL1  H19A 6031   6.952   2.921   2.836
   66CHL1  H19B 6032   6.830   3.052   2.858
   66CHL1  H19C 6033   6.876   3.002   2.694
   66CHL1    C1 6034   6.974   3.262   2.745
   66CHL1   H1A 6035   6.883   3.290   2.803
   66CHL1   H1B 6036   7.050   3.341   2.764
   66CHL1    C2 6037   6.938   3.264   2.596
   66CHL1   H2A 6038   6.907   3.366   2.566
   66CHL1   H2B 6039   6.852   3.196   2.579
   66CHL1   C20 6040   7.109   3.036   3.493
   66CHL1   H20 6041   7.046   2.945   3.481
   66CHL1   C21 6042   7.015   3.155   3.523
   66CHL1  H21A 6043   6.940   3.167   3.442
   66CHL1  H21B 6044   7.074   3.249   3.534
   66CHL1  H21C 6045   6.955   3.139   3.614
   66CHL1   C22 6046   7.199   3.006   3.616
   66CHL1  H22A 6047   7.262   2.917   3.597
   66CHL1  H22B 6048   7.265   3.092   3.637
   66CHL1   C23 6049   7.110   2.976   3.738
   66CHL1  H23A 6050   7.058   3.069   3.768
   66CHL1  H23B 6051   7.034   2.901   3.708
   66CHL1   C24 6052   7.180   2.926   3.864
   66CHL1  H24A 6053   7.210   2.820   3.852
   66CHL1  H24B 6054   7.272   2.986   3.882
   66CHL1   C25 6055   7.085   2.942   3.984
   66CHL1   H25 6056   7.058   3.050   3.992
   66CHL1   C26 6057   6.956   2.862   3.966
   66CHL1  H26A 6058   6.896   2.869   4.059
   66CHL1  H26B 6059   6.895   2.901   3.881
   66CHL1  H26C 6060   6.978   2.755   3.947
   66CHL1   C27 6061   7.150   2.902   4.116
   66CHL1  H27A 6062   7.242   2.962   4.135
   66CHL1  H27B 6063   7.178   2.795   4.115
   66CHL1  H27C 6064   7.080   2.920   4.200
   67CHL1    C3 6065   4.337   0.026   2.509
   67CHL1    H3 6066   4.245   7.298   2.562
   67CHL1    O3 6067   4.311   0.022   2.370
   67CHL1   H3' 6068   4.278   7.237   2.355
   67CHL1    C4 6069   4.376   0.168   2.553
   67CHL1   H4A 6070   4.464   0.201   2.495
   67CHL1   H4B 6071   4.292   0.236   2.525
   67CHL1    C5 6072   4.404   0.172   2.703
   67CHL1    C6 6073   4.334   0.253   2.783
   67CHL1    H6 6074   4.262   0.323   2.738
   67CHL1    C7 6075   4.348   0.257   2.932
   67CHL1   H7A 6076   4.350   0.362   2.968
   67CHL1   H7B 6077   4.258   0.208   2.975
   67CHL1    C8 6078   4.470   0.182   2.986
   67CHL1    H8 6079   4.558   0.250   2.975
   67CHL1   C14 6080   4.451   0.144   3.133
   67CHL1   H14 6081   4.384   0.055   3.132
   67CHL1   C15 6082   4.379   0.241   3.226
   67CHL1  H15A 6083   4.406   0.347   3.204
   67CHL1  H15B 6084   4.271   0.223   3.210
   67CHL1   C16 6085   4.422   0.199   3.367
   67CHL1  H16A 6086   4.467   0.287   3.417
   67CHL1  H16B 6087   4.335   0.164   3.427
   67CHL1   C17 6088   4.527   0.086   3.351
   67CHL1   H17 6089   4.471   7.293   3.356
   67CHL1   C13 6090   4.577   0.097   3.204
   67CHL1   C18 6091   4.686   0.206   3.196
   67CHL1  H18A 6092   4.643   0.305   3.223
   67CHL1  H18B 6093   4.772   0.184   3.263
   67CHL1  H18C 6094   4.726   0.212   3.092
   67CHL1   C12 6095   4.617   7.272   3.131
   67CHL1  H12A 6096   4.719   7.245   3.166
   67CHL1  H12B 6097   4.547   7.191   3.158
   67CHL1   C11 6098   4.621   7.286   2.976
   67CHL1  H11A 6099   4.713   0.041   2.952
   67CHL1  H11B 6100   4.630   7.185   2.931
   67CHL1    C9 6101   4.499   0.053   2.911
   67CHL1    H9 6102   4.411   7.291   2.931
   67CHL1   C10 6103   4.504   0.068   2.756
   67CHL1   C19 6104   4.645   0.115   2.712
   67CHL1  H19A 6105   4.646   0.162   2.612
   67CHL1  H19B 6106   4.688   0.187   2.786
   67CHL1  H19C 6107   4.714   0.028   2.708
   67CHL1    C1 6108   4.476   7.231   2.693
   67CHL1   H1A 6109   4.560   7.163   2.716
   67CHL1   H1B 6110   4.385   7.189   2.741
   67CHL1    C2 6111   4.451   7.233   2.542
   67CHL1   H2A 6112   4.425   7.130   2.507
   67CHL1   H2B 6113   4.543   7.265   2.488
   67CHL1   C20 6114   4.627   0.087   3.468
   67CHL1   H20 6115   4.681   0.184   3.468
   67CHL1   C21 6116   4.732   7.278   3.452
   67CHL1  H21A 6117   4.792   7.293   3.360
   67CHL1  H21B 6118   4.681   7.179   3.447
   67CHL1  H21C 6119   4.802   7.277   3.538
   67CHL1   C22 6120   4.556   0.075   3.606
   67CHL1  H22A 6121   4.478   0.155   3.614
   67CHL1  H22B 6122   4.503   7.281   3.612
   67CHL1   C23 6123   4.646   0.091   3.730
   67CHL1  H23A 6124   4.715   0.004   3.739
   67CHL1  H23B 6125   4.708   0.183   3.717
   67CHL1   C24 6126   4.564   0.105   3.860
   67CHL1  H24A 6127   4.488   0.184   3.844
   67CHL1  H24B 6128   4.510   0.010   3.880
   67CHL1   C25 6129   4.646   0.145   3.985
   67CHL1   H25 6130   4.706   0.234   3.958
   67CHL1   C26 6131   4.553   0.183   4.101
   67CHL1  H26A 6132   4.486   0.097   4.126
   67CHL1  H26B 6133   4.612   0.208   4.192
   67CHL1  H26C 6134   4.490   0.270   4.074
   67CHL1   C27 6135   4.743   0.036   4.032
   67CHL1  H27A 6136   4.813   0.008   3.950
   67CHL1  H27B 6137   4.802   0.071   4.119
   67CHL1  H27C 6138   4.686   7.249   4.063
   68CHL1    C3 6139   2.130   7.067   2.467
   68CHL1    H3 6140   2.235   7.054   2.503
   68CHL1    O3 6141   2.122   7.026   2.332
   68CHL1   H3' 6142   2.141   6.932   2.332
   68CHL1    C4 6143   2.036   6.980   2.550
   68CHL1   H4A 6144   1.934   6.987   2.507
   68CHL1   H4B 6145   2.067   6.874   2.540
   68CHL1    C5 6146   2.033   7.024   2.695
   68CHL1    C6 6147   2.065   6.938   2.793
   68CHL1    H6 6148   2.090   6.834   2.769
   68CHL1    C7 6149   2.060   6.974   2.939
   68CHL1   H7A 6150   2.011   6.893   2.998
   68CHL1   H7B 6151   2.164   6.984   2.977
   68CHL1    C8 6152   1.984   7.106   2.966
   68CHL1    H8 6153   1.875   7.088   2.957
   68CHL1   C14 6154   2.018   7.152   3.106
   68CHL1   H14 6155   2.128   7.167   3.106
   68CHL1   C15 6156   1.992   7.053   3.221
   68CHL1  H15A 6157   1.890   7.009   3.211
   68CHL1  H15B 6158   2.067   6.971   3.223
   68CHL1   C16 6159   2.000   7.142   3.345
   68CHL1  H16A 6160   1.906   7.132   3.404
   68CHL1  H16B 6161   2.086   7.114   3.410
   68CHL1   C17 6162   2.016   7.288   3.292
   68CHL1   H17 6163   2.126   0.000   3.281
   68CHL1   C13 6164   1.959   7.285   3.149
   68CHL1   C18 6165   1.805   7.279   3.157
   68CHL1  H18A 6166   1.769   7.206   3.232
   68CHL1  H18B 6167   1.765   0.076   3.185
   68CHL1  H18C 6168   1.761   7.252   3.059
   68CHL1   C12 6169   2.005   0.090   3.050
   68CHL1  H12A 6170   1.956   0.187   3.072
   68CHL1  H12B 6171   2.115   0.104   3.059
   68CHL1   C11 6172   1.971   0.051   2.905
   68CHL1  H11A 6173   1.860   0.053   2.896
   68CHL1  H11B 6174   2.011   0.129   2.837
   68CHL1    C9 6175   2.026   7.215   2.866
   68CHL1    H9 6176   2.136   7.223   2.877
   68CHL1   C10 6177   2.000   7.173   2.719
   68CHL1   C19 6178   1.851   7.199   2.686
   68CHL1  H19A 6179   1.785   7.149   2.760
   68CHL1  H19B 6180   1.829   0.004   2.687
   68CHL1  H19C 6181   1.824   7.161   2.585
   68CHL1    C1 6182   2.090   7.260   2.626
   68CHL1   H1A 6183   2.057   0.062   2.631
   68CHL1   H1B 6184   2.195   7.257   2.664
   68CHL1    C2 6185   2.091   7.215   2.479
   68CHL1   H2A 6186   2.162   7.277   2.420
   68CHL1   H2B 6187   1.989   7.230   2.437
   68CHL1   C20 6188   1.968   0.089   3.391
   68CHL1   H20 6189   1.857   0.086   3.399
   68CHL1   C21 6190   2.011   0.228   3.340
   68CHL1  H21A 6191   2.017   0.302   3.422
   68CHL1  H21B 6192   1.937   0.266   3.266
   68CHL1  H21C 6193   2.111   0.224   3.292
   68CHL1   C22 6194   2.025   0.061   3.532
   68CHL1  H22A 6195   1.997   7.262   3.564
   68CHL1  H22B 6196   2.135   0.067   3.530
   68CHL1   C23 6197   1.973   0.155   3.640
   68CHL1  H23A 6198   2.020   0.255   3.627
   68CHL1  H23B 6199   1.864   0.167   3.628
   68CHL1   C24 6200   2.008   0.106   3.782
   68CHL1  H24A 6201   2.116   0.081   3.782
   68CHL1  H24B 6202   1.995   0.189   3.853
   68CHL1   C25 6203   1.928   7.287   3.835
   68CHL1   H25 6204   1.980   7.195   3.800
   68CHL1   C26 6205   1.929   7.287   3.988
   68CHL1  H26A 6206   1.870   0.069   4.028
   68CHL1  H26B 6207   1.885   7.193   4.027
   68CHL1  H26C 6208   2.033   7.296   4.026
   68CHL1   C27 6209   1.784   7.281   3.782
   68CHL1  H27A 6210   1.782   7.242   3.678
   68CHL1  H27B 6211   1.721   7.216   3.846
   68CHL1  H27C 6212   1.737   0.078   3.781
   69CHL1    C3 6213   5.087   7.052   2.471
   69CHL1    H3 6214   4.997   6.989   2.454
   69CHL1    O3 6215   5.126   7.112   2.349
   69CHL1   H3' 6216   5.148   7.039   2.291
   69CHL1    C4 6217   5.052   7.163   2.570
   69CHL1   H4A 6218   5.135   7.237   2.572
   69CHL1   H4B 6219   4.963   7.217   2.530
   69CHL1    C5 6220   5.028   7.108   2.708
   69CHL1    C6 6221   4.911   7.127   2.770
   69CHL1    H6 6222   4.831   7.183   2.719
   69CHL1    C7 6223   4.884   7.085   2.910
   69CHL1   H7A 6224   4.842   7.170   2.968
   69CHL1   H7B 6225   4.810   7.002   2.912
   69CHL1    C8 6226   5.011   7.044   2.986
   69CHL1    H8 6227   5.066   7.138   3.012
   69CHL1   C14 6228   4.971   6.971   3.112
   69CHL1   H14 6229   4.922   6.877   3.080
   69CHL1   C15 6230   4.867   7.040   3.201
   69CHL1  H15A 6231   4.897   7.146   3.216
   69CHL1  H15B 6232   4.765   7.034   3.159
   69CHL1   C16 6233   4.878   6.964   3.333
   69CHL1  H16A 6234   4.886   7.038   3.415
   69CHL1  H16B 6235   4.789   6.900   3.350
   69CHL1   C17 6236   5.006   6.876   3.323
   69CHL1   H17 6237   4.972   6.774   3.295
   69CHL1   C13 6238   5.086   6.931   3.203
   69CHL1   C18 6239   5.167   7.055   3.249
   69CHL1  H18A 6240   5.105   7.124   3.309
   69CHL1  H18B 6241   5.253   7.022   3.312
   69CHL1  H18C 6242   5.209   7.111   3.163
   69CHL1   C12 6243   5.171   6.834   3.119
   69CHL1  H12A 6244   5.258   6.795   3.177
   69CHL1  H12B 6245   5.105   6.748   3.092
   69CHL1   C11 6246   5.219   6.897   2.987
   69CHL1  H11A 6247   5.291   6.977   3.014
   69CHL1  H11B 6248   5.273   6.821   2.926
   69CHL1    C9 6249   5.101   6.955   2.902
   69CHL1    H9 6250   5.038   6.868   2.875
   69CHL1   C10 6251   5.142   7.023   2.768
   69CHL1   C19 6252   5.263   7.115   2.794
   69CHL1  H19A 6253   5.241   7.187   2.875
   69CHL1  H19B 6254   5.352   7.055   2.823
   69CHL1  H19C 6255   5.292   7.171   2.702
   69CHL1    C1 6256   5.175   6.912   2.664
   69CHL1   H1A 6257   5.262   6.853   2.699
   69CHL1   H1B 6258   5.089   6.841   2.659
   69CHL1    C2 6259   5.202   6.965   2.522
   69CHL1   H2A 6260   5.218   6.879   2.453
   69CHL1   H2B 6261   5.296   7.025   2.523
   69CHL1   C20 6262   5.075   6.868   3.459
   69CHL1   H20 6263   5.114   6.968   3.487
   69CHL1   C21 6264   5.193   6.769   3.453
   69CHL1  H21A 6265   5.236   6.753   3.554
   69CHL1  H21B 6266   5.274   6.807   3.387
   69CHL1  H21C 6267   5.159   6.670   3.414
   69CHL1   C22 6268   4.975   6.829   3.571
   69CHL1  H22A 6269   4.876   6.878   3.561
   69CHL1  H22B 6270   4.956   6.719   3.566
   69CHL1   C23 6271   5.024   6.866   3.711
   69CHL1  H23A 6272   5.123   6.817   3.725
   69CHL1  H23B 6273   5.040   6.976   3.720
   69CHL1   C24 6274   4.928   6.814   3.818
   69CHL1  H24A 6275   4.888   6.718   3.780
   69CHL1  H24B 6276   4.984   6.796   3.912
   69CHL1   C25 6277   4.805   6.899   3.851
   69CHL1   H25 6278   4.748   6.918   3.757
   69CHL1   C26 6279   4.714   6.820   3.947
   69CHL1  H26A 6280   4.629   6.882   3.982
   69CHL1  H26B 6281   4.674   6.729   3.896
   69CHL1  H26C 6282   4.774   6.787   4.034
   69CHL1   C27 6283   4.844   7.033   3.913
   69CHL1  H27A 6284   4.897   7.097   3.839
   69CHL1  H27B 6285   4.751   7.086   3.945
   69CHL1  H27C 6286   4.909   7.018   4.001
   70CHL1    C3 6287   1.184   0.749   2.485
   70CHL1    H3 6288   1.191   0.860   2.479
   70CHL1    O3 6289   1.210   0.694   2.357
   70CHL1   H3' 6290   1.140   0.727   2.301
   70CHL1    C4 6291   1.288   0.697   2.585
   70CHL1   H4A 6292   1.288   0.586   2.582
   70CHL1   H4B 6293   1.388   0.730   2.550
   70CHL1    C5 6294   1.258   0.746   2.725
   70CHL1    C6 6295   1.347   0.820   2.793
   70CHL1    H6 6296   1.445   0.842   2.748
   70CHL1    C7 6297   1.325   0.866   2.933
   70CHL1   H7A 6298   1.418   0.855   2.993
   70CHL1   H7B 6299   1.299   0.974   2.933
   70CHL1    C8 6300   1.209   0.788   3.002
   70CHL1    H8 6301   1.243   0.684   3.020
   70CHL1   C14 6302   1.175   0.853   3.134
   70CHL1   H14 6303   1.136   0.954   3.108
   70CHL1   C15 6304   1.293   0.868   3.227
   70CHL1  H15A 6305   1.342   0.770   3.210
   70CHL1  H15B 6306   1.364   0.949   3.201
   70CHL1   C16 6307   1.233   0.881   3.367
   70CHL1  H16A 6308   1.266   0.795   3.429
   70CHL1  H16B 6309   1.264   0.974   3.418
   70CHL1   C17 6310   1.079   0.874   3.347
   70CHL1   H17 6311   1.045   0.976   3.318
   70CHL1   C13 6312   1.064   0.790   3.217
   70CHL1   C18 6313   1.088   0.641   3.252
   70CHL1  H18A 6314   0.997   0.599   3.300
   70CHL1  H18B 6315   1.110   0.581   3.162
   70CHL1  H18C 6316   1.172   0.628   3.324
   70CHL1   C12 6317   0.941   0.805   3.129
   70CHL1  H12A 6318   0.856   0.756   3.180
   70CHL1  H12B 6319   0.919   0.913   3.115
   70CHL1   C11 6320   0.958   0.739   2.990
   70CHL1  H11A 6321   0.962   0.629   3.007
   70CHL1  H11B 6322   0.869   0.760   2.928
   70CHL1    C9 6323   1.086   0.786   2.912
   70CHL1    H9 6324   1.066   0.892   2.887
   70CHL1   C10 6325   1.116   0.714   2.778
   70CHL1   C19 6326   1.107   0.560   2.800
   70CHL1  H19A 6327   1.174   0.528   2.883
   70CHL1  H19B 6328   1.003   0.530   2.825
   70CHL1  H19C 6329   1.135   0.504   2.709
   70CHL1    C1 6330   1.012   0.759   2.671
   70CHL1   H1A 6331   0.911   0.725   2.702
   70CHL1   H1B 6332   1.010   0.870   2.670
   70CHL1    C2 6333   1.042   0.710   2.529
   70CHL1   H2A 6334   0.967   0.753   2.459
   70CHL1   H2B 6335   1.032   0.599   2.525
   70CHL1   C20 6336   1.003   0.844   3.478
   70CHL1   H20 6337   0.988   0.735   3.490
   70CHL1   C21 6338   0.868   0.916   3.467
   70CHL1  H21A 6339   0.807   0.905   3.559
   70CHL1  H21B 6340   0.811   0.874   3.382
   70CHL1  H21C 6341   0.881   1.025   3.450
   70CHL1   C22 6342   1.077   0.898   3.604
   70CHL1  H22A 6343   1.179   0.855   3.613
   70CHL1  H22B 6344   1.088   1.007   3.590
   70CHL1   C23 6345   1.010   0.874   3.742
   70CHL1  H23A 6346   0.907   0.833   3.731
   70CHL1  H23B 6347   1.069   0.797   3.796
   70CHL1   C24 6348   1.005   1.003   3.826
   70CHL1  H24A 6349   1.096   1.062   3.806
   70CHL1  H24B 6350   0.917   1.064   3.794
   70CHL1   C25 6351   1.001   0.982   3.978
   70CHL1   H25 6352   1.097   0.935   4.009
   70CHL1   C26 6353   0.989   1.116   4.050
   70CHL1  H26A 6354   0.989   1.098   4.160
   70CHL1  H26B 6355   1.073   1.184   4.025
   70CHL1  H26C 6356   0.894   1.167   4.023
   70CHL1   C27 6357   0.887   0.891   4.024
   70CHL1  H27A 6358   0.880   0.891   4.135
   70CHL1  H27B 6359   0.791   0.927   3.983
   70CHL1  H27C 6360   0.906   0.787   3.990
   71CHL1    C3 6361   7.289   2.427   2.451
   71CHL1    H3 6362   0.037   2.329   2.460
   71CHL1    O3 6363   7.279   2.461   2.314
   71CHL1   H3' 6364   7.253   2.553   2.313
   71CHL1    C4 6365   7.149   2.416   2.514
   71CHL1   H4A 6366   7.093   2.510   2.495
   71CHL1   H4B 6367   7.094   2.336   2.461
   71CHL1    C5 6368   7.154   2.389   2.664
   71CHL1    C6 6369   7.094   2.283   2.720
   71CHL1    H6 6370   7.036   2.215   2.656
   71CHL1    C7 6371   7.096   2.254   2.868
   71CHL1   H7A 6372   6.993   2.230   2.904
   71CHL1   H7B 6373   7.159   2.164   2.885
   71CHL1    C8 6374   7.153   2.370   2.953
   71CHL1    H8 6375   7.074   2.447   2.962
   71CHL1   C14 6376   7.192   2.320   3.091
   71CHL1   H14 6377   7.271   2.243   3.076
   71CHL1   C15 6378   7.084   2.251   3.176
   71CHL1  H15A 6379   6.987   2.305   3.167
   71CHL1  H15B 6380   7.070   2.146   3.142
   71CHL1   C16 6381   7.137   2.259   3.320
   71CHL1  H16A 6382   7.058   2.303   3.384
   71CHL1  H16B 6383   7.163   2.158   3.359
   71CHL1   C17 6384   7.263   2.350   3.316
   71CHL1   H17 6385   0.047   2.282   3.308
   71CHL1   C13 6386   7.254   2.426   3.181
   71CHL1   C18 6387   7.156   2.544   3.197
   71CHL1  H18A 6388   7.136   2.596   3.100
   71CHL1  H18B 6389   7.058   2.507   3.233
   71CHL1  H18C 6390   7.195   2.621   3.267
   71CHL1   C12 6391   0.081   2.469   3.115
   71CHL1  H12A 6392   0.132   2.546   3.177
   71CHL1  H12B 6393   0.150   2.382   3.107
   71CHL1   C11 6394   0.055   2.527   2.975
   71CHL1  H11A 6395   0.002   2.624   2.986
   71CHL1  H11B 6396   0.153   2.548   2.928
   71CHL1    C9 6397   7.276   2.430   2.885
   71CHL1    H9 6398   0.040   2.343   2.869
   71CHL1   C10 6399   7.245   2.486   2.744
   71CHL1   C19 6400   7.172   2.622   2.756
   71CHL1  H19A 6401   7.140   2.661   2.657
   71CHL1  H19B 6402   7.081   2.613   2.820
   71CHL1  H19C 6403   7.238   2.699   2.801
   71CHL1    C1 6404   0.077   2.504   2.670
   71CHL1   H1A 6405   0.134   2.585   2.720
   71CHL1   H1B 6406   0.135   2.409   2.681
   71CHL1    C2 6407   0.067   2.535   2.521
   71CHL1   H2A 6408   0.169   2.541   2.477
   71CHL1   H2B 6409   0.019   2.635   2.509
   71CHL1   C20 6410   7.281   2.433   3.443
   71CHL1   H20 6411   7.199   2.509   3.448
   71CHL1   C21 6412   0.112   2.508   3.438
   71CHL1  H21A 6413   0.192   2.444   3.396
   71CHL1  H21B 6414   0.145   2.545   3.538
   71CHL1  H21C 6415   0.097   2.598   3.375
   71CHL1   C22 6416   7.268   2.354   3.574
   71CHL1  H22A 6417   7.169   2.303   3.579
   71CHL1  H22B 6418   0.044   2.277   3.581
   71CHL1   C23 6419   7.279   2.451   3.693
   71CHL1  H23A 6420   0.078   2.440   3.736
   71CHL1  H23B 6421   7.267   2.556   3.659
   71CHL1   C24 6422   7.171   2.429   3.798
   71CHL1  H24A 6423   7.074   2.455   3.751
   71CHL1  H24B 6424   7.167   2.321   3.826
   71CHL1   C25 6425   7.184   2.516   3.925
   71CHL1   H25 6426   7.111   2.598   3.916
   71CHL1   C26 6427   7.148   2.434   4.049
   71CHL1  H26A 6428   7.038   2.421   4.057
   71CHL1  H26B 6429   7.192   2.332   4.048
   71CHL1  H26C 6430   7.184   2.486   4.140
   71CHL1   C27 6431   0.018   2.583   3.942
   71CHL1  H27A 6432   0.016   2.649   4.031
   71CHL1  H27B 6433   0.099   2.508   3.954
   71CHL1  H27C 6434   0.043   2.647   3.854
   72CHL1    C3 6435   5.792   6.835   2.501
   72CHL1    H3 6436   5.894   6.877   2.513
   72CHL1    O3 6437   5.770   6.807   2.364
   72CHL1   H3' 6438   5.722   6.724   2.364
   72CHL1    C4 6439   5.778   6.707   2.584
   72CHL1   H4A 6440   5.679   6.661   2.567
   72CHL1   H4B 6441   5.853   6.633   2.549
   72CHL1    C5 6442   5.795   6.737   2.732
   72CHL1    C6 6443   5.892   6.677   2.803
   72CHL1    H6 6444   5.955   6.600   2.755
   72CHL1    C7 6445   5.914   6.698   2.949
   72CHL1   H7A 6446   5.932   6.601   2.999
   72CHL1   H7B 6447   6.004   6.762   2.965
   72CHL1    C8 6448   5.792   6.766   3.017
   72CHL1    H8 6449   5.711   6.691   3.020
   72CHL1   C14 6450   5.829   6.809   3.157
   72CHL1   H14 6451   5.903   6.891   3.144
   72CHL1   C15 6452   5.899   6.709   3.250
   72CHL1  H15A 6453   5.836   6.618   3.264
   72CHL1  H15B 6454   5.998   6.677   3.212
   72CHL1   C16 6455   5.909   6.790   3.379
   72CHL1  H16A 6456   5.921   6.725   3.468
   72CHL1  H16B 6457   5.998   6.855   3.374
   72CHL1   C17 6458   5.785   6.886   3.377
   72CHL1   H17 6459   5.829   6.988   3.370
   72CHL1   C13 6460   5.715   6.868   3.240
   72CHL1   C18 6461   5.598   6.768   3.253
   72CHL1  H18A 6462   5.632   6.672   3.298
   72CHL1  H18B 6463   5.518   6.811   3.317
   72CHL1  H18C 6464   5.552   6.745   3.154
   72CHL1   C12 6465   5.670   6.996   3.166
   72CHL1  H12A 6466   5.584   7.041   3.219
   72CHL1  H12B 6467   5.754   7.069   3.167
   72CHL1   C11 6468   5.633   6.967   3.018
   72CHL1  H11A 6469   5.537   6.910   3.021
   72CHL1  H11B 6470   5.612   7.063   2.966
   72CHL1    C9 6471   5.741   6.886   2.937
   72CHL1    H9 6472   5.828   6.955   2.928
   72CHL1   C10 6473   5.701   6.845   2.791
   72CHL1   C19 6474   5.555   6.793   2.793
   72CHL1  H19A 6475   5.484   6.877   2.809
   72CHL1  H19B 6476   5.527   6.744   2.698
   72CHL1  H19C 6477   5.540   6.720   2.876
   72CHL1    C1 6478   5.707   6.969   2.698
   72CHL1   H1A 6479   5.626   7.038   2.729
   72CHL1   H1B 6480   5.805   7.020   2.713
   72CHL1    C2 6481   5.689   6.939   2.548
   72CHL1   H2A 6482   5.700   7.032   2.488
   72CHL1   H2B 6483   5.587   6.899   2.531
   72CHL1   C20 6484   5.704   6.885   3.508
   72CHL1   H20 6485   5.608   6.940   3.490
   72CHL1   C21 6486   5.786   6.969   3.608
   72CHL1  H21A 6487   5.809   7.070   3.566
   72CHL1  H21B 6488   5.881   6.918   3.633
   72CHL1  H21C 6489   5.729   6.986   3.702
   72CHL1   C22 6490   5.668   6.745   3.567
   72CHL1  H22A 6491   5.590   6.696   3.505
   72CHL1  H22B 6492   5.757   6.677   3.565
   72CHL1   C23 6493   5.620   6.742   3.713
   72CHL1  H23A 6494   5.613   6.636   3.744
   72CHL1  H23B 6495   5.697   6.788   3.779
   72CHL1   C24 6496   5.484   6.809   3.735
   72CHL1  H24A 6497   5.479   6.903   3.677
   72CHL1  H24B 6498   5.405   6.741   3.697
   72CHL1   C25 6499   5.457   6.842   3.882
   72CHL1   H25 6500   5.533   6.917   3.914
   72CHL1   C26 6501   5.318   6.906   3.898
   72CHL1  H26A 6502   5.312   6.966   3.991
   72CHL1  H26B 6503   5.297   6.974   3.813
   72CHL1  H26C 6504   5.241   6.827   3.902
   72CHL1   C27 6505   5.472   6.718   3.971
   72CHL1  H27A 6506   5.448   6.741   4.077
   72CHL1  H27B 6507   5.403   6.638   3.936
   72CHL1  H27C 6508   5.575   6.678   3.968
   73CHL1    C3 6509   6.920   1.304   2.537
   73CHL1    H3 6510   7.025   1.270   2.549
   73CHL1    O3 6511   6.886   1.302   2.398
   73CHL1   H3' 6512   6.790   1.298   2.398
   73CHL1    C4 6513   6.825   1.208   2.611
   73CHL1   H4A 6514   6.720   1.234   2.586
   73CHL1   H4B 6515   6.843   1.106   2.571
   73CHL1    C5 6516   6.846   1.215   2.761
   73CHL1    C6 6517   6.879   1.105   2.828
   73CHL1    H6 6518   6.888   1.011   2.771
   73CHL1    C7 6519   6.899   1.098   2.976
   73CHL1   H7A 6520   6.848   1.009   3.018
   73CHL1   H7B 6521   7.007   1.087   2.995
   73CHL1    C8 6522   6.847   1.224   3.049
   73CHL1    H8 6523   6.736   1.216   3.055
   73CHL1   C14 6524   6.903   1.231   3.190
   73CHL1   H14 6525   7.011   1.254   3.179
   73CHL1   C15 6526   6.897   1.105   3.277
   73CHL1  H15A 6527   6.793   1.065   3.276
   73CHL1  H15B 6528   6.967   1.026   3.244
   73CHL1   C16 6529   6.930   1.158   3.417
   73CHL1  H16A 6530   6.859   1.115   3.491
   73CHL1  H16B 6531   7.034   1.131   3.446
   73CHL1   C17 6532   6.918   1.314   3.411
   73CHL1   H17 6533   7.021   1.354   3.401
   73CHL1   C13 6534   6.847   1.344   3.276
   73CHL1   C18 6535   6.694   1.329   3.296
   73CHL1  H18A 6536   6.640   1.331   3.199
   73CHL1  H18B 6537   6.669   1.234   3.348
   73CHL1  H18C 6538   6.654   1.413   3.357
   73CHL1   C12 6539   6.882   1.476   3.205
   73CHL1  H12A 6540   6.836   1.562   3.259
   73CHL1  H12B 6541   6.993   1.489   3.208
   73CHL1   C11 6542   6.834   1.477   3.058
   73CHL1  H11A 6543   6.724   1.482   3.063
   73CHL1  H11B 6544   6.870   1.570   3.008
   73CHL1    C9 6545   6.881   1.353   2.976
   73CHL1    H9 6546   6.992   1.358   2.973
   73CHL1   C10 6547   6.834   1.353   2.827
   73CHL1   C19 6548   6.685   1.393   2.827
   73CHL1  H19A 6549   6.674   1.503   2.844
   73CHL1  H19B 6550   6.635   1.368   2.731
   73CHL1  H19C 6551   6.629   1.340   2.907
   73CHL1    C1 6552   6.922   1.451   2.745
   73CHL1   H1A 6553   6.903   1.554   2.782
   73CHL1   H1B 6554   7.029   1.427   2.767
   73CHL1    C2 6555   6.905   1.446   2.592
   73CHL1   H2A 6556   6.982   1.511   2.544
   73CHL1   H2B 6557   6.805   1.487   2.565
   73CHL1   C20 6558   6.860   1.371   3.541
   73CHL1   H20 6559   6.757   1.331   3.554
   73CHL1   C21 6560   6.851   1.525   3.536
   73CHL1  H21A 6561   6.819   1.565   3.635
   73CHL1  H21B 6562   6.777   1.560   3.461
   73CHL1  H21C 6563   6.950   1.569   3.512
   73CHL1   C22 6564   6.941   1.329   3.666
   73CHL1  H22A 6565   6.984   1.228   3.653
   73CHL1  H22B 6566   7.026   1.399   3.681
   73CHL1   C23 6567   6.854   1.323   3.792
   73CHL1  H23A 6568   6.814   1.424   3.815
   73CHL1  H23B 6569   6.767   1.257   3.771
   73CHL1   C24 6570   6.928   1.266   3.913
   73CHL1  H24A 6571   6.980   1.173   3.883
   73CHL1  H24B 6572   7.006   1.339   3.947
   73CHL1   C25 6573   6.834   1.232   4.030
   73CHL1   H25 6574   6.755   1.165   3.992
   73CHL1   C26 6575   6.909   1.159   4.143
   73CHL1  H26A 6576   6.991   1.223   4.182
   73CHL1  H26B 6577   6.839   1.135   4.226
   73CHL1  H26C 6578   6.952   1.065   4.104
   73CHL1   C27 6579   6.766   1.358   4.086
   73CHL1  H27A 6580   6.842   1.424   4.133
   73CHL1  H27B 6581   6.713   1.415   4.007
   73CHL1  H27C 6582   6.692   1.328   4.163
   74CHL1    C3 6583   1.402   7.225   2.511
   74CHL1    H3 6584   1.433   7.123   2.541
   74CHL1    O3 6585   1.395   7.231   2.369
   74CHL1   H3' 6586   1.332   7.162   2.347
   74CHL1    C4 6587   1.262   7.255   2.567
   74CHL1   H4A 6588   1.230   0.051   2.530
   74CHL1   H4B 6589   1.191   7.181   2.524
   74CHL1    C5 6590   1.262   7.253   2.718
   74CHL1    C6 6591   1.181   7.169   2.786
   74CHL1    H6 6592   1.112   7.104   2.731
   74CHL1    C7 6593   1.174   7.163   2.935
   74CHL1   H7A 6594   1.068   7.160   2.969
   74CHL1   H7B 6595   1.222   7.068   2.969
   74CHL1    C8 6596   1.245   7.282   3.005
   74CHL1    H8 6597   1.178   0.067   2.999
   74CHL1   C14 6598   1.273   7.247   3.150
   74CHL1   H14 6599   1.346   7.163   3.146
   74CHL1   C15 6600   1.157   7.193   3.233
   74CHL1  H15A 6601   1.068   7.259   3.221
   74CHL1  H15B 6602   1.131   7.090   3.201
   74CHL1   C16 6603   1.209   7.201   3.377
   74CHL1  H16A 6604   1.136   7.256   3.440
   74CHL1  H16B 6605   1.226   7.100   3.421
   74CHL1   C17 6606   1.345   7.279   3.369
   74CHL1   H17 6607   1.424   7.202   3.357
   74CHL1   C13 6608   1.340   0.051   3.235
   74CHL1   C18 6609   1.247   0.175   3.250
   74CHL1  H18A 6610   1.298   0.252   3.311
   74CHL1  H18B 6611   1.225   0.220   3.151
   74CHL1  H18C 6612   1.151   0.149   3.298
   74CHL1   C12 6613   1.474   0.085   3.168
   74CHL1  H12A 6614   1.524   0.169   3.219
   74CHL1  H12B 6615   1.539   7.299   3.175
   74CHL1   C11 6616   1.456   0.120   3.019
   74CHL1  H11A 6617   1.400   0.216   3.015
   74CHL1  H11B 6618   1.556   0.136   2.974
   74CHL1    C9 6619   1.379   0.012   2.938
   74CHL1    H9 6620   1.440   7.223   2.946
   74CHL1   C10 6621   1.366   0.041   2.786
   74CHL1   C19 6622   1.320   0.188   2.766
   74CHL1  H19A 6623   1.398   0.259   2.801
   74CHL1  H19B 6624   1.302   0.212   2.659
   74CHL1  H19C 6625   1.226   0.208   2.822
   74CHL1    C1 6626   1.505   0.019   2.719
   74CHL1   H1A 6627   1.577   0.096   2.756
   74CHL1   H1B 6628   1.544   7.224   2.750
   74CHL1    C2 6629   1.504   0.022   2.565
   74CHL1   H2A 6630   1.605   7.301   2.526
   74CHL1   H2B 6631   1.477   0.124   2.529
   74CHL1   C20 6632   1.377   0.049   3.498
   74CHL1   H20 6633   1.298   0.126   3.516
   74CHL1   C21 6634   1.512   0.121   3.490
   74CHL1  H21A 6635   1.506   0.210   3.424
   74CHL1  H21B 6636   1.591   0.052   3.453
   74CHL1  H21C 6637   1.542   0.156   3.592
   74CHL1   C22 6638   1.377   7.257   3.620
   74CHL1  H22A 6639   1.364   7.151   3.589
   74CHL1  H22B 6640   1.476   7.262   3.671
   74CHL1   C23 6641   1.269   7.293   3.722
   74CHL1  H23A 6642   1.293   0.089   3.765
   74CHL1  H23B 6643   1.171   7.302   3.670
   74CHL1   C24 6644   1.258   7.189   3.833
   74CHL1  H24A 6645   1.209   7.098   3.792
   74CHL1  H24B 6646   1.360   7.159   3.866
   74CHL1   C25 6647   1.179   7.237   3.956
   74CHL1   H25 6648   1.159   7.147   4.017
   74CHL1   C26 6649   1.263   0.029   4.043
   74CHL1  H26A 6650   1.207   0.057   4.135
   74CHL1  H26B 6651   1.358   7.283   4.074
   74CHL1  H26C 6652   1.288   0.122   3.988
   74CHL1   C27 6653   1.044   7.301   3.920
   74CHL1  H27A 6654   0.985   7.232   3.856
   74CHL1  H27B 6655   0.986   0.019   4.012
   74CHL1  H27C 6656   1.059   0.093   3.865
   75CHL1    C3 6657   0.640   0.154   2.499
   75CHL1    H3 6658   0.741   0.196   2.520
   75CHL1    O3 6659   0.622   0.146   2.359
   75CHL1   H3' 6660   0.609   0.237   2.331
   75CHL1    C4 6661   0.627   0.015   2.563
   75CHL1   H4A 6662   0.527   7.278   2.539
   75CHL1   H4B 6663   0.701   7.251   2.514
   75CHL1    C5 6664   0.646   0.020   2.713
   75CHL1    C6 6665   0.740   7.249   2.774
   75CHL1    H6 6666   0.801   7.180   2.714
   75CHL1    C7 6667   0.765   7.249   2.922
   75CHL1   H7A 6668   0.770   7.145   2.961
   75CHL1   H7B 6669   0.863   7.296   2.941
   75CHL1    C8 6670   0.657   0.023   3.003
   75CHL1    H8 6671   0.569   7.260   3.017
   75CHL1   C14 6672   0.715   0.060   3.138
   75CHL1   H14 6673   0.804   0.123   3.113
   75CHL1   C15 6674   0.770   7.252   3.230
   75CHL1  H15A 6675   0.694   7.171   3.239
   75CHL1  H15B 6676   0.864   7.209   3.192
   75CHL1   C16 6677   0.787   0.020   3.366
   75CHL1  H16A 6678   0.733   7.266   3.444
   75CHL1  H16B 6679   0.894   0.029   3.395
   75CHL1   C17 6680   0.725   0.162   3.344
   75CHL1   H17 6681   0.807   0.223   3.302
   75CHL1   C13 6682   0.627   0.147   3.227
   75CHL1   C18 6683   0.500   0.069   3.270
   75CHL1  H18A 6684   0.442   0.035   3.181
   75CHL1  H18B 6685   0.524   7.283   3.331
   75CHL1  H18C 6686   0.434   0.135   3.330
   75CHL1   C12 6687   0.590   0.276   3.153
   75CHL1  H12A 6688   0.519   0.335   3.216
   75CHL1  H12B 6689   0.681   0.337   3.137
   75CHL1   C11 6690   0.525   0.244   3.017
   75CHL1  H11A 6691   0.427   0.197   3.035
   75CHL1  H11B 6692   0.507   0.341   2.965
   75CHL1    C9 6693   0.614   0.151   2.930
   75CHL1    H9 6694   0.709   0.208   2.915
   75CHL1   C10 6695   0.559   0.124   2.788
   75CHL1   C19 6696   0.416   0.065   2.798
   75CHL1  H19A 6697   0.346   0.138   2.844
   75CHL1  H19B 6698   0.375   0.040   2.697
   75CHL1  H19C 6699   0.415   7.275   2.859
   75CHL1    C1 6700   0.555   0.259   2.711
   75CHL1   H1A 6701   0.473   0.323   2.752
   75CHL1   H1B 6702   0.651   0.313   2.728
   75CHL1    C2 6703   0.535   0.248   2.559
   75CHL1   H2A 6704   0.541   0.349   2.513
   75CHL1   H2B 6705   0.434   0.207   2.537
   75CHL1   C20 6706   0.679   0.239   3.467
   75CHL1   H20 6707   0.610   0.320   3.434
   75CHL1   C21 6708   0.805   0.303   3.529
   75CHL1  H21A 6709   0.878   0.225   3.557
   75CHL1  H21B 6710   0.780   0.362   3.620
   75CHL1  H21C 6711   0.853   0.373   3.456
   75CHL1   C22 6712   0.606   0.156   3.574
   75CHL1  H22A 6713   0.529   0.090   3.529
   75CHL1  H22B 6714   0.684   0.092   3.619
   75CHL1   C23 6715   0.537   0.239   3.683
   75CHL1  H23A 6716   0.612   0.306   3.732
   75CHL1  H23B 6717   0.459   0.304   3.637
   75CHL1   C24 6718   0.472   0.153   3.793
   75CHL1  H24A 6719   0.440   0.222   3.874
   75CHL1  H24B 6720   0.381   0.104   3.753
   75CHL1   C25 6721   0.567   0.046   3.851
   75CHL1   H25 6722   0.671   0.081   3.838
   75CHL1   C26 6723   0.544   0.031   4.001
   75CHL1  H26A 6724   0.556   0.129   4.053
   75CHL1  H26B 6725   0.442   7.296   4.019
   75CHL1  H26C 6726   0.618   7.264   4.045
   75CHL1   C27 6727   0.550   7.214   3.778
   75CHL1  H27A 6728   0.443   7.188   3.766
   75CHL1  H27B 6729   0.597   7.216   3.678
   75CHL1  H27C 6730   0.598   7.132   3.836
   76CHL1    C3 6731   0.008   7.121   2.496
   76CHL1    H3 6732   0.108   7.170   2.488
   76CHL1    O3 6733   7.263   7.095   2.365
   76CHL1   H3' 6734   7.281   7.178   2.320
   76CHL1    C4 6735   0.023   6.989   2.574
   76CHL1   H4A 6736   7.229   6.935   2.568
   76CHL1   H4B 6737   0.097   6.926   2.521
   76CHL1    C5 6738   0.061   7.011   2.720
   76CHL1    C6 6739   0.166   6.950   2.777
   76CHL1    H6 6740   0.227   6.880   2.718
   76CHL1    C7 6741   0.201   6.964   2.923
   76CHL1   H7A 6742   0.222   6.864   2.967
   76CHL1   H7B 6743   0.293   7.025   2.933
   76CHL1    C8 6744   0.089   7.032   3.007
   76CHL1    H8 6745   0.009   6.956   3.022
   76CHL1   C14 6746   0.140   7.076   3.143
   76CHL1   H14 6747   0.219   7.152   3.123
   76CHL1   C15 6748   0.208   6.970   3.231
   76CHL1  H15A 6749   0.149   6.876   3.226
   76CHL1  H15B 6750   0.312   6.949   3.198
   76CHL1   C16 6751   0.202   7.031   3.372
   76CHL1  H16A 6752   0.155   6.957   3.441
   76CHL1  H16B 6753   0.303   7.056   3.410
   76CHL1   C17 6754   0.115   7.160   3.363
   76CHL1   H17 6755   0.186   7.244   3.348
   76CHL1   C13 6756   0.037   7.147   3.231
   76CHL1   C18 6757   7.218   7.055   3.257
   76CHL1  H18A 6758   7.169   7.023   3.163
   76CHL1  H18B 6759   7.247   6.964   3.314
   76CHL1  H18C 6760   7.141   7.109   3.317
   76CHL1   C12 6761   7.301   7.276   3.158
   76CHL1  H12A 6762   7.225   0.031   3.214
   76CHL1  H12B 6763   0.088   0.036   3.147
   76CHL1   C11 6764   7.245   7.245   3.019
   76CHL1  H11A 6765   7.145   7.198   3.035
   76CHL1  H11B 6766   7.228   0.038   2.966
   76CHL1    C9 6767   0.033   7.153   2.932
   76CHL1    H9 6768   0.122   7.215   2.909
   76CHL1   C10 6769   7.276   7.112   2.795
   76CHL1   C19 6770   7.142   7.039   2.817
   76CHL1  H19A 6771   7.158   6.944   2.873
   76CHL1  H19B 6772   7.071   7.101   2.876
   76CHL1  H19C 6773   7.092   7.014   2.721
   76CHL1    C1 6774   7.257   7.241   2.710
   76CHL1   H1A 6775   7.182   0.003   2.759
   76CHL1   H1B 6776   0.050   7.296   2.708
   76CHL1    C2 6777   7.214   7.216   2.565
   76CHL1   H2A 6778   7.211   0.009   2.510
   76CHL1   H2B 6779   7.112   7.171   2.562
   76CHL1   C20 6780   0.038   7.189   3.493
   76CHL1   H20 6781   7.269   7.107   3.512
   76CHL1   C21 6782   7.262   0.018   3.483
   76CHL1  H21A 6783   7.179   0.009   3.410
   76CHL1  H21B 6784   0.026   0.102   3.453
   76CHL1  H21C 6785   7.215   0.044   3.580
   76CHL1   C22 6786   0.134   7.192   3.614
   76CHL1  H22A 6787   0.177   7.090   3.627
   76CHL1  H22B 6788   0.218   7.261   3.593
   76CHL1   C23 6789   0.069   7.231   3.747
   76CHL1  H23A 6790   0.048   0.037   3.748
   76CHL1  H23B 6791   7.277   7.177   3.760
   76CHL1   C24 6792   0.162   7.197   3.863
   76CHL1  H24A 6793   0.175   7.087   3.867
   76CHL1  H24B 6794   0.263   7.241   3.844
   76CHL1   C25 6795   0.117   7.248   4.001
   76CHL1   H25 6796   0.007   7.234   4.010
   76CHL1   C26 6797   0.186   7.165   4.108
   76CHL1  H26A 6798   0.289   7.139   4.075
   76CHL1  H26B 6799   0.194   7.221   4.203
   76CHL1  H26C 6800   0.131   7.070   4.125
   76CHL1   C27 6801   0.148   0.094   4.018
   76CHL1  H27A 6802   0.098   0.155   3.939
   76CHL1  H27B 6803   0.114   0.130   4.117
   76CHL1  H27C 6804   0.258   0.112   4.010
   77SOPE     N 6805   3.924   4.488   6.481
   77SOPE   HN1 6806   3.985   4.432   6.419
   77SOPE   HN2 6807   3.935   4.588   6.453
   77SOPE   HN3 6808   3.954   4.474   6.579
   77SOPE   C12 6809   3.785   4.437   6.454
   77SOPE  H12A 6810   3.748   4.489   6.364
   77SOPE  H12B 6811   3.720   4.462   6.541
   77SOPE   C11 6812   3.791   4.285   6.427
   77SOPE  H11A 6813   3.699   4.256   6.372
   77SOPE  H11B 6814   3.791   4.231   6.524
   77SOPE     P 6815   3.935   4.106   6.304
   77SOPE   O13 6816   3.920   4.013   6.418
   77SOPE   O14 6817   4.061   4.097   6.229
   77SOPE   O12 6818   3.910   4.254   6.354
   77SOPE   O11 6819   3.812   4.084   6.207
   77SOPE    C1 6820   3.806   4.154   6.082
   77SOPE    HA 6821   3.897   4.214   6.059
   77SOPE    HB 6822   3.721   4.225   6.084
   77SOPE    C2 6823   3.785   4.053   5.967
   77SOPE    HS 6824   3.770   3.954   6.015
   77SOPE   O21 6825   3.900   4.052   5.879
   77SOPE   C21 6826   3.913   3.940   5.811
   77SOPE   O22 6827   3.852   3.837   5.833
   77SOPE   C22 6828   4.002   3.964   5.688
   77SOPE   H2R 6829   4.034   3.865   5.651
   77SOPE   H2S 6830   4.091   4.023   5.719
   77SOPE    C3 6831   3.656   4.086   5.886
   77SOPE    HX 6832   3.570   4.084   5.957
   77SOPE    HY 6833   3.640   4.004   5.812
   77SOPE   O31 6834   3.666   4.217   5.828
   77SOPE   C31 6835   3.651   4.226   5.697
   77SOPE   O32 6836   3.610   4.138   5.624
   77SOPE   C32 6837   3.698   4.364   5.652
   77SOPE   H2X 6838   3.808   4.365   5.657
   77SOPE   H2Y 6839   3.658   4.439   5.723
   77SOPE   C23 6840   3.920   4.039   5.581
   77SOPE   H3R 6841   3.907   4.145   5.611
   77SOPE   H3S 6842   3.819   3.993   5.575
   77SOPE   C24 6843   3.976   4.034   5.438
   77SOPE   H4R 6844   4.069   4.095   5.431
   77SOPE   H4S 6845   4.002   3.929   5.412
   77SOPE   C25 6846   3.871   4.086   5.338
   77SOPE   H5R 6847   3.778   4.028   5.352
   77SOPE   H5S 6848   3.847   4.192   5.361
   77SOPE   C26 6849   3.913   4.074   5.191
   77SOPE   H6R 6850   3.993   4.149   5.170
   77SOPE   H6S 6851   3.957   3.973   5.176
   77SOPE   C27 6852   3.797   4.092   5.092
   77SOPE   H7R 6853   3.722   4.012   5.111
   77SOPE   H7S 6854   3.747   4.189   5.110
   77SOPE   C28 6855   3.845   4.083   4.945
   77SOPE   H8R 6856   3.924   4.160   4.930
   77SOPE   H8S 6857   3.893   3.984   4.934
   77SOPE   C29 6858   3.738   4.100   4.839
   77SOPE   H91 6859   3.657   4.170   4.865
   77SOPE  C210 6860   3.734   4.036   4.720
   77SOPE  H101 6861   3.651   4.057   4.651
   77SOPE  C211 6862   3.836   3.937   4.669
   77SOPE  H11R 6863   3.791   3.836   4.669
   77SOPE  H11S 6864   3.926   3.933   4.735
   77SOPE  C212 6865   3.889   3.963   4.526
   77SOPE  H12R 6866   3.806   3.958   4.453
   77SOPE  H12S 6867   3.961   3.882   4.500
   77SOPE  C213 6868   3.962   4.097   4.511
   77SOPE  H13R 6869   4.042   4.106   4.588
   77SOPE  H13S 6870   3.889   4.179   4.530
   77SOPE  C214 6871   4.022   4.118   4.371
   77SOPE  H14R 6872   4.028   4.227   4.353
   77SOPE  H14S 6873   3.954   4.076   4.294
   77SOPE  C215 6874   4.163   4.059   4.355
   77SOPE  H15R 6875   4.158   3.948   4.351
   77SOPE  H15S 6876   4.224   4.087   4.443
   77SOPE  C216 6877   4.232   4.114   4.229
   77SOPE  H16R 6878   4.232   4.224   4.239
   77SOPE  H16S 6879   4.173   4.088   4.138
   77SOPE  C217 6880   4.377   4.067   4.212
   77SOPE  H17R 6881   4.376   3.961   4.179
   77SOPE  H17S 6882   4.429   4.071   4.310
   77SOPE  C218 6883   4.457   4.151   4.111
   77SOPE  H18R 6884   4.558   4.106   4.094
   77SOPE  H18S 6885   4.471   4.254   4.149
   77SOPE  H18T 6886   4.404   4.156   4.014
   77SOPE   C33 6887   3.650   4.396   5.509
   77SOPE   H3X 6888   3.541   4.379   5.501
   77SOPE   H3Y 6889   3.698   4.329   5.435
   77SOPE   C34 6890   3.679   4.542   5.472
   77SOPE   H4X 6891   3.634   4.608   5.550
   77SOPE   H4Y 6892   3.626   4.565   5.377
   77SOPE   C35 6893   3.828   4.576   5.459
   77SOPE   H5X 6894   3.880   4.549   5.554
   77SOPE   H5Y 6895   3.838   4.687   5.449
   77SOPE   C36 6896   3.902   4.510   5.341
   77SOPE   H6X 6897   3.895   4.400   5.353
   77SOPE   H6Y 6898   4.009   4.538   5.345
   77SOPE   C37 6899   3.848   4.549   5.202
   77SOPE   H7X 6900   3.873   4.655   5.180
   77SOPE   H7Y 6901   3.737   4.539   5.203
   77SOPE   C38 6902   3.901   4.459   5.090
   77SOPE   H8X 6903   3.901   4.355   5.129
   77SOPE   H8Y 6904   4.007   4.484   5.065
   77SOPE   C39 6905   3.814   4.460   4.963
   77SOPE   H9X 6906   3.709   4.488   4.989
   77SOPE   H9Y 6907   3.811   4.356   4.924
   77SOPE  C310 6908   3.866   4.548   4.848
   77SOPE  H10X 6909   3.969   4.517   4.824
   77SOPE  H10Y 6910   3.868   4.654   4.880
   77SOPE  C311 6911   3.777   4.532   4.723
   77SOPE  H11X 6912   3.677   4.574   4.745
   77SOPE  H11Y 6913   3.764   4.423   4.702
   77SOPE  C312 6914   3.833   4.598   4.595
   77SOPE  H12X 6915   3.852   4.706   4.613
   77SOPE  H12Y 6916   3.754   4.591   4.518
   77SOPE  C313 6917   3.960   4.531   4.540
   77SOPE  H13X 6918   3.950   4.421   4.552
   77SOPE  H13Y 6919   4.048   4.564   4.599
   77SOPE  C314 6920   3.982   4.561   4.391
   77SOPE  H14X 6921   3.983   4.671   4.376
   77SOPE  H14Y 6922   3.897   4.520   4.333
   77SOPE  C315 6923   4.113   4.504   4.334
   77SOPE  H15X 6924   4.132   4.403   4.376
   77SOPE  H15Y 6925   4.198   4.568   4.366
   77SOPE  C316 6926   4.113   4.496   4.180
   77SOPE  H16X 6927   4.074   4.591   4.137
   77SOPE  H16Y 6928   4.042   4.416   4.151
   77SOPE  C317 6929   4.251   4.465   4.119
   77SOPE  H17X 6930   4.235   4.403   4.028
   77SOPE  H17Y 6931   4.310   4.405   4.191
   77SOPE  C318 6932   4.335   4.587   4.079
   77SOPE  H18X 6933   4.276   4.657   4.016
   77SOPE  H18Y 6934   4.425   4.555   4.022
   77SOPE  H18Z 6935   4.369   4.641   4.170
   78SOPE     N 6936   2.792   4.363   6.472
   78SOPE   HN1 6937   2.745   4.402   6.387
   78SOPE   HN2 6938   2.780   4.438   6.543
   78SOPE   HN3 6939   2.892   4.344   6.452
   78SOPE   C12 6940   2.720   4.239   6.517
   78SOPE  H12A 6941   2.678   4.260   6.618
   78SOPE  H12B 6942   2.794   4.156   6.524
   78SOPE   C11 6943   2.606   4.205   6.420
   78SOPE  H11A 6944   2.550   4.118   6.462
   78SOPE  H11B 6945   2.646   4.174   6.321
   78SOPE     P 6946   2.371   4.311   6.366
   78SOPE   O13 6947   2.291   4.362   6.480
   78SOPE   O14 6948   2.342   4.174   6.321
   78SOPE   O12 6949   2.523   4.320   6.406
   78SOPE   O11 6950   2.363   4.413   6.247
   78SOPE    C1 6951   2.437   4.393   6.126
   78SOPE    HA 6952   2.450   4.286   6.100
   78SOPE    HB 6953   2.537   4.440   6.135
   78SOPE    C2 6954   2.360   4.460   6.009
   78SOPE    HS 6955   2.336   4.563   6.044
   78SOPE   O21 6956   2.240   4.384   5.988
   78SOPE   C21 6957   2.145   4.447   5.924
   78SOPE   O22 6958   2.141   4.566   5.899
   78SOPE   C22 6959   2.040   4.344   5.887
   78SOPE   H2R 6960   1.970   4.335   5.973
   78SOPE   H2S 6961   2.091   4.246   5.873
   78SOPE    C3 6962   2.441   4.473   5.876
   78SOPE    HX 6963   2.534   4.531   5.895
   78SOPE    HY 6964   2.379   4.534   5.806
   78SOPE   O31 6965   2.465   4.346   5.812
   78SOPE   C31 6966   2.584   4.292   5.833
   78SOPE   O32 6967   2.670   4.335   5.908
   78SOPE   C32 6968   2.597   4.169   5.743
   78SOPE   H2X 6969   2.559   4.197   5.643
   78SOPE   H2Y 6970   2.532   4.090   5.785
   78SOPE   C23 6971   1.963   4.383   5.759
   78SOPE   H3R 6972   1.923   4.486   5.770
   78SOPE   H3S 6973   1.875   4.316   5.748
   78SOPE   C24 6974   2.047   4.373   5.631
   78SOPE   H4R 6975   2.139   4.434   5.638
   78SOPE   H4S 6976   2.079   4.267   5.616
   78SOPE   C25 6977   1.965   4.420   5.510
   78SOPE   H5R 6978   1.861   4.383   5.523
   78SOPE   H5S 6979   1.963   4.531   5.511
   78SOPE   C26 6980   2.014   4.373   5.373
   78SOPE   H6R 6981   2.069   4.277   5.382
   78SOPE   H6S 6982   1.925   4.354   5.310
   78SOPE   C27 6983   2.098   4.477   5.298
   78SOPE   H7R 6984   2.045   4.574   5.302
   78SOPE   H7S 6985   2.196   4.490   5.350
   78SOPE   C28 6986   2.119   4.441   5.150
   78SOPE   H8R 6987   2.019   4.432   5.103
   78SOPE   H8S 6988   2.170   4.525   5.099
   78SOPE   C29 6989   2.201   4.316   5.134
   78SOPE   H91 6990   2.300   4.318   5.183
   78SOPE  C210 6991   2.163   4.204   5.069
   78SOPE  H101 6992   2.233   4.119   5.062
   78SOPE  C211 6993   2.031   4.183   5.001
   78SOPE  H11R 6994   1.949   4.220   5.065
   78SOPE  H11S 6995   2.016   4.074   4.984
   78SOPE  C212 6996   2.017   4.250   4.865
   78SOPE  H12R 6997   2.028   4.361   4.873
   78SOPE  H12S 6998   1.914   4.231   4.828
   78SOPE  C213 6999   2.118   4.196   4.763
   78SOPE  H13R 7000   2.127   4.086   4.773
   78SOPE  H13S 7001   2.217   4.240   4.784
   78SOPE  C214 7002   2.073   4.230   4.622
   78SOPE  H14R 7003   2.162   4.226   4.555
   78SOPE  H14S 7004   2.035   4.335   4.620
   78SOPE  C215 7005   1.967   4.134   4.568
   78SOPE  H15R 7006   1.892   4.110   4.647
   78SOPE  H15S 7007   2.017   4.038   4.541
   78SOPE  C216 7008   1.893   4.190   4.447
   78SOPE  H16R 7009   1.844   4.105   4.394
   78SOPE  H16S 7010   1.965   4.236   4.376
   78SOPE  C217 7011   1.784   4.290   4.484
   78SOPE  H17R 7012   1.831   4.380   4.529
   78SOPE  H17S 7013   1.717   4.245   4.561
   78SOPE  C218 7014   1.700   4.331   4.363
   78SOPE  H18R 7015   1.765   4.331   4.273
   78SOPE  H18S 7016   1.657   4.433   4.376
   78SOPE  H18T 7017   1.618   4.259   4.345
   78SOPE   C33 7018   2.743   4.119   5.733
   78SOPE   H3X 7019   2.776   4.083   5.832
   78SOPE   H3Y 7020   2.811   4.201   5.702
   78SOPE   C34 7021   2.755   4.004   5.632
   78SOPE   H4X 7022   2.671   3.934   5.652
   78SOPE   H4Y 7023   2.849   3.948   5.648
   78SOPE   C35 7024   2.748   4.050   5.485
   78SOPE   H5X 7025   2.851   4.081   5.454
   78SOPE   H5Y 7026   2.683   4.140   5.474
   78SOPE   C36 7027   2.697   3.940   5.392
   78SOPE   H6X 7028   2.747   3.846   5.421
   78SOPE   H6Y 7029   2.727   3.962   5.287
   78SOPE   C37 7030   2.544   3.920   5.398
   78SOPE   H7X 7031   2.512   3.904   5.503
   78SOPE   H7Y 7032   2.518   3.827   5.342
   78SOPE   C38 7033   2.458   4.032   5.336
   78SOPE   H8X 7034   2.478   4.126   5.391
   78SOPE   H8Y 7035   2.351   4.007   5.350
   78SOPE   C39 7036   2.484   4.054   5.186
   78SOPE   H9X 7037   2.593   4.069   5.169
   78SOPE   H9Y 7038   2.435   4.149   5.155
   78SOPE  C310 7039   2.432   3.941   5.095
   78SOPE  H10X 7040   2.321   3.937   5.101
   78SOPE  H10Y 7041   2.469   3.842   5.130
   78SOPE  C311 7042   2.476   3.961   4.949
   78SOPE  H11X 7043   2.483   4.070   4.928
   78SOPE  H11Y 7044   2.400   3.918   4.881
   78SOPE  C312 7045   2.612   3.894   4.921
   78SOPE  H12X 7046   2.594   3.785   4.911
   78SOPE  H12Y 7047   2.679   3.909   5.009
   78SOPE  C313 7048   2.684   3.945   4.796
   78SOPE  H13X 7049   2.774   3.882   4.779
   78SOPE  H13Y 7050   2.720   4.049   4.814
   78SOPE  C314 7051   2.598   3.945   4.669
   78SOPE  H14X 7052   2.520   4.023   4.679
   78SOPE  H14Y 7053   2.547   3.847   4.659
   78SOPE  C315 7054   2.681   3.973   4.542
   78SOPE  H15X 7055   2.733   3.880   4.511
   78SOPE  H15Y 7056   2.758   4.049   4.566
   78SOPE  C316 7057   2.594   4.027   4.429
   78SOPE  H16X 7058   2.558   4.127   4.463
   78SOPE  H16Y 7059   2.505   3.962   4.415
   78SOPE  C317 7060   2.665   4.045   4.293
   78SOPE  H17X 7061   2.761   4.099   4.308
   78SOPE  H17Y 7062   2.602   4.111   4.229
   78SOPE  C318 7063   2.686   3.915   4.217
   78SOPE  H18X 7064   2.723   3.934   4.114
   78SOPE  H18Y 7065   2.589   3.861   4.210
   78SOPE  H18Z 7066   2.758   3.848   4.269
   79SOPE     N 7067   3.959   1.737   6.585
   79SOPE   HN1 7068   3.869   1.745   6.636
   79SOPE   HN2 7069   3.937   1.701   6.491
   79SOPE   HN3 7070   4.023   1.672   6.635
   79SOPE   C12 7071   4.018   1.873   6.558
   79SOPE  H12A 7072   4.098   1.862   6.482
   79SOPE  H12B 7073   4.063   1.912   6.652
   79SOPE   C11 7074   3.908   1.969   6.507
   79SOPE  H11A 7075   3.955   2.062   6.469
   79SOPE  H11B 7076   3.845   1.996   6.594
   79SOPE     P 7077   3.878   1.841   6.280
   79SOPE   O13 7078   3.909   1.703   6.327
   79SOPE   O14 7079   3.989   1.925   6.232
   79SOPE   O12 7080   3.820   1.913   6.409
   79SOPE   O11 7081   3.754   1.842   6.184
   79SOPE    C1 7082   3.639   1.760   6.211
   79SOPE    HA 7083   3.578   1.802   6.293
   79SOPE    HB 7084   3.670   1.657   6.241
   79SOPE    C2 7085   3.548   1.742   6.085
   79SOPE    HS 7086   3.491   1.647   6.094
   79SOPE   O21 7087   3.626   1.740   5.964
   79SOPE   C21 7088   3.723   1.651   5.958
   79SOPE   O22 7089   3.737   1.553   6.031
   79SOPE   C22 7090   3.822   1.695   5.851
   79SOPE   H2R 7091   3.907   1.742   5.905
   79SOPE   H2S 7092   3.775   1.773   5.787
   79SOPE    C3 7093   3.445   1.858   6.075
   79SOPE    HX 7094   3.374   1.846   6.160
   79SOPE    HY 7095   3.386   1.848   5.982
   79SOPE   O31 7096   3.511   1.987   6.087
   79SOPE   C31 7097   3.568   2.028   5.974
   79SOPE   O32 7098   3.532   1.997   5.861
   79SOPE   C32 7099   3.686   2.118   6.008
   79SOPE   H2X 7100   3.745   2.068   6.088
   79SOPE   H2Y 7101   3.647   2.214   6.047
   79SOPE   C23 7102   3.874   1.578   5.765
   79SOPE   H3R 7103   3.914   1.498   5.831
   79SOPE   H3S 7104   3.957   1.614   5.702
   79SOPE   C24 7105   3.767   1.518   5.673
   79SOPE   H4R 7106   3.812   1.430   5.622
   79SOPE   H4S 7107   3.681   1.480   5.733
   79SOPE   C25 7108   3.715   1.616   5.567
   79SOPE   H5R 7109   3.660   1.699   5.618
   79SOPE   H5S 7110   3.800   1.661   5.512
   79SOPE   C26 7111   3.618   1.550   5.468
   79SOPE   H6R 7112   3.538   1.499   5.526
   79SOPE   H6S 7113   3.569   1.630   5.409
   79SOPE   C27 7114   3.684   1.448   5.373
   79SOPE   H7R 7115   3.736   1.371   5.434
   79SOPE   H7S 7116   3.604   1.396   5.317
   79SOPE   C28 7117   3.784   1.503   5.270
   79SOPE   H8R 7118   3.875   1.537   5.324
   79SOPE   H8S 7119   3.815   1.419   5.204
   79SOPE   C29 7120   3.728   1.618   5.190
   79SOPE   H91 7121   3.698   1.704   5.252
   79SOPE  C210 7122   3.705   1.626   5.058
   79SOPE  H101 7123   3.661   1.719   5.018
   79SOPE  C211 7124   3.729   1.521   4.953
   79SOPE  H11R 7125   3.630   1.485   4.918
   79SOPE  H11S 7126   3.782   1.432   4.992
   79SOPE  C212 7127   3.805   1.576   4.831
   79SOPE  H12R 7128   3.769   1.677   4.802
   79SOPE  H12S 7129   3.778   1.509   4.746
   79SOPE  C213 7130   3.958   1.575   4.844
   79SOPE  H13R 7131   3.988   1.509   4.929
   79SOPE  H13S 7132   3.995   1.677   4.866
   79SOPE  C214 7133   4.024   1.522   4.715
   79SOPE  H14R 7134   3.970   1.564   4.628
   79SOPE  H14S 7135   4.009   1.412   4.716
   79SOPE  C215 7136   4.173   1.548   4.699
   79SOPE  H15R 7137   4.212   1.591   4.793
   79SOPE  H15S 7138   4.190   1.623   4.618
   79SOPE  C216 7139   4.254   1.420   4.669
   79SOPE  H16R 7140   4.229   1.343   4.746
   79SOPE  H16S 7141   4.361   1.447   4.682
   79SOPE  C217 7142   4.241   1.356   4.530
   79SOPE  H17R 7143   4.135   1.329   4.510
   79SOPE  H17S 7144   4.296   1.259   4.531
   79SOPE  C218 7145   4.296   1.441   4.415
   79SOPE  H18R 7146   4.402   1.467   4.432
   79SOPE  H18S 7147   4.237   1.535   4.405
   79SOPE  H18T 7148   4.288   1.385   4.319
   79SOPE   C33 7149   3.777   2.140   5.885
   79SOPE   H3X 7150   3.726   2.208   5.813
   79SOPE   H3Y 7151   3.794   2.044   5.833
   79SOPE   C34 7152   3.914   2.199   5.924
   79SOPE   H4X 7153   3.963   2.135   6.000
   79SOPE   H4Y 7154   3.897   2.299   5.970
   79SOPE   C35 7155   4.005   2.215   5.802
   79SOPE   H5X 7156   4.083   2.293   5.822
   79SOPE   H5Y 7157   3.943   2.250   5.717
   79SOPE   C36 7158   4.073   2.085   5.759
   79SOPE   H6X 7159   3.999   2.002   5.768
   79SOPE   H6Y 7160   4.158   2.061   5.825
   79SOPE   C37 7161   4.116   2.092   5.612
   79SOPE   H7X 7162   4.190   2.174   5.596
   79SOPE   H7Y 7163   4.025   2.123   5.555
   79SOPE   C38 7164   4.169   1.958   5.560
   79SOPE   H8X 7165   4.123   1.877   5.622
   79SOPE   H8Y 7166   4.279   1.952   5.575
   79SOPE   C39 7167   4.131   1.930   5.414
   79SOPE   H9X 7168   4.165   1.827   5.389
   79SOPE   H9Y 7169   4.183   2.000   5.346
   79SOPE  C310 7170   3.980   1.938   5.391
   79SOPE  H10X 7171   3.949   2.044   5.378
   79SOPE  H10Y 7172   3.928   1.899   5.482
   79SOPE  C311 7173   3.930   1.857   5.272
   79SOPE  H11X 7174   3.821   1.871   5.265
   79SOPE  H11Y 7175   3.951   1.750   5.292
   79SOPE  C312 7176   3.993   1.894   5.137
   79SOPE  H12X 7177   3.951   1.823   5.063
   79SOPE  H12Y 7178   4.103   1.878   5.139
   79SOPE  C313 7179   3.962   2.038   5.092
   79SOPE  H13X 7180   4.013   2.108   5.162
   79SOPE  H13Y 7181   3.853   2.056   5.101
   79SOPE  C314 7182   4.005   2.069   4.948
   79SOPE  H14X 7183   4.115   2.052   4.939
   79SOPE  H14Y 7184   3.986   2.176   4.927
   79SOPE  C315 7185   3.932   1.984   4.844
   79SOPE  H15X 7186   3.822   1.997   4.854
   79SOPE  H15Y 7187   3.955   1.877   4.863
   79SOPE  C316 7188   3.974   2.013   4.699
   79SOPE  H16X 7189   4.084   2.027   4.695
   79SOPE  H16Y 7190   3.926   2.108   4.665
   79SOPE  C317 7191   3.937   1.898   4.604
   79SOPE  H17X 7192   3.828   1.878   4.613
   79SOPE  H17Y 7193   3.990   1.807   4.638
   79SOPE  C318 7194   3.972   1.926   4.458
   79SOPE  H18X 7195   3.952   1.837   4.395
   79SOPE  H18Y 7196   4.079   1.952   4.448
   79SOPE  H18Z 7197   3.911   2.010   4.419
   80SOPE     N 7198   2.065   4.955   6.494
   80SOPE   HN1 7199   2.010   4.905   6.567
   80SOPE   HN2 7200   2.133   5.021   6.538
   80SOPE   HN3 7201   1.998   5.010   6.437
   80SOPE   C12 7202   2.148   4.869   6.404
   80SOPE  H12A 7203   2.081   4.808   6.340
   80SOPE  H12B 7204   2.209   4.803   6.469
   80SOPE   C11 7205   2.238   4.962   6.321
   80SOPE  H11A 7206   2.179   5.010   6.241
   80SOPE  H11B 7207   2.316   4.899   6.273
   80SOPE     P 7208   2.425   5.138   6.361
   80SOPE   O13 7209   2.524   5.033   6.328
   80SOPE   O14 7210   2.460   5.238   6.464
   80SOPE   O12 7211   2.293   5.063   6.407
   80SOPE   O11 7212   2.372   5.212   6.232
   80SOPE    C1 7213   2.456   5.246   6.122
   80SOPE    HA 7214   2.552   5.191   6.122
   80SOPE    HB 7215   2.479   5.355   6.125
   80SOPE    C2 7216   2.383   5.214   5.989
   80SOPE    HS 7217   2.286   5.269   5.991
   80SOPE   O21 7218   2.363   5.072   5.986
   80SOPE   C21 7219   2.272   5.030   5.901
   80SOPE   O22 7220   2.189   5.098   5.844
   80SOPE   C22 7221   2.288   4.879   5.884
   80SOPE   H2R 7222   2.213   4.844   5.810
   80SOPE   H2S 7223   2.268   4.831   5.982
   80SOPE    C3 7224   2.460   5.257   5.860
   80SOPE    HX 7225   2.394   5.239   5.773
   80SOPE    HY 7226   2.546   5.188   5.847
   80SOPE   O31 7227   2.498   5.397   5.857
   80SOPE   C31 7228   2.626   5.421   5.884
   80SOPE   O32 7229   2.704   5.338   5.929
   80SOPE   C32 7230   2.664   5.565   5.848
   80SOPE   H2X 7231   2.752   5.592   5.910
   80SOPE   H2Y 7232   2.582   5.633   5.878
   80SOPE   C23 7233   2.431   4.843   5.836
   80SOPE   H3R 7234   2.441   4.733   5.840
   80SOPE   H3S 7235   2.508   4.885   5.905
   80SOPE   C24 7236   2.460   4.887   5.692
   80SOPE   H4R 7237   2.374   4.858   5.627
   80SOPE   H4S 7238   2.469   4.998   5.688
   80SOPE   C25 7239   2.587   4.822   5.635
   80SOPE   H5R 7240   2.674   4.844   5.701
   80SOPE   H5S 7241   2.573   4.712   5.634
   80SOPE   C26 7242   2.619   4.869   5.492
   80SOPE   H6R 7243   2.687   4.796   5.444
   80SOPE   H6S 7244   2.525   4.871   5.433
   80SOPE   C27 7245   2.686   5.007   5.488
   80SOPE   H7R 7246   2.624   5.079   5.547
   80SOPE   H7S 7247   2.785   5.002   5.538
   80SOPE   C28 7248   2.700   5.064   5.346
   80SOPE   H8R 7249   2.599   5.067   5.300
   80SOPE   H8S 7250   2.733   5.169   5.354
   80SOPE   C29 7251   2.799   4.987   5.262
   80SOPE   H91 7252   2.899   4.977   5.307
   80SOPE  C210 7253   2.778   4.930   5.141
   80SOPE  H101 7254   2.863   4.880   5.092
   80SOPE  C211 7255   2.651   4.930   5.060
   80SOPE  H11R 7256   2.659   5.004   4.978
   80SOPE  H11S 7257   2.564   4.961   5.122
   80SOPE  C212 7258   2.616   4.792   4.998
   80SOPE  H12R 7259   2.518   4.803   4.948
   80SOPE  H12S 7260   2.603   4.718   5.079
   80SOPE  C213 7261   2.717   4.737   4.895
   80SOPE  H13R 7262   2.670   4.650   4.844
   80SOPE  H13S 7263   2.806   4.698   4.949
   80SOPE  C214 7264   2.766   4.836   4.789
   80SOPE  H14R 7265   2.839   4.786   4.722
   80SOPE  H14S 7266   2.820   4.919   4.839
   80SOPE  C215 7267   2.653   4.894   4.703
   80SOPE  H15R 7268   2.574   4.934   4.771
   80SOPE  H15S 7269   2.606   4.815   4.641
   80SOPE  C216 7270   2.698   5.011   4.615
   80SOPE  H16R 7271   2.768   5.077   4.672
   80SOPE  H16S 7272   2.608   5.071   4.588
   80SOPE  C217 7273   2.767   4.973   4.485
   80SOPE  H17R 7274   2.710   4.891   4.438
   80SOPE  H17S 7275   2.869   4.935   4.507
   80SOPE  C218 7276   2.773   5.093   4.389
   80SOPE  H18R 7277   2.835   5.072   4.300
   80SOPE  H18S 7278   2.817   5.181   4.441
   80SOPE  H18T 7279   2.670   5.121   4.356
   80SOPE   C33 7280   2.701   5.583   5.698
   80SOPE   H3X 7281   2.740   5.489   5.654
   80SOPE   H3Y 7282   2.779   5.661   5.690
   80SOPE   C34 7283   2.581   5.629   5.616
   80SOPE   H4X 7284   2.540   5.718   5.669
   80SOPE   H4Y 7285   2.505   5.549   5.617
   80SOPE   C35 7286   2.608   5.672   5.471
   80SOPE   H5X 7287   2.635   5.779   5.467
   80SOPE   H5Y 7288   2.511   5.661   5.417
   80SOPE   C36 7289   2.714   5.591   5.395
   80SOPE   H6X 7290   2.708   5.484   5.423
   80SOPE   H6Y 7291   2.814   5.628   5.428
   80SOPE   C37 7292   2.705   5.605   5.242
   80SOPE   H7X 7293   2.791   5.553   5.197
   80SOPE   H7Y 7294   2.713   5.713   5.215
   80SOPE   C38 7295   2.576   5.547   5.181
   80SOPE   H8X 7296   2.584   5.556   5.070
   80SOPE   H8Y 7297   2.489   5.608   5.212
   80SOPE   C39 7298   2.552   5.401   5.219
   80SOPE   H9X 7299   2.539   5.393   5.329
   80SOPE   H9Y 7300   2.642   5.341   5.192
   80SOPE  C310 7301   2.428   5.338   5.154
   80SOPE  H10X 7302   2.338   5.390   5.194
   80SOPE  H10Y 7303   2.421   5.232   5.185
   80SOPE  C311 7304   2.426   5.343   5.000
   80SOPE  H11X 7305   2.406   5.447   4.965
   80SOPE  H11Y 7306   2.344   5.279   4.964
   80SOPE  C312 7307   2.559   5.295   4.940
   80SOPE  H12X 7308   2.597   5.213   5.004
   80SOPE  H12Y 7309   2.634   5.377   4.944
   80SOPE  C313 7310   2.548   5.242   4.797
   80SOPE  H13X 7311   2.480   5.154   4.796
   80SOPE  H13Y 7312   2.650   5.206   4.772
   80SOPE  C314 7313   2.505   5.341   4.689
   80SOPE  H14X 7314   2.402   5.377   4.713
   80SOPE  H14Y 7315   2.498   5.288   4.592
   80SOPE  C315 7316   2.598   5.463   4.670
   80SOPE  H15X 7317   2.603   5.519   4.766
   80SOPE  H15Y 7318   2.552   5.529   4.594
   80SOPE  C316 7319   2.740   5.429   4.622
   80SOPE  H16X 7320   2.734   5.383   4.521
   80SOPE  H16Y 7321   2.786   5.355   4.691
   80SOPE  C317 7322   2.832   5.553   4.616
   80SOPE  H17X 7323   2.934   5.519   4.589
   80SOPE  H17Y 7324   2.837   5.597   4.718
   80SOPE  C318 7325   2.788   5.661   4.518
   80SOPE  H18X 7326   2.686   5.699   4.543
   80SOPE  H18Y 7327   2.785   5.621   4.414
   80SOPE  H18Z 7328   2.858   5.747   4.520
   81SOPE     N 7329   3.633   6.659   6.595
   81SOPE   HN1 7330   3.656   6.756   6.623
   81SOPE   HN2 7331   3.590   6.665   6.500
   81SOPE   HN3 7332   3.562   6.618   6.659
   81SOPE   C12 7333   3.758   6.574   6.579
   81SOPE  H12A 7334   3.725   6.474   6.542
   81SOPE  H12B 7335   3.804   6.560   6.679
   81SOPE   C11 7336   3.861   6.635   6.480
   81SOPE  H11A 7337   3.931   6.556   6.446
   81SOPE  H11B 7338   3.922   6.709   6.535
   81SOPE     P 7339   3.702   6.626   6.271
   81SOPE   O13 7340   3.568   6.657   6.327
   81SOPE   O14 7341   3.739   6.484   6.266
   81SOPE   O12 7342   3.803   6.702   6.367
   81SOPE   O11 7343   3.725   6.700   6.135
   81SOPE    C1 7344   3.629   6.787   6.072
   81SOPE    HA 7345   3.678   6.886   6.057
   81SOPE    HB 7346   3.538   6.804   6.133
   81SOPE    C2 7347   3.586   6.734   5.933
   81SOPE    HS 7348   3.532   6.638   5.950
   81SOPE   O21 7349   3.707   6.714   5.856
   81SOPE   C21 7350   3.703   6.611   5.774
   81SOPE   O22 7351   3.611   6.532   5.761
   81SOPE   C22 7352   3.835   6.605   5.699
   81SOPE   H2R 7353   3.910   6.568   5.772
   81SOPE   H2S 7354   3.864   6.708   5.668
   81SOPE    C3 7355   3.490   6.832   5.859
   81SOPE    HX 7356   3.532   6.934   5.871
   81SOPE    HY 7357   3.390   6.833   5.909
   81SOPE   O31 7358   3.481   6.805   5.717
   81SOPE   C31 7359   3.389   6.715   5.680
   81SOPE   O32 7360   3.304   6.667   5.752
   81SOPE   C32 7361   3.418   6.673   5.535
   81SOPE   H2X 7362   3.466   6.573   5.541
   81SOPE   H2Y 7363   3.491   6.746   5.492
   81SOPE   C23 7364   3.832   6.507   5.579
   81SOPE   H3R 7365   3.784   6.411   5.608
   81SOPE   H3S 7366   3.937   6.482   5.552
   81SOPE   C24 7367   3.768   6.561   5.451
   81SOPE   H4R 7368   3.792   6.490   5.369
   81SOPE   H4S 7369   3.658   6.562   5.462
   81SOPE   C25 7370   3.814   6.702   5.410
   81SOPE   H5R 7371   3.741   6.776   5.450
   81SOPE   H5S 7372   3.912   6.728   5.456
   81SOPE   C26 7373   3.828   6.717   5.257
   81SOPE   H6R 7374   3.935   6.712   5.230
   81SOPE   H6S 7375   3.776   6.633   5.205
   81SOPE   C27 7376   3.768   6.848   5.207
   81SOPE   H7R 7377   3.810   6.930   5.269
   81SOPE   H7S 7378   3.801   6.864   5.102
   81SOPE   C28 7379   3.614   6.848   5.212
   81SOPE   H8R 7380   3.574   6.775   5.138
   81SOPE   H8S 7381   3.577   6.821   5.313
   81SOPE   C29 7382   3.572   6.986   5.176
   81SOPE   H91 7383   3.658   7.045   5.143
   81SOPE  C210 7384   3.452   7.047   5.177
   81SOPE  H101 7385   3.451   7.153   5.147
   81SOPE  C211 7386   3.316   6.997   5.213
   81SOPE  H11R 7387   3.298   7.008   5.322
   81SOPE  H11S 7388   3.298   6.892   5.182
   81SOPE  C212 7389   3.215   7.083   5.136
   81SOPE  H12R 7390   3.236   7.191   5.151
   81SOPE  H12S 7391   3.115   7.061   5.179
   81SOPE  C213 7392   3.204   7.057   4.985
   81SOPE  H13R 7393   3.097   7.066   4.956
   81SOPE  H13S 7394   3.235   6.951   4.966
   81SOPE  C214 7395   3.286   7.147   4.892
   81SOPE  H14R 7396   3.288   7.251   4.931
   81SOPE  H14S 7397   3.237   7.150   4.792
   81SOPE  C215 7398   3.428   7.091   4.877
   81SOPE  H15R 7399   3.432   6.993   4.928
   81SOPE  H15S 7400   3.499   7.159   4.927
   81SOPE  C216 7401   3.476   7.063   4.735
   81SOPE  H16R 7402   3.524   7.157   4.700
   81SOPE  H16S 7403   3.390   7.043   4.669
   81SOPE  C217 7404   3.571   6.941   4.735
   81SOPE  H17R 7405   3.511   6.854   4.769
   81SOPE  H17S 7406   3.649   6.956   4.812
   81SOPE  C218 7407   3.637   6.906   4.602
   81SOPE  H18R 7408   3.737   6.954   4.593
   81SOPE  H18S 7409   3.575   6.939   4.516
   81SOPE  H18T 7410   3.651   6.796   4.594
   81SOPE   C33 7411   3.295   6.664   5.443
   81SOPE   H3X 7412   3.237   6.758   5.449
   81SOPE   H3Y 7413   3.229   6.582   5.479
   81SOPE   C34 7414   3.330   6.639   5.295
   81SOPE   H4X 7415   3.379   6.730   5.254
   81SOPE   H4Y 7416   3.235   6.624   5.238
   81SOPE   C35 7417   3.427   6.524   5.265
   81SOPE   H5X 7418   3.401   6.438   5.331
   81SOPE   H5Y 7419   3.531   6.554   5.290
   81SOPE   C36 7420   3.424   6.475   5.118
   81SOPE   H6X 7421   3.317   6.468   5.089
   81SOPE   H6Y 7422   3.468   6.373   5.114
   81SOPE   C37 7423   3.497   6.565   5.018
   81SOPE   H7X 7424   3.599   6.587   5.058
   81SOPE   H7Y 7425   3.442   6.661   5.010
   81SOPE   C38 7426   3.517   6.508   4.876
   81SOPE   H8X 7427   3.608   6.445   4.874
   81SOPE   H8Y 7428   3.536   6.594   4.807
   81SOPE   C39 7429   3.401   6.424   4.821
   81SOPE   H9X 7430   3.303   6.468   4.851
   81SOPE   H9Y 7431   3.407   6.324   4.869
   81SOPE  C310 7432   3.401   6.408   4.669
   81SOPE  H10X 7433   3.494   6.454   4.629
   81SOPE  H10Y 7434   3.315   6.463   4.625
   81SOPE  C311 7435   3.393   6.261   4.627
   81SOPE  H11X 7436   3.294   6.222   4.659
   81SOPE  H11Y 7437   3.471   6.203   4.682
   81SOPE  C312 7438   3.410   6.235   4.477
   81SOPE  H12X 7439   3.349   6.306   4.418
   81SOPE  H12Y 7440   3.371   6.133   4.456
   81SOPE  C313 7441   3.557   6.238   4.430
   81SOPE  H13X 7442   3.569   6.163   4.349
   81SOPE  H13Y 7443   3.625   6.209   4.513
   81SOPE  C314 7444   3.598   6.374   4.372
   81SOPE  H14X 7445   3.586   6.455   4.447
   81SOPE  H14Y 7446   3.526   6.394   4.290
   81SOPE  C315 7447   3.741   6.380   4.313
   81SOPE  H15X 7448   3.754   6.476   4.260
   81SOPE  H15Y 7449   3.751   6.300   4.237
   81SOPE  C316 7450   3.855   6.369   4.416
   81SOPE  H16X 7451   3.951   6.375   4.360
   81SOPE  H16Y 7452   3.851   6.269   4.464
   81SOPE  C317 7453   3.856   6.477   4.526
   81SOPE  H17X 7454   3.947   6.462   4.587
   81SOPE  H17Y 7455   3.768   6.462   4.592
   81SOPE  C318 7456   3.855   6.622   4.475
   81SOPE  H18X 7457   3.758   6.645   4.425
   81SOPE  H18Y 7458   3.937   6.638   4.401
   81SOPE  H18Z 7459   3.869   6.693   4.559
   82SOPE     N 7460   7.221   1.442   6.360
   82SOPE   HN1 7461   0.012   1.404   6.340
   82SOPE   HN2 7462   7.153   1.407   6.289
   82SOPE   HN3 7463   7.227   1.546   6.355
   82SOPE   C12 7464   7.182   1.403   6.500
   82SOPE  H12A 7465   7.087   1.455   6.523
   82SOPE  H12B 7466   7.262   1.441   6.567
   82SOPE   C11 7467   7.166   1.250   6.515
   82SOPE  H11A 7468   7.084   1.216   6.448
   82SOPE  H11B 7469   7.135   1.230   6.620
   82SOPE     P 7470   7.290   1.026   6.465
   82SOPE   O13 7471   7.254   0.955   6.590
   82SOPE   O14 7472   0.115   0.987   6.402
   82SOPE   O12 7473   7.290   1.182   6.488
   82SOPE   O11 7474   7.175   1.008   6.360
   82SOPE    C1 7475   7.146   0.883   6.298
   82SOPE    HA 7476   7.036   0.868   6.301
   82SOPE    HB 7477   7.188   0.797   6.354
   82SOPE    C2 7478   7.189   0.878   6.147
   82SOPE    HS 7479   7.299   0.859   6.145
   82SOPE   O21 7480   7.160   1.005   6.085
   82SOPE   C21 7481   7.229   1.033   5.974
   82SOPE   O22 7482   0.020   0.970   5.933
   82SOPE   C22 7483   7.176   1.160   5.908
   82SOPE   H2R 7484   7.259   1.198   5.845
   82SOPE   H2S 7485   7.154   1.233   5.989
   82SOPE    C3 7486   7.115   0.758   6.078
   82SOPE    HX 7487   7.009   0.759   6.111
   82SOPE    HY 7488   7.153   0.662   6.117
   82SOPE   O31 7489   7.114   0.763   5.933
   82SOPE   C31 7490   7.225   0.712   5.880
   82SOPE   O32 7491   0.014   0.666   5.944
   82SOPE   C32 7492   7.217   0.714   5.728
   82SOPE   H2X 7493   7.290   0.790   5.694
   82SOPE   H2Y 7494   7.115   0.744   5.695
   82SOPE   C23 7495   7.049   1.147   5.820
   82SOPE   H3R 7496   7.028   1.245   5.772
   82SOPE   H3S 7497   6.960   1.127   5.882
   82SOPE   C24 7498   7.057   1.044   5.708
   82SOPE   H4R 7499   7.077   0.944   5.752
   82SOPE   H4S 7500   6.957   1.039   5.660
   82SOPE   C25 7501   7.161   1.076   5.599
   82SOPE   H5R 7502   7.144   1.180   5.563
   82SOPE   H5S 7503   7.264   1.069   5.640
   82SOPE   C26 7504   7.143   0.980   5.482
   82SOPE   H6R 7505   7.160   0.875   5.516
   82SOPE   H6S 7506   7.036   0.984   5.452
   82SOPE   C27 7507   7.230   1.010   5.360
   82SOPE   H7R 7508   7.234   1.121   5.347
   82SOPE   H7S 7509   0.032   0.978   5.378
   82SOPE   C28 7510   7.174   0.943   5.233
   82SOPE   H8R 7511   7.196   0.834   5.236
   82SOPE   H8S 7512   7.063   0.951   5.238
   82SOPE   C29 7513   7.223   1.004   5.105
   82SOPE   H91 7514   0.020   1.047   5.108
   82SOPE  C210 7515   7.154   1.007   4.989
   82SOPE  H101 7516   7.199   1.056   4.902
   82SOPE  C211 7517   7.016   0.949   4.965
   82SOPE  H11R 7518   6.942   1.031   4.947
   82SOPE  H11S 7519   6.979   0.890   5.051
   82SOPE  C212 7520   7.018   0.856   4.842
   82SOPE  H12R 7521   7.107   0.789   4.847
   82SOPE  H12S 7522   7.026   0.921   4.751
   82SOPE  C213 7523   6.896   0.767   4.822
   82SOPE  H13R 7524   6.807   0.833   4.819
   82SOPE  H13S 7525   6.887   0.699   4.909
   82SOPE  C214 7526   6.903   0.684   4.692
   82SOPE  H14R 7527   7.007   0.645   4.685
   82SOPE  H14S 7528   6.886   0.750   4.604
   82SOPE  C215 7529   6.807   0.564   4.687
   82SOPE  H15R 7530   6.701   0.595   4.674
   82SOPE  H15S 7531   6.813   0.511   4.784
   82SOPE  C216 7532   6.844   0.463   4.576
   82SOPE  H16R 7533   6.949   0.483   4.546
   82SOPE  H16S 7534   6.780   0.479   4.486
   82SOPE  C217 7535   6.836   0.317   4.622
   82SOPE  H17R 7536   6.731   0.283   4.631
   82SOPE  H17S 7537   6.880   0.309   4.723
   82SOPE  C218 7538   6.914   0.223   4.529
   82SOPE  H18R 7539   6.852   0.193   4.441
   82SOPE  H18S 7540   6.945   0.132   4.585
   82SOPE  H18T 7541   7.006   0.272   4.492
   82SOPE   C33 7542   7.251   0.576   5.672
   82SOPE   H3X 7543   7.159   0.519   5.647
   82SOPE   H3Y 7544   7.298   0.514   5.751
   82SOPE   C34 7545   0.037   0.573   5.548
   82SOPE   H4X 7546   0.031   0.471   5.506
   82SOPE   H4Y 7547   0.144   0.589   5.575
   82SOPE   C35 7548   0.006   0.674   5.439
   82SOPE   H5X 7549   0.038   0.774   5.475
   82SOPE   H5Y 7550   7.200   0.679   5.419
   82SOPE   C36 7551   0.087   0.646   5.311
   82SOPE   H6X 7552   0.190   0.650   5.351
   82SOPE   H6Y 7553   0.073   0.727   5.237
   82SOPE   C37 7554   0.076   0.508   5.246
   82SOPE   H7X 7555   7.274   0.485   5.218
   82SOPE   H7Y 7556   0.109   0.431   5.319
   82SOPE   C38 7557   0.162   0.487   5.120
   82SOPE   H8X 7558   0.146   0.383   5.085
   82SOPE   H8Y 7559   0.269   0.497   5.147
   82SOPE   C39 7560   0.129   0.582   5.004
   82SOPE   H9X 7561   0.149   0.688   5.034
   82SOPE   H9Y 7562   0.021   0.576   4.980
   82SOPE  C310 7563   0.213   0.547   4.881
   82SOPE  H10X 7564   0.195   0.441   4.855
   82SOPE  H10Y 7565   0.320   0.553   4.911
   82SOPE  C311 7566   0.190   0.629   4.753
   82SOPE  H11X 7567   0.120   0.573   4.688
   82SOPE  H11Y 7568   0.285   0.637   4.697
   82SOPE  C312 7569   0.132   0.770   4.774
   82SOPE  H12X 7570   0.203   0.834   4.829
   82SOPE  H12Y 7571   0.039   0.761   4.835
   82SOPE  C313 7572   0.094   0.834   4.640
   82SOPE  H13X 7573   0.042   0.757   4.578
   82SOPE  H13Y 7574   0.186   0.865   4.586
   82SOPE  C314 7575   7.303   0.953   4.659
   82SOPE  H14X 7576   0.052   1.037   4.708
   82SOPE  H14Y 7577   7.227   0.920   4.734
   82SOPE  C315 7578   7.226   1.002   4.534
   82SOPE  H15X 7579   7.296   1.031   4.453
   82SOPE  H15Y 7580   7.171   1.094   4.564
   82SOPE  C316 7581   7.124   0.901   4.479
   82SOPE  H16X 7582   7.034   0.956   4.444
   82SOPE  H16Y 7583   7.092   0.834   4.561
   82SOPE  C317 7584   7.177   0.816   4.362
   82SOPE  H17X 7585   7.139   0.712   4.375
   82SOPE  H17Y 7586   7.288   0.812   4.367
   82SOPE  C318 7587   7.132   0.867   4.225
   82SOPE  H18X 7588   7.172   0.801   4.145
   82SOPE  H18Y 7589   7.169   0.970   4.208
   82SOPE  H18Z 7590   7.021   0.867   4.218
   83SOPE     N 7591   3.663   4.746   2.282
   83SOPE   HN1 7592   3.685   4.846   2.264
   83SOPE   HN2 7593   3.649   4.727   2.384
   83SOPE   HN3 7594   3.738   4.683   2.247
   83SOPE   C12 7595   3.543   4.704   2.201
   83SOPE  H12A 7596   3.550   4.759   2.105
   83SOPE  H12B 7597   3.450   4.736   2.254
   83SOPE   C11 7598   3.546   4.553   2.173
   83SOPE  H11A 7599   3.496   4.535   2.076
   83SOPE  H11B 7600   3.487   4.499   2.250
   83SOPE     P 7601   3.740   4.396   2.080
   83SOPE   O13 7602   3.874   4.444   2.043
   83SOPE   O14 7603   3.645   4.371   1.969
   83SOPE   O12 7604   3.681   4.506   2.177
   83SOPE   O11 7605   3.753   4.266   2.171
   83SOPE    C1 7606   3.643   4.210   2.244
   83SOPE    HA 7607   3.643   4.100   2.231
   83SOPE    HB 7608   3.544   4.246   2.208
   83SOPE    C2 7609   3.653   4.233   2.398
   83SOPE    HS 7610   3.590   4.154   2.445
   83SOPE   O21 7611   3.597   4.363   2.423
   83SOPE   C21 7612   3.548   4.381   2.544
   83SOPE   O22 7613   3.566   4.311   2.641
   83SOPE   C22 7614   3.464   4.508   2.541
   83SOPE   H2R 7615   3.362   4.479   2.508
   83SOPE   H2S 7616   3.507   4.580   2.467
   83SOPE    C3 7617   3.799   4.216   2.451
   83SOPE    HX 7618   3.859   4.301   2.413
   83SOPE    HY 7619   3.839   4.124   2.402
   83SOPE   O31 7620   3.807   4.197   2.594
   83SOPE   C31 7621   3.851   4.299   2.667
   83SOPE   O32 7622   3.907   4.398   2.623
   83SOPE   C32 7623   3.810   4.280   2.814
   83SOPE   H2X 7624   3.740   4.194   2.818
   83SOPE   H2Y 7625   3.752   4.370   2.844
   83SOPE   C23 7626   3.457   4.572   2.681
   83SOPE   H3R 7627   3.421   4.495   2.753
   83SOPE   H3S 7628   3.379   4.651   2.675
   83SOPE   C24 7629   3.591   4.631   2.726
   83SOPE   H4R 7630   3.668   4.551   2.722
   83SOPE   H4S 7631   3.623   4.711   2.656
   83SOPE   C25 7632   3.593   4.686   2.870
   83SOPE   H5R 7633   3.699   4.699   2.900
   83SOPE   H5S 7634   3.547   4.787   2.874
   83SOPE   C26 7635   3.522   4.596   2.972
   83SOPE   H6R 7636   3.413   4.592   2.953
   83SOPE   H6S 7637   3.563   4.493   2.960
   83SOPE   C27 7638   3.546   4.644   3.116
   83SOPE   H7R 7639   3.656   4.657   3.127
   83SOPE   H7S 7640   3.500   4.744   3.129
   83SOPE   C28 7641   3.494   4.549   3.226
   83SOPE   H8R 7642   3.511   4.598   3.324
   83SOPE   H8S 7643   3.384   4.541   3.214
   83SOPE   C29 7644   3.556   4.412   3.223
   83SOPE   H91 7645   3.504   4.340   3.158
   83SOPE  C210 7646   3.667   4.372   3.287
   83SOPE  H101 7647   3.704   4.270   3.269
   83SOPE  C211 7648   3.756   4.455   3.377
   83SOPE  H11R 7649   3.714   4.557   3.391
   83SOPE  H11S 7650   3.854   4.464   3.327
   83SOPE  C212 7651   3.790   4.403   3.518
   83SOPE  H12R 7652   3.868   4.468   3.563
   83SOPE  H12S 7653   3.836   4.302   3.506
   83SOPE  C213 7654   3.670   4.398   3.614
   83SOPE  H13R 7655   3.697   4.329   3.697
   83SOPE  H13S 7656   3.581   4.357   3.562
   83SOPE  C214 7657   3.634   4.531   3.679
   83SOPE  H14R 7658   3.606   4.602   3.599
   83SOPE  H14S 7659   3.724   4.567   3.733
   83SOPE  C215 7660   3.518   4.516   3.779
   83SOPE  H15R 7661   3.514   4.410   3.810
   83SOPE  H15S 7662   3.422   4.539   3.728
   83SOPE  C216 7663   3.532   4.594   3.911
   83SOPE  H16R 7664   3.538   4.703   3.891
   83SOPE  H16S 7665   3.627   4.563   3.960
   83SOPE  C217 7666   3.413   4.562   4.003
   83SOPE  H17R 7667   3.368   4.466   3.969
   83SOPE  H17S 7668   3.337   4.641   3.984
   83SOPE  C218 7669   3.437   4.553   4.154
   83SOPE  H18R 7670   3.533   4.502   4.176
   83SOPE  H18S 7671   3.355   4.495   4.201
   83SOPE  H18T 7672   3.437   4.654   4.200
   83SOPE   C33 7673   3.925   4.256   2.914
   83SOPE   H3X 7674   3.990   4.175   2.875
   83SOPE   H3Y 7675   3.882   4.221   3.010
   83SOPE   C34 7676   4.012   4.380   2.945
   83SOPE   H4X 7677   4.056   4.419   2.851
   83SOPE   H4Y 7678   4.096   4.346   3.010
   83SOPE   C35 7679   3.940   4.495   3.018
   83SOPE   H5X 7680   3.876   4.454   3.099
   83SOPE   H5Y 7681   3.873   4.547   2.946
   83SOPE   C36 7682   4.040   4.596   3.077
   83SOPE   H6X 7683   4.116   4.618   2.999
   83SOPE   H6Y 7684   4.094   4.548   3.162
   83SOPE   C37 7685   3.980   4.729   3.124
   83SOPE   H7X 7686   3.920   4.773   3.041
   83SOPE   H7Y 7687   4.064   4.798   3.147
   83SOPE   C38 7688   3.894   4.721   3.250
   83SOPE   H8X 7689   3.958   4.691   3.336
   83SOPE   H8Y 7690   3.820   4.640   3.231
   83SOPE   C39 7691   3.815   4.849   3.284
   83SOPE   H9X 7692   3.749   4.874   3.198
   83SOPE   H9Y 7693   3.886   4.933   3.297
   83SOPE  C310 7694   3.730   4.842   3.412
   83SOPE  H10X 7695   3.648   4.768   3.399
   83SOPE  H10Y 7696   3.682   4.941   3.427
   83SOPE  C311 7697   3.812   4.807   3.537
   83SOPE  H11X 7698   3.906   4.865   3.539
   83SOPE  H11Y 7699   3.840   4.700   3.531
   83SOPE  C312 7700   3.738   4.831   3.670
   83SOPE  H12X 7701   3.789   4.771   3.748
   83SOPE  H12Y 7702   3.633   4.794   3.660
   83SOPE  C313 7703   3.731   4.976   3.717
   83SOPE  H13X 7704   3.694   5.036   3.631
   83SOPE  H13Y 7705   3.833   5.013   3.742
   83SOPE  C314 7706   3.637   4.991   3.837
   83SOPE  H14X 7707   3.540   4.944   3.814
   83SOPE  H14Y 7708   3.618   5.099   3.857
   83SOPE  C315 7709   3.696   4.928   3.963
   83SOPE  H15X 7710   3.787   4.985   3.993
   83SOPE  H15Y 7711   3.729   4.824   3.940
   83SOPE  C316 7712   3.599   4.918   4.082
   83SOPE  H16X 7713   3.500   4.883   4.046
   83SOPE  H16Y 7714   3.585   5.018   4.126
   83SOPE  C317 7715   3.650   4.819   4.188
   83SOPE  H17X 7716   3.635   4.716   4.149
   83SOPE  H17Y 7717   3.589   4.830   4.280
   83SOPE  C318 7718   3.799   4.831   4.221
   83SOPE  H18X 7719   3.859   4.769   4.151
   83SOPE  H18Y 7720   3.818   4.797   4.325
   83SOPE  H18Z 7721   3.832   4.936   4.210
   84SOPE     N 7722   2.120   4.271   2.056
   84SOPE   HN1 7723   2.123   4.252   1.954
   84SOPE   HN2 7724   2.030   4.314   2.083
   84SOPE   HN3 7725   2.200   4.334   2.077
   84SOPE   C12 7726   2.133   4.143   2.133
   84SOPE  H12A 7727   2.133   4.060   2.059
   84SOPE  H12B 7728   2.045   4.133   2.199
   84SOPE   C11 7729   2.261   4.144   2.217
   84SOPE  H11A 7730   2.256   4.060   2.290
   84SOPE  H11B 7731   2.266   4.237   2.278
   84SOPE     P 7732   2.448   3.999   2.107
   84SOPE   O13 7733   2.567   4.023   2.022
   84SOPE   O14 7734   2.344   3.906   2.055
   84SOPE   O12 7735   2.376   4.138   2.132
   84SOPE   O11 7736   2.490   3.957   2.253
   84SOPE    C1 7737   2.543   4.054   2.343
   84SOPE    HA 7738   2.466   4.129   2.373
   84SOPE    HB 7739   2.629   4.108   2.298
   84SOPE    C2 7740   2.594   3.991   2.476
   84SOPE    HS 7741   2.680   3.926   2.447
   84SOPE   O21 7742   2.490   3.914   2.541
   84SOPE   C21 7743   2.541   3.834   2.634
   84SOPE   O22 7744   2.659   3.820   2.659
   84SOPE   C22 7745   2.430   3.771   2.719
   84SOPE   H2R 7746   2.403   3.675   2.670
   84SOPE   H2S 7747   2.342   3.839   2.721
   84SOPE    C3 7748   2.646   4.105   2.570
   84SOPE    HX 7749   2.718   4.168   2.514
   84SOPE    HY 7750   2.701   4.058   2.654
   84SOPE   O31 7751   2.534   4.186   2.613
   84SOPE   C31 7752   2.533   4.216   2.742
   84SOPE   O32 7753   2.628   4.214   2.818
   84SOPE   C32 7754   2.388   4.239   2.784
   84SOPE   H2X 7755   2.322   4.236   2.695
   84SOPE   H2Y 7756   2.381   4.339   2.832
   84SOPE   C23 7757   2.483   3.744   2.863
   84SOPE   H3R 7758   2.512   3.839   2.913
   84SOPE   H3S 7759   2.576   3.684   2.854
   84SOPE   C24 7760   2.387   3.663   2.951
   84SOPE   H4R 7761   2.347   3.581   2.887
   84SOPE   H4S 7762   2.447   3.615   3.032
   84SOPE   C25 7763   2.271   3.740   3.015
   84SOPE   H5R 7764   2.214   3.792   2.935
   84SOPE   H5S 7765   2.203   3.668   3.064
   84SOPE   C26 7766   2.314   3.844   3.121
   84SOPE   H6R 7767   2.378   3.921   3.074
   84SOPE   H6S 7768   2.222   3.893   3.159
   84SOPE   C27 7769   2.388   3.788   3.243
   84SOPE   H7R 7770   2.327   3.706   3.286
   84SOPE   H7S 7771   2.486   3.747   3.210
   84SOPE   C28 7772   2.408   3.897   3.350
   84SOPE   H8R 7773   2.438   3.991   3.299
   84SOPE   H8S 7774   2.310   3.916   3.399
   84SOPE   C29 7775   2.514   3.862   3.450
   84SOPE   H91 7776   2.613   3.908   3.431
   84SOPE  C210 7777   2.501   3.791   3.562
   84SOPE  H101 7778   2.592   3.771   3.622
   84SOPE  C211 7779   2.376   3.728   3.616
   84SOPE  H11R 7780   2.382   3.617   3.612
   84SOPE  H11S 7781   2.286   3.758   3.559
   84SOPE  C212 7782   2.359   3.769   3.763
   84SOPE  H12R 7783   2.263   3.726   3.800
   84SOPE  H12S 7784   2.351   3.879   3.771
   84SOPE  C213 7785   2.475   3.722   3.853
   84SOPE  H13R 7786   2.566   3.780   3.827
   84SOPE  H13S 7787   2.495   3.615   3.831
   84SOPE  C214 7788   2.450   3.744   4.003
   84SOPE  H14R 7789   2.423   3.850   4.018
   84SOPE  H14S 7790   2.545   3.724   4.057
   84SOPE  C215 7791   2.341   3.655   4.063
   84SOPE  H15R 7792   2.382   3.555   4.089
   84SOPE  H15S 7793   2.260   3.639   3.989
   84SOPE  C216 7794   2.282   3.718   4.189
   84SOPE  H16R 7795   2.243   3.819   4.162
   84SOPE  H16S 7796   2.362   3.734   4.264
   84SOPE  C217 7797   2.167   3.638   4.251
   84SOPE  H17R 7798   2.134   3.690   4.343
   84SOPE  H17S 7799   2.203   3.537   4.280
   84SOPE  C218 7800   2.049   3.626   4.156
   84SOPE  H18R 7801   1.958   3.596   4.213
   84SOPE  H18S 7802   2.068   3.551   4.077
   84SOPE  H18T 7803   2.027   3.724   4.107
   84SOPE   C33 7804   2.348   4.127   2.883
   84SOPE   H3X 7805   2.407   4.138   2.976
   84SOPE   H3Y 7806   2.377   4.030   2.838
   84SOPE   C34 7807   2.193   4.125   2.916
   84SOPE   H4X 7808   2.220   4.024   2.954
   84SOPE   H4Y 7809   2.213   4.232   2.938
   84SOPE   C35 7810   2.126   4.134   3.059
   84SOPE   H5X 7811   2.084   4.036   3.090
   84SOPE   H5Y 7812   2.037   4.200   3.052
   84SOPE   C36 7813   2.216   4.185   3.172
   84SOPE   H6X 7814   2.238   4.293   3.157
   84SOPE   H6Y 7815   2.313   4.130   3.171
   84SOPE   C37 7816   2.151   4.163   3.309
   84SOPE   H7X 7817   2.128   4.054   3.317
   84SOPE   H7Y 7818   2.055   4.218   3.315
   84SOPE   C38 7819   2.238   4.199   3.428
   84SOPE   H8X 7820   2.240   4.309   3.442
   84SOPE   H8Y 7821   2.343   4.165   3.411
   84SOPE   C39 7822   2.185   4.136   3.557
   84SOPE   H9X 7823   2.172   4.027   3.542
   84SOPE   H9Y 7824   2.085   4.179   3.579
   84SOPE  C310 7825   2.280   4.157   3.675
   84SOPE  H10X 7826   2.303   4.265   3.689
   84SOPE  H10Y 7827   2.375   4.104   3.653
   84SOPE  C311 7828   2.219   4.099   3.802
   84SOPE  H11X 7829   2.300   4.081   3.877
   84SOPE  H11Y 7830   2.174   4.001   3.778
   84SOPE  C312 7831   2.110   4.187   3.865
   84SOPE  H12X 7832   2.043   4.227   3.786
   84SOPE  H12Y 7833   2.157   4.274   3.916
   84SOPE  C313 7834   2.026   4.104   3.962
   84SOPE  H13X 7835   1.974   4.026   3.902
   84SOPE  H13Y 7836   1.949   4.168   4.011
   84SOPE  C314 7837   2.106   4.034   4.072
   84SOPE  H14X 7838   2.163   3.950   4.027
   84SOPE  H14Y 7839   2.035   3.991   4.146
   84SOPE  C315 7840   2.199   4.130   4.144
   84SOPE  H15X 7841   2.150   4.230   4.144
   84SOPE  H15Y 7842   2.295   4.139   4.088
   84SOPE  C316 7843   2.228   4.091   4.288
   84SOPE  H16X 7844   2.272   3.989   4.292
   84SOPE  H16Y 7845   2.132   4.088   4.345
   84SOPE  C317 7846   2.324   4.190   4.354
   84SOPE  H17X 7847   2.422   4.180   4.301
   84SOPE  H17Y 7848   2.339   4.160   4.460
   84SOPE  C318 7849   2.285   4.338   4.347
   84SOPE  H18X 7850   2.296   4.376   4.243
   84SOPE  H18Y 7851   2.351   4.399   4.412
   84SOPE  H18Z 7852   2.179   4.353   4.378
   85SOPE     N 7853   5.198   4.925   2.158
   85SOPE   HN1 7854   5.234   4.886   2.069
   85SOPE   HN2 7855   5.149   5.015   2.138
   85SOPE   HN3 7856   5.278   4.941   2.222
   85SOPE   C12 7857   5.094   4.829   2.210
   85SOPE  H12A 7858   5.061   4.864   2.310
   85SOPE  H12B 7859   5.142   4.730   2.218
   85SOPE   C11 7860   4.973   4.821   2.115
   85SOPE  H11A 7861   4.917   4.727   2.138
   85SOPE  H11B 7862   5.004   4.812   2.009
   85SOPE     P 7863   4.898   5.067   2.060
   85SOPE   O13 7864   4.881   5.047   1.915
   85SOPE   O14 7865   5.028   5.125   2.101
   85SOPE   O12 7866   4.884   4.930   2.136
   85SOPE   O11 7867   4.777   5.154   2.113
   85SOPE    C1 7868   4.676   5.100   2.199
   85SOPE    HA 7869   4.663   4.990   2.185
   85SOPE    HB 7870   4.578   5.145   2.173
   85SOPE    C2 7871   4.698   5.127   2.351
   85SOPE    HS 7872   4.656   5.227   2.374
   85SOPE   O21 7873   4.837   5.120   2.388
   85SOPE   C21 7874   4.904   5.233   2.381
   85SOPE   O22 7875   4.862   5.340   2.342
   85SOPE   C22 7876   5.044   5.211   2.439
   85SOPE   H2R 7877   5.081   5.310   2.473
   85SOPE   H2S 7878   5.110   5.173   2.358
   85SOPE    C3 7879   4.619   5.024   2.438
   85SOPE    HX 7880   4.513   5.030   2.406
   85SOPE    HY 7881   4.623   5.054   2.544
   85SOPE   O31 7882   4.664   4.888   2.415
   85SOPE   C31 7883   4.753   4.841   2.501
   85SOPE   O32 7884   4.789   4.895   2.604
   85SOPE   C32 7885   4.805   4.707   2.449
   85SOPE   H2X 7886   4.844   4.726   2.346
   85SOPE   H2Y 7887   4.719   4.637   2.441
   85SOPE   C23 7888   5.042   5.113   2.559
   85SOPE   H3R 7889   5.019   5.009   2.525
   85SOPE   H3S 7890   4.961   5.143   2.629
   85SOPE   C24 7891   5.173   5.114   2.638
   85SOPE   H4R 7892   5.255   5.068   2.579
   85SOPE   H4S 7893   5.201   5.219   2.659
   85SOPE   C25 7894   5.157   5.038   2.770
   85SOPE   H5R 7895   5.069   5.077   2.826
   85SOPE   H5S 7896   5.138   4.931   2.748
   85SOPE   C26 7897   5.281   5.049   2.861
   85SOPE   H6R 7898   5.271   4.976   2.943
   85SOPE   H6S 7899   5.371   5.021   2.802
   85SOPE   C27 7900   5.299   5.190   2.919
   85SOPE   H7R 7901   5.402   5.225   2.900
   85SOPE   H7S 7902   5.231   5.261   2.866
   85SOPE   C28 7903   5.266   5.198   3.069
   85SOPE   H8R 7904   5.262   5.305   3.098
   85SOPE   H8S 7905   5.165   5.155   3.086
   85SOPE   C29 7906   5.372   5.127   3.149
   85SOPE   H91 7907   5.468   5.113   3.097
   85SOPE  C210 7908   5.357   5.070   3.270
   85SOPE  H101 7909   5.444   5.023   3.317
   85SOPE  C211 7910   5.231   5.066   3.351
   85SOPE  H11R 7911   5.205   4.959   3.369
   85SOPE  H11S 7912   5.144   5.112   3.299
   85SOPE  C212 7913   5.249   5.133   3.487
   85SOPE  H12R 7914   5.251   5.244   3.473
   85SOPE  H12S 7915   5.344   5.103   3.534
   85SOPE  C213 7916   5.135   5.098   3.583
   85SOPE  H13R 7917   5.145   4.990   3.609
   85SOPE  H13S 7918   5.037   5.111   3.533
   85SOPE  C214 7919   5.141   5.182   3.709
   85SOPE  H14R 7920   5.089   5.278   3.691
   85SOPE  H14S 7921   5.247   5.206   3.733
   85SOPE  C215 7922   5.080   5.109   3.829
   85SOPE  H15R 7923   5.142   5.019   3.852
   85SOPE  H15S 7924   4.979   5.074   3.800
   85SOPE  C216 7925   5.069   5.199   3.952
   85SOPE  H16R 7926   4.979   5.172   4.011
   85SOPE  H16S 7927   5.055   5.302   3.913
   85SOPE  C217 7928   5.192   5.199   4.044
   85SOPE  H17R 7929   5.273   5.139   3.997
   85SOPE  H17S 7930   5.166   5.149   4.140
   85SOPE  C218 7931   5.244   5.340   4.073
   85SOPE  H18R 7932   5.165   5.400   4.123
   85SOPE  H18S 7933   5.272   5.391   3.978
   85SOPE  H18T 7934   5.333   5.336   4.139
   85SOPE   C33 7935   4.916   4.646   2.537
   85SOPE   H3X 7936   4.985   4.726   2.572
   85SOPE   H3Y 7937   4.975   4.574   2.476
   85SOPE   C34 7938   4.858   4.569   2.657
   85SOPE   H4X 7939   4.804   4.480   2.619
   85SOPE   H4Y 7940   4.783   4.633   2.708
   85SOPE   C35 7941   4.962   4.525   2.762
   85SOPE   H5X 7942   5.042   4.467   2.712
   85SOPE   H5Y 7943   4.911   4.459   2.835
   85SOPE   C36 7944   5.024   4.641   2.842
   85SOPE   H6X 7945   5.069   4.715   2.772
   85SOPE   H6Y 7946   5.105   4.601   2.906
   85SOPE   C37 7947   4.924   4.716   2.931
   85SOPE   H7X 7948   4.865   4.642   2.989
   85SOPE   H7Y 7949   4.853   4.769   2.864
   85SOPE   C38 7950   4.988   4.820   3.025
   85SOPE   H8X 7951   4.907   4.883   3.067
   85SOPE   H8Y 7952   5.053   4.887   2.964
   85SOPE   C39 7953   5.069   4.764   3.142
   85SOPE   H9X 7954   5.108   4.850   3.201
   85SOPE   H9Y 7955   5.156   4.707   3.102
   85SOPE  C310 7956   4.988   4.672   3.234
   85SOPE  H10X 7957   4.967   4.579   3.176
   85SOPE  H10Y 7958   4.892   4.722   3.258
   85SOPE  C311 7959   5.051   4.630   3.366
   85SOPE  H11X 7960   5.158   4.601   3.352
   85SOPE  H11Y 7961   4.996   4.538   3.396
   85SOPE  C312 7962   5.034   4.727   3.485
   85SOPE  H12X 7963   4.931   4.768   3.485
   85SOPE  H12Y 7964   5.105   4.812   3.474
   85SOPE  C313 7965   5.059   4.651   3.616
   85SOPE  H13X 7966   5.158   4.602   3.609
   85SOPE  H13Y 7967   4.981   4.572   3.622
   85SOPE  C314 7968   5.052   4.728   3.748
   85SOPE  H14X 7969   4.952   4.774   3.758
   85SOPE  H14Y 7970   5.129   4.808   3.749
   85SOPE  C315 7971   5.077   4.630   3.864
   85SOPE  H15X 7972   5.186   4.609   3.870
   85SOPE  H15Y 7973   5.027   4.534   3.842
   85SOPE  C316 7974   5.026   4.678   4.001
   85SOPE  H16X 7975   5.065   4.611   4.080
   85SOPE  H16Y 7976   4.915   4.670   4.001
   85SOPE  C317 7977   5.062   4.823   4.035
   85SOPE  H17X 7978   5.013   4.888   3.959
   85SOPE  H17Y 7979   5.172   4.837   4.026
   85SOPE  C318 7980   5.014   4.867   4.173
   85SOPE  H18X 7981   4.904   4.857   4.181
   85SOPE  H18Y 7982   5.040   4.973   4.191
   85SOPE  H18Z 7983   5.061   4.805   4.252
   86SOPE     N 7984   5.496   0.928   1.936
   86SOPE   HN1 7985   5.560   0.996   1.890
   86SOPE   HN2 7986   5.504   0.837   1.885
   86SOPE   HN3 7987   5.399   0.965   1.925
   86SOPE   C12 7988   5.532   0.923   2.082
   86SOPE  H12A 7989   5.614   0.850   2.096
   86SOPE  H12B 7990   5.442   0.890   2.138
   86SOPE   C11 7991   5.574   1.064   2.127
   86SOPE  H11A 7992   5.676   1.085   2.090
   86SOPE  H11B 7993   5.580   1.066   2.238
   86SOPE     P 7994   5.372   1.226   2.163
   86SOPE   O13 7995   5.310   1.115   2.239
   86SOPE   O14 7996   5.286   1.306   2.074
   86SOPE   O12 7997   5.486   1.162   2.074
   86SOPE   O11 7998   5.456   1.320   2.258
   86SOPE    C1 7999   5.545   1.415   2.196
   86SOPE    HA 8000   5.488   1.485   2.130
   86SOPE    HB 8001   5.620   1.364   2.133
   86SOPE    C2 8002   5.621   1.504   2.300
   86SOPE    HS 8003   5.705   1.555   2.248
   86SOPE   O21 8004   5.672   1.430   2.413
   86SOPE   C21 8005   5.723   1.311   2.403
   86SOPE   O22 8006   5.752   1.249   2.302
   86SOPE   C22 8007   5.765   1.264   2.542
   86SOPE   H2R 8008   5.809   1.350   2.597
   86SOPE   H2S 8009   5.843   1.186   2.529
   86SOPE    C3 8010   5.528   1.616   2.356
   86SOPE    HX 8011   5.505   1.685   2.272
   86SOPE    HY 8012   5.582   1.675   2.433
   86SOPE   O31 8013   5.403   1.560   2.404
   86SOPE   C31 8014   5.411   1.507   2.527
   86SOPE   O32 8015   5.493   1.537   2.611
   86SOPE   C32 8016   5.305   1.397   2.540
   86SOPE   H2X 8017   5.340   1.313   2.476
   86SOPE   H2Y 8018   5.209   1.435   2.499
   86SOPE   C23 8019   5.648   1.206   2.623
   86SOPE   H3R 8020   5.598   1.124   2.566
   86SOPE   H3S 8021   5.573   1.286   2.641
   86SOPE   C24 8022   5.695   1.151   2.758
   86SOPE   H4R 8023   5.770   1.071   2.743
   86SOPE   H4S 8024   5.743   1.234   2.814
   86SOPE   C25 8025   5.578   1.097   2.840
   86SOPE   H5R 8026   5.501   1.177   2.847
   86SOPE   H5S 8027   5.532   1.010   2.789
   86SOPE   C26 8028   5.620   1.059   2.983
   86SOPE   H6R 8029   5.689   0.971   2.981
   86SOPE   H6S 8030   5.676   1.144   3.025
   86SOPE   C27 8031   5.498   1.028   3.071
   86SOPE   H7R 8032   5.423   1.109   3.060
   86SOPE   H7S 8033   5.450   0.934   3.036
   86SOPE   C28 8034   5.532   1.013   3.221
   86SOPE   H8R 8035   5.439   0.988   3.275
   86SOPE   H8S 8036   5.601   0.926   3.232
   86SOPE   C29 8037   5.591   1.140   3.277
   86SOPE   H91 8038   5.533   1.231   3.256
   86SOPE  C210 8039   5.704   1.150   3.349
   86SOPE  H101 8040   5.736   1.248   3.387
   86SOPE  C211 8041   5.794   1.035   3.386
   86SOPE  H11R 8042   5.893   1.072   3.419
   86SOPE  H11S 8043   5.812   0.969   3.298
   86SOPE  C212 8044   5.734   0.950   3.499
   86SOPE  H12R 8045   5.804   0.867   3.520
   86SOPE  H12S 8046   5.637   0.904   3.468
   86SOPE  C213 8047   5.711   1.029   3.629
   86SOPE  H13R 8048   5.627   1.101   3.617
   86SOPE  H13S 8049   5.803   1.089   3.647
   86SOPE  C214 8050   5.686   0.938   3.749
   86SOPE  H14R 8051   5.744   0.844   3.734
   86SOPE  H14S 8052   5.578   0.909   3.755
   86SOPE  C215 8053   5.732   1.000   3.881
   86SOPE  H15R 8054   5.657   1.072   3.920
   86SOPE  H15S 8055   5.825   1.058   3.862
   86SOPE  C216 8056   5.768   0.894   3.987
   86SOPE  H16R 8057   5.816   0.945   4.073
   86SOPE  H16S 8058   5.843   0.824   3.944
   86SOPE  C217 8059   5.649   0.814   4.040
   86SOPE  H17R 8060   5.687   0.739   4.113
   86SOPE  H17S 8061   5.602   0.757   3.956
   86SOPE  C218 8062   5.543   0.901   4.107
   86SOPE  H18R 8063   5.488   0.961   4.033
   86SOPE  H18S 8064   5.590   0.970   4.181
   86SOPE  H18T 8065   5.471   0.836   4.161
   86SOPE   C33 8066   5.286   1.345   2.684
   86SOPE   H3X 8067   5.381   1.353   2.741
   86SOPE   H3Y 8068   5.260   1.237   2.680
   86SOPE   C34 8069   5.172   1.417   2.756
   86SOPE   H4X 8070   5.077   1.398   2.703
   86SOPE   H4Y 8071   5.190   1.527   2.753
   86SOPE   C35 8072   5.157   1.376   2.903
   86SOPE   H5X 8073   5.125   1.270   2.911
   86SOPE   H5Y 8074   5.076   1.438   2.948
   86SOPE   C36 8075   5.286   1.396   2.984
   86SOPE   H6X 8076   5.348   1.472   2.933
   86SOPE   H6Y 8077   5.345   1.302   2.987
   86SOPE   C37 8078   5.260   1.447   3.126
   86SOPE   H7X 8079   5.199   1.539   3.119
   86SOPE   H7Y 8080   5.357   1.472   3.174
   86SOPE   C38 8081   5.186   1.347   3.215
   86SOPE   H8X 8082   5.240   1.250   3.211
   86SOPE   H8Y 8083   5.083   1.330   3.174
   86SOPE   C39 8084   5.175   1.394   3.361
   86SOPE   H9X 8085   5.129   1.495   3.363
   86SOPE   H9Y 8086   5.277   1.402   3.404
   86SOPE  C310 8087   5.090   1.300   3.448
   86SOPE  H10X 8088   4.985   1.304   3.412
   86SOPE  H10Y 8089   5.089   1.337   3.553
   86SOPE  C311 8090   5.135   1.153   3.445
   86SOPE  H11X 8091   5.134   1.116   3.341
   86SOPE  H11Y 8092   5.059   1.093   3.499
   86SOPE  C312 8093   5.275   1.127   3.506
   86SOPE  H12X 8094   5.351   1.180   3.444
   86SOPE  H12Y 8095   5.297   1.019   3.500
   86SOPE  C313 8096   5.292   1.173   3.652
   86SOPE  H13X 8097   5.278   1.283   3.656
   86SOPE  H13Y 8098   5.395   1.152   3.687
   86SOPE  C314 8099   5.192   1.107   3.749
   86SOPE  H14X 8100   5.224   1.003   3.771
   86SOPE  H14Y 8101   5.094   1.101   3.698
   86SOPE  C315 8102   5.167   1.185   3.879
   86SOPE  H15X 8103   5.185   1.292   3.857
   86SOPE  H15Y 8104   5.238   1.155   3.959
   86SOPE  C316 8105   5.020   1.173   3.926
   86SOPE  H16X 8106   4.953   1.165   3.838
   86SOPE  H16Y 8107   4.994   1.267   3.978
   86SOPE  C317 8108   4.991   1.058   4.023
   86SOPE  H17X 8109   4.880   1.050   4.034
   86SOPE  H17Y 8110   5.030   1.089   4.123
   86SOPE  C318 8111   5.048   0.921   3.986
   86SOPE  H18X 8112   5.010   0.886   3.888
   86SOPE  H18Y 8113   5.021   0.845   4.063
   86SOPE  H18Z 8114   5.159   0.924   3.980
   87SOPE     N 8115   6.061   0.670   1.935
   87SOPE   HN1 8116   6.114   0.583   1.912
   87SOPE   HN2 8117   5.974   0.671   1.878
   87SOPE   HN3 8118   6.120   0.751   1.907
   87SOPE   C12 8119   6.038   0.680   2.083
   87SOPE  H12A 8120   5.975   0.593   2.114
   87SOPE  H12B 8121   5.984   0.774   2.103
   87SOPE   C11 8122   6.174   0.679   2.153
   87SOPE  H11A 8123   6.222   0.581   2.134
   87SOPE  H11B 8124   6.160   0.688   2.263
   87SOPE     P 8125   6.290   0.917   2.172
   87SOPE   O13 8126   6.230   0.919   2.307
   87SOPE   O14 8127   6.248   1.025   2.082
   87SOPE   O12 8128   6.257   0.781   2.099
   87SOPE   O11 8129   6.447   0.923   2.182
   87SOPE    C1 8130   6.532   0.814   2.146
   87SOPE    HA 8131   6.617   0.853   2.086
   87SOPE    HB 8132   6.482   0.737   2.083
   87SOPE    C2 8133   6.591   0.744   2.271
   87SOPE    HS 8134   6.650   0.656   2.238
   87SOPE   O21 8135   6.486   0.703   2.361
   87SOPE   C21 8136   6.430   0.589   2.333
   87SOPE   O22 8137   6.442   0.525   2.230
   87SOPE   C22 8138   6.356   0.534   2.456
   87SOPE   H2R 8139   6.433   0.468   2.502
   87SOPE   H2S 8140   6.271   0.471   2.421
   87SOPE    C3 8141   6.690   0.836   2.349
   87SOPE    HX 8142   6.755   0.887   2.274
   87SOPE    HY 8143   6.756   0.772   2.410
   87SOPE   O31 8144   6.620   0.935   2.427
   87SOPE   C31 8145   6.584   0.888   2.547
   87SOPE   O32 8146   6.639   0.798   2.607
   87SOPE   C32 8147   6.457   0.958   2.591
   87SOPE   H2X 8148   6.372   0.910   2.538
   87SOPE   H2Y 8149   6.460   1.064   2.559
   87SOPE   C23 8150   6.308   0.636   2.561
   87SOPE   H3R 8151   6.226   0.698   2.518
   87SOPE   H3S 8152   6.393   0.703   2.586
   87SOPE   C24 8153   6.263   0.577   2.697
   87SOPE   H4R 8154   6.198   0.489   2.682
   87SOPE   H4S 8155   6.353   0.543   2.752
   87SOPE   C25 8156   6.191   0.683   2.782
   87SOPE   H5R 8157   6.254   0.774   2.783
   87SOPE   H5S 8158   6.096   0.713   2.733
   87SOPE   C26 8159   6.167   0.646   2.929
   87SOPE   H6R 8160   6.090   0.565   2.937
   87SOPE   H6S 8161   6.261   0.607   2.972
   87SOPE   C27 8162   6.122   0.770   3.008
   87SOPE   H7R 8163   6.200   0.848   2.999
   87SOPE   H7S 8164   6.029   0.810   2.962
   87SOPE   C28 8165   6.094   0.746   3.158
   87SOPE   H8R 8166   6.057   0.841   3.202
   87SOPE   H8S 8167   6.011   0.672   3.167
   87SOPE   C29 8168   6.216   0.702   3.234
   87SOPE   H91 8169   6.311   0.746   3.199
   87SOPE  C210 8170   6.220   0.616   3.337
   87SOPE  H101 8171   6.319   0.588   3.378
   87SOPE  C211 8172   6.106   0.542   3.401
   87SOPE  H11R 8173   6.134   0.434   3.402
   87SOPE  H11S 8174   6.015   0.551   3.338
   87SOPE  C212 8175   6.061   0.577   3.544
   87SOPE  H12R 8176   5.977   0.508   3.569
   87SOPE  H12S 8177   6.019   0.680   3.548
   87SOPE  C213 8178   6.168   0.559   3.653
   87SOPE  H13R 8179   6.244   0.640   3.649
   87SOPE  H13S 8180   6.221   0.464   3.630
   87SOPE  C214 8181   6.108   0.552   3.795
   87SOPE  H14R 8182   6.045   0.461   3.802
   87SOPE  H14S 8183   6.043   0.640   3.810
   87SOPE  C215 8184   6.215   0.549   3.905
   87SOPE  H15R 8185   6.276   0.642   3.900
   87SOPE  H15S 8186   6.284   0.464   3.888
   87SOPE  C216 8187   6.160   0.532   4.048
   87SOPE  H16R 8188   6.245   0.528   4.119
   87SOPE  H16S 8189   6.108   0.434   4.054
   87SOPE  C217 8190   6.064   0.643   4.093
   87SOPE  H17R 8191   6.026   0.618   4.194
   87SOPE  H17S 8192   5.977   0.646   4.025
   87SOPE  C218 8193   6.130   0.782   4.098
   87SOPE  H18R 8194   6.173   0.809   4.000
   87SOPE  H18S 8195   6.212   0.783   4.173
   87SOPE  H18T 8196   6.056   0.859   4.126
   87SOPE   C33 8197   6.439   0.944   2.743
   87SOPE   H3X 8198   6.447   0.837   2.772
   87SOPE   H3Y 8199   6.339   0.980   2.772
   87SOPE   C34 8200   6.545   1.021   2.823
   87SOPE   H4X 8201   6.546   1.127   2.791
   87SOPE   H4Y 8202   6.645   0.977   2.802
   87SOPE   C35 8203   6.519   1.013   2.973
   87SOPE   H5X 8204   6.417   1.049   2.996
   87SOPE   H5Y 8205   6.590   1.083   3.023
   87SOPE   C36 8206   6.541   0.874   3.032
   87SOPE   H6X 8207   6.627   0.825   2.983
   87SOPE   H6Y 8208   6.451   0.811   3.012
   87SOPE   C37 8209   6.568   0.878   3.183
   87SOPE   H7X 8210   6.673   0.911   3.200
   87SOPE   H7Y 8211   6.559   0.775   3.224
   87SOPE   C38 8212   6.474   0.973   3.259
   87SOPE   H8X 8213   6.370   0.954   3.224
   87SOPE   H8Y 8214   6.498   1.079   3.234
   87SOPE   C39 8215   6.481   0.955   3.411
   87SOPE   H9X 8216   6.584   0.978   3.444
   87SOPE   H9Y 8217   6.457   0.850   3.437
   87SOPE  C310 8218   6.382   1.042   3.489
   87SOPE  H10X 8219   6.400   1.146   3.453
   87SOPE  H10Y 8220   6.407   1.038   3.597
   87SOPE  C311 8221   6.234   1.007   3.468
   87SOPE  H11X 8222   6.217   0.975   3.363
   87SOPE  H11Y 8223   6.170   1.096   3.484
   87SOPE  C312 8224   6.179   0.899   3.561
   87SOPE  H12X 8225   6.238   0.806   3.540
   87SOPE  H12Y 8226   6.073   0.880   3.531
   87SOPE  C313 8227   6.181   0.930   3.711
   87SOPE  H13X 8228   6.286   0.935   3.747
   87SOPE  H13Y 8229   6.132   0.846   3.765
   87SOPE  C314 8230   6.109   1.060   3.749
   87SOPE  H14X 8231   6.005   1.056   3.710
   87SOPE  H14Y 8232   6.159   1.146   3.699
   87SOPE  C315 8233   6.106   1.086   3.900
   87SOPE  H15X 8234   6.209   1.074   3.941
   87SOPE  H15Y 8235   6.042   1.009   3.948
   87SOPE  C316 8236   6.055   1.226   3.937
   87SOPE  H16X 8237   5.951   1.239   3.898
   87SOPE  H16Y 8238   6.118   1.301   3.885
   87SOPE  C317 8239   6.057   1.256   4.087
   87SOPE  H17X 8240   6.040   1.365   4.101
   87SOPE  H17Y 8241   6.159   1.234   4.127
   87SOPE  C318 8242   5.953   1.179   4.168
   87SOPE  H18X 8243   5.851   1.197   4.128
   87SOPE  H18Y 8244   5.955   1.210   4.274
   87SOPE  H18Z 8245   5.974   1.070   4.163
   88SOPE     N 8246   0.337   1.376   2.162
   88SOPE   HN1 8247   0.412   1.404   2.096
   88SOPE   HN2 8248   0.344   1.439   2.245
   88SOPE   HN3 8249   0.349   1.280   2.199
   88SOPE   C12 8250   0.201   1.405   2.105
   88SOPE  H12A 8251   0.128   1.402   2.189
   88SOPE  H12B 8252   0.176   1.326   2.031
   88SOPE   C11 8253   0.197   1.545   2.040
   88SOPE  H11A 8254   0.093   1.565   2.006
   88SOPE  H11B 8255   0.263   1.543   1.950
   88SOPE     P 8256   0.245   1.796   2.080
   88SOPE   O13 8257   0.105   1.837   2.051
   88SOPE   O14 8258   0.335   1.801   1.963
   88SOPE   O12 8259   0.242   1.645   2.131
   88SOPE   O11 8260   0.306   1.881   2.198
   88SOPE    C1 8261   0.433   1.856   2.261
   88SOPE    HA 8262   0.454   1.939   2.332
   88SOPE    HB 8263   0.516   1.854   2.187
   88SOPE    C2 8264   0.437   1.725   2.346
   88SOPE    HS 8265   0.440   1.643   2.270
   88SOPE   O21 8266   0.317   1.721   2.425
   88SOPE   C21 8267   0.261   1.604   2.437
   88SOPE   O22 8268   0.304   1.498   2.394
   88SOPE   C22 8269   0.127   1.619   2.509
   88SOPE   H2R 8270   0.053   1.557   2.454
   88SOPE   H2S 8271   0.096   1.725   2.506
   88SOPE    C3 8272   0.565   1.706   2.434
   88SOPE    HX 8273   0.651   1.748   2.378
   88SOPE    HY 8274   0.586   1.598   2.445
   88SOPE   O31 8275   0.556   1.773   2.562
   88SOPE   C31 8276   0.505   1.699   2.661
   88SOPE   O32 8277   0.471   1.582   2.651
   88SOPE   C32 8278   0.492   1.782   2.788
   88SOPE   H2X 8279   0.492   1.890   2.761
   88SOPE   H2Y 8280   0.581   1.759   2.851
   88SOPE   C23 8281   0.138   1.570   2.654
   88SOPE   H3R 8282   0.217   1.627   2.707
   88SOPE   H3S 8283   0.171   1.464   2.655
   88SOPE   C24 8284   0.006   1.588   2.729
   88SOPE   H4R 8285   7.293   1.697   2.741
   88SOPE   H4S 8286   7.227   1.545   2.668
   88SOPE   C25 8287   0.005   1.521   2.867
   88SOPE   H5R 8288   7.230   1.443   2.867
   88SOPE   H5S 8289   0.103   1.472   2.885
   88SOPE   C26 8290   7.284   1.614   2.984
   88SOPE   H6R 8291   0.066   1.684   2.990
   88SOPE   H6S 8292   7.191   1.673   2.967
   88SOPE   C27 8293   7.268   1.534   3.114
   88SOPE   H7R 8294   7.186   1.460   3.102
   88SOPE   H7S 8295   0.057   1.476   3.133
   88SOPE   C28 8296   7.236   1.623   3.235
   88SOPE   H8R 8297   7.141   1.678   3.219
   88SOPE   H8S 8298   7.222   1.558   3.325
   88SOPE   C29 8299   0.047   1.719   3.251
   88SOPE   H91 8300   0.053   1.798   3.175
   88SOPE  C210 8301   0.138   1.717   3.348
   88SOPE  H101 8302   0.221   1.789   3.343
   88SOPE  C211 8303   0.145   1.617   3.460
   88SOPE  H11R 8304   0.248   1.613   3.502
   88SOPE  H11S 8305   0.119   1.515   3.425
   88SOPE  C212 8306   0.047   1.658   3.572
   88SOPE  H12R 8307   7.246   1.657   3.533
   88SOPE  H12S 8308   0.070   1.763   3.602
   88SOPE  C213 8309   0.055   1.566   3.694
   88SOPE  H13R 8310   0.160   1.562   3.730
   88SOPE  H13S 8311   0.024   1.464   3.663
   88SOPE  C214 8312   7.269   1.613   3.808
   88SOPE  H14R 8313   7.271   1.536   3.889
   88SOPE  H14S 8314   7.164   1.620   3.772
   88SOPE  C215 8315   0.010   1.748   3.866
   88SOPE  H15R 8316   7.235   1.825   3.846
   88SOPE  H15S 8317   0.101   1.784   3.813
   88SOPE  C216 8318   0.039   1.741   4.016
   88SOPE  H16R 8319   0.142   1.700   4.028
   88SOPE  H16S 8320   7.271   1.672   4.066
   88SOPE  C217 8321   0.033   1.878   4.083
   88SOPE  H17R 8322   7.233   1.918   4.077
   88SOPE  H17S 8323   0.096   1.944   4.020
   88SOPE  C218 8324   0.082   1.880   4.227
   88SOPE  H18R 8325   0.080   1.984   4.267
   88SOPE  H18S 8326   0.187   1.844   4.233
   88SOPE  H18T 8327   0.019   1.816   4.292
   88SOPE   C33 8328   0.364   1.752   2.869
   88SOPE   H3X 8329   0.352   1.642   2.879
   88SOPE   H3Y 8330   0.276   1.792   2.813
   88SOPE   C34 8331   0.363   1.812   3.009
   88SOPE   H4X 8332   0.454   1.779   3.063
   88SOPE   H4Y 8333   0.275   1.770   3.063
   88SOPE   C35 8334   0.351   1.965   3.012
   88SOPE   H5X 8335   0.278   1.998   2.936
   88SOPE   H5Y 8336   0.449   2.010   2.986
   88SOPE   C36 8337   0.307   2.018   3.149
   88SOPE   H6X 8338   0.210   1.971   3.175
   88SOPE   H6Y 8339   0.291   2.128   3.145
   88SOPE   C37 8340   0.409   1.987   3.259
   88SOPE   H7X 8341   0.496   2.056   3.246
   88SOPE   H7Y 8342   0.447   1.884   3.247
   88SOPE   C38 8343   0.354   1.998   3.402
   88SOPE   H8X 8344   0.244   1.989   3.400
   88SOPE   H8Y 8345   0.377   2.100   3.442
   88SOPE   C39 8346   0.410   1.890   3.496
   88SOPE   H9X 8347   0.521   1.894   3.497
   88SOPE   H9Y 8348   0.385   1.788   3.461
   88SOPE  C310 8349   0.357   1.911   3.638
   88SOPE  H10X 8350   0.248   1.891   3.641
   88SOPE  H10Y 8351   0.372   2.019   3.660
   88SOPE  C311 8352   0.428   1.827   3.745
   88SOPE  H11X 8353   0.538   1.845   3.737
   88SOPE  H11Y 8354   0.411   1.719   3.725
   88SOPE  C312 8355   0.383   1.861   3.888
   88SOPE  H12X 8356   0.448   1.806   3.960
   88SOPE  H12Y 8357   0.279   1.827   3.904
   88SOPE  C313 8358   0.391   2.011   3.918
   88SOPE  H13X 8359   0.321   2.068   3.854
   88SOPE  H13Y 8360   0.493   2.043   3.887
   88SOPE  C314 8361   0.368   2.046   4.066
   88SOPE  H14X 8362   0.431   1.982   4.131
   88SOPE  H14Y 8363   0.264   2.022   4.094
   88SOPE  C315 8364   0.397   2.193   4.100
   88SOPE  H15X 8365   0.500   2.221   4.070
   88SOPE  H15Y 8366   0.394   2.201   4.211
   88SOPE  C316 8367   0.297   2.295   4.042
   88SOPE  H16X 8368   0.313   2.305   3.933
   88SOPE  H16Y 8369   0.319   2.394   4.088
   88SOPE  C317 8370   0.151   2.258   4.068
   88SOPE  H17X 8371   0.097   2.350   4.099
   88SOPE  H17Y 8372   0.144   2.189   4.155
   88SOPE  C318 8373   0.082   2.197   3.946
   88SOPE  H18X 8374   0.080   2.270   3.862
   88SOPE  H18Y 8375   7.282   2.165   3.969
   88SOPE  H18Z 8376   0.136   2.107   3.908
   89SAPC     N 8377   4.626   4.038   6.411
   89SAPC   C12 8378   4.586   4.046   6.264
   89SAPC  H12A 8379   4.594   4.149   6.230
   89SAPC  H12B 8380   4.482   4.020   6.254
   89SAPC   C13 8381   4.576   4.157   6.486
   89SAPC  H13A 8382   4.469   4.171   6.474
   89SAPC  H13B 8383   4.598   4.149   6.592
   89SAPC  H13C 8384   4.625   4.246   6.451
   89SAPC   C14 8385   4.566   3.913   6.467
   89SAPC  H14A 8386   4.599   3.895   6.568
   89SAPC  H14B 8387   4.458   3.918   6.466
   89SAPC  H14C 8388   4.594   3.830   6.405
   89SAPC   C15 8389   4.775   4.032   6.421
   89SAPC  H15A 8390   4.810   3.951   6.358
   89SAPC  H15B 8391   4.822   4.123   6.386
   89SAPC  H15C 8392   4.808   4.015   6.523
   89SAPC   C11 8393   4.667   3.958   6.165
   89SAPC  H11A 8394   4.764   4.009   6.146
   89SAPC  H11B 8395   4.609   3.959   6.071
   89SAPC     P 8396   4.691   3.705   6.110
   89SAPC   O13 8397   4.715   3.582   6.187
   89SAPC   O14 8398   4.572   3.717   6.025
   89SAPC   O12 8399   4.693   3.825   6.214
   89SAPC   O11 8400   4.820   3.733   6.022
   89SAPC    C1 8401   4.949   3.715   6.081
   89SAPC    HA 8402   4.954   3.776   6.174
   89SAPC    HB 8403   4.965   3.609   6.107
   89SAPC    C2 8404   5.066   3.764   5.988
   89SAPC    HS 8405   5.146   3.807   6.051
   89SAPC   O21 8406   5.019   3.863   5.895
   89SAPC   C21 8407   4.979   3.974   5.956
   89SAPC   O22 8408   5.001   4.001   6.073
   89SAPC   C22 8409   4.921   4.072   5.854
   89SAPC   H2R 8410   4.955   4.170   5.894
   89SAPC   H2S 8411   4.969   4.056   5.755
   89SAPC    C3 8412   5.134   3.648   5.909
   89SAPC    HX 8413   5.171   3.570   5.979
   89SAPC    HY 8414   5.222   3.691   5.857
   89SAPC   O31 8415   5.047   3.594   5.809
   89SAPC   C31 8416   4.964   3.498   5.847
   89SAPC   O32 8417   4.990   3.412   5.929
   89SAPC   C32 8418   4.830   3.516   5.776
   89SAPC   H2X 8419   4.755   3.531   5.856
   89SAPC   H2Y 8420   4.805   3.423   5.720
   89SAPC   C23 8421   4.766   4.076   5.840
   89SAPC   H3R 8422   4.739   4.163   5.778
   89SAPC   H3S 8423   4.720   4.093   5.940
   89SAPC   C24 8424   4.709   3.950   5.773
   89SAPC   H4R 8425   4.745   3.863   5.832
   89SAPC   H4S 8426   4.753   3.941   5.671
   89SAPC   C25 8427   4.558   3.941   5.770
   89SAPC   H5R 8428   4.512   3.935   5.870
   89SAPC   C26 8429   4.478   3.929   5.663
   89SAPC   H6R 8430   4.370   3.916   5.681
   89SAPC   C27 8431   4.520   3.922   5.518
   89SAPC   H7R 8432   4.540   3.815   5.491
   89SAPC   H7S 8433   4.616   3.976   5.502
   89SAPC   C28 8434   4.416   3.979   5.425
   89SAPC   H8R 8435   4.341   4.044   5.473
   89SAPC   C29 8436   4.404   3.958   5.293
   89SAPC   H9R 8437   4.325   4.011   5.239
   89SAPC  C210 8438   4.493   3.870   5.209
   89SAPC  H10R 8439   4.544   3.793   5.271
   89SAPC  H10S 8440   4.574   3.932   5.164
   89SAPC  C211 8441   4.411   3.801   5.104
   89SAPC  H11R 8442   4.323   3.747   5.142
   89SAPC  C212 8443   4.434   3.799   4.971
   89SAPC  H12R 8444   4.368   3.737   4.907
   89SAPC  C213 8445   4.546   3.863   4.896
   89SAPC  H13R 8446   4.585   3.953   4.949
   89SAPC  H13S 8447   4.511   3.900   4.797
   89SAPC  C214 8448   4.652   3.757   4.884
   89SAPC  H14R 8449   4.699   3.728   4.979
   89SAPC  C215 8450   4.692   3.696   4.771
   89SAPC  H15R 8451   4.772   3.620   4.778
   89SAPC  C216 8452   4.640   3.722   4.633
   89SAPC  H16R 8453   4.719   3.698   4.560
   89SAPC  H16S 8454   4.614   3.830   4.618
   89SAPC  C217 8455   4.512   3.646   4.597
   89SAPC  H17R 8456   4.423   3.709   4.619
   89SAPC  H17S 8457   4.502   3.555   4.660
   89SAPC  C218 8458   4.514   3.604   4.450
   89SAPC  H18R 8459   4.432   3.531   4.434
   89SAPC  H18S 8460   4.609   3.550   4.427
   89SAPC  C219 8461   4.498   3.723   4.355
   89SAPC  H19R 8462   4.586   3.790   4.367
   89SAPC  H19S 8463   4.409   3.781   4.386
   89SAPC  C220 8464   4.486   3.683   4.208
   89SAPC  H20R 8465   4.429   3.759   4.151
   89SAPC  H20S 8466   4.432   3.586   4.200
   89SAPC  H20T 8467   4.587   3.672   4.163
   89SAPC   C33 8468   4.825   3.640   5.684
   89SAPC   H3X 8469   4.868   3.728   5.737
   89SAPC   H3Y 8470   4.720   3.667   5.660
   89SAPC   C34 8471   4.901   3.619   5.554
   89SAPC   H4X 8472   4.852   3.538   5.495
   89SAPC   H4Y 8473   5.005   3.585   5.578
   89SAPC   C35 8474   4.910   3.745   5.470
   89SAPC   H5X 8475   4.809   3.791   5.465
   89SAPC   H5Y 8476   4.939   3.717   5.366
   89SAPC   C36 8477   5.013   3.844   5.525
   89SAPC   H6X 8478   5.104   3.788   5.557
   89SAPC   H6Y 8479   4.971   3.894   5.615
   89SAPC   C37 8480   5.055   3.948   5.421
   89SAPC   H7X 8481   5.107   3.893   5.339
   89SAPC   H7Y 8482   5.128   4.020   5.464
   89SAPC   C38 8483   4.935   4.025   5.363
   89SAPC   H8X 8484   4.920   4.118   5.423
   89SAPC   H8Y 8485   4.840   3.968   5.371
   89SAPC   C39 8486   4.953   4.058   5.215
   89SAPC   H9X 8487   5.044   4.122   5.207
   89SAPC   H9Y 8488   4.865   4.118   5.184
   89SAPC  C310 8489   4.966   3.936   5.122
   89SAPC  H10X 8490   4.933   3.845   5.177
   89SAPC  H10Y 8491   5.073   3.921   5.095
   89SAPC  C311 8492   4.881   3.947   4.995
   89SAPC  H11X 8493   4.776   3.963   5.027
   89SAPC  H11Y 8494   4.889   3.852   4.938
   89SAPC  C312 8495   4.924   4.060   4.903
   89SAPC  H12X 8496   5.025   4.034   4.864
   89SAPC  H12Y 8497   4.936   4.151   4.966
   89SAPC  C313 8498   4.832   4.105   4.788
   89SAPC  H13X 8499   4.869   4.206   4.760
   89SAPC  H13Y 8500   4.728   4.117   4.825
   89SAPC  C314 8501   4.834   4.025   4.657
   89SAPC  H14X 8502   4.772   3.935   4.674
   89SAPC  H14Y 8503   4.936   3.989   4.631
   89SAPC  C315 8504   4.778   4.109   4.540
   89SAPC  H15X 8505   4.857   4.178   4.504
   89SAPC  H15Y 8506   4.694   4.170   4.579
   89SAPC  C316 8507   4.722   4.031   4.421
   89SAPC  H16X 8508   4.677   4.101   4.349
   89SAPC  H16Y 8509   4.640   3.966   4.460
   89SAPC  C317 8510   4.827   3.946   4.347
   89SAPC  H17X 8511   4.773   3.868   4.288
   89SAPC  H17Y 8512   4.890   3.892   4.421
   89SAPC  C318 8513   4.914   4.027   4.252
   89SAPC  H18X 8514   4.956   4.116   4.303
   89SAPC  H18Y 8515   4.855   4.063   4.165
   89SAPC  H18Z 8516   4.998   3.965   4.214
   90SAPC     N 8517   1.289   1.027   6.443
   90SAPC   C12 8518   1.223   1.162   6.462
   90SAPC  H12A 8519   1.268   1.213   6.546
   90SAPC  H12B 8520   1.119   1.146   6.488
   90SAPC   C13 8521   1.205   0.943   6.350
   90SAPC  H13A 8522   1.105   0.926   6.389
   90SAPC  H13B 8523   1.190   0.998   6.258
   90SAPC  H13C 8524   1.251   0.849   6.325
   90SAPC   C14 8525   1.423   1.045   6.378
   90SAPC  H14A 8526   1.411   1.093   6.282
   90SAPC  H14B 8527   1.490   1.104   6.438
   90SAPC  H14C 8528   1.473   0.950   6.360
   90SAPC   C15 8529   1.307   0.956   6.574
   90SAPC  H15A 8530   1.377   1.008   6.637
   90SAPC  H15B 8531   1.212   0.948   6.626
   90SAPC  H15C 8532   1.345   0.856   6.558
   90SAPC   C11 8533   1.222   1.258   6.340
   90SAPC  H11A 8534   1.327   1.290   6.320
   90SAPC  H11B 8535   1.163   1.348   6.364
   90SAPC     P 8536   1.207   1.221   6.081
   90SAPC   O13 8537   1.354   1.238   6.081
   90SAPC   O14 8538   1.151   1.116   5.993
   90SAPC   O12 8539   1.164   1.191   6.229
   90SAPC   O11 8540   1.135   1.359   6.061
   90SAPC    C1 8541   1.202   1.480   6.028
   90SAPC    HA 8542   1.144   1.563   6.073
   90SAPC    HB 8543   1.305   1.487   6.071
   90SAPC    C2 8544   1.206   1.509   5.875
   90SAPC    HS 8545   1.199   1.619   5.862
   90SAPC   O21 8546   1.096   1.441   5.812
   90SAPC   C21 8547   1.066   1.488   5.694
   90SAPC   O22 8548   1.118   1.585   5.642
   90SAPC   C22 8549   0.960   1.405   5.626
   90SAPC   H2R 8550   0.868   1.414   5.688
   90SAPC   H2S 8551   0.942   1.450   5.527
   90SAPC    C3 8552   1.341   1.470   5.807
   90SAPC    HX 8553   1.421   1.517   5.867
   90SAPC    HY 8554   1.344   1.514   5.705
   90SAPC   O31 8555   1.355   1.328   5.800
   90SAPC   C31 8556   1.476   1.288   5.772
   90SAPC   O32 8557   1.572   1.360   5.752
   90SAPC   C32 8558   1.478   1.137   5.765
   90SAPC   H2X 8559   1.463   1.098   5.868
   90SAPC   H2Y 8560   1.578   1.106   5.726
   90SAPC   C23 8561   1.001   1.257   5.614
   90SAPC   H3R 8562   0.918   1.198   5.572
   90SAPC   H3S 8563   1.022   1.216   5.715
   90SAPC   C24 8564   1.125   1.237   5.527
   90SAPC   H4R 8565   1.147   1.128   5.528
   90SAPC   H4S 8566   1.209   1.288   5.579
   90SAPC   C25 8567   1.113   1.283   5.384
   90SAPC   H5R 8568   1.036   1.230   5.326
   90SAPC   C26 8569   1.188   1.377   5.323
   90SAPC   H6R 8570   1.168   1.398   5.217
   90SAPC   C27 8571   1.299   1.458   5.384
   90SAPC   H7R 8572   1.258   1.513   5.471
   90SAPC   H7S 8573   1.328   1.538   5.312
   90SAPC   C28 8574   1.422   1.384   5.433
   90SAPC   H8R 8575   1.407   1.331   5.527
   90SAPC   C29 8576   1.543   1.380   5.376
   90SAPC   H9R 8577   1.623   1.321   5.424
   90SAPC  C210 8578   1.582   1.449   5.248
   90SAPC  H10R 8579   1.691   1.472   5.249
   90SAPC  H10S 8580   1.531   1.547   5.242
   90SAPC  C211 8581   1.549   1.363   5.130
   90SAPC  H11R 8582   1.603   1.267   5.126
   90SAPC  C212 8583   1.458   1.386   5.034
   90SAPC  H12R 8584   1.445   1.309   4.956
   90SAPC  C213 8585   1.365   1.504   5.018
   90SAPC  H13R 8586   1.376   1.572   5.105
   90SAPC  H13S 8587   1.261   1.467   5.025
   90SAPC  C214 8588   1.376   1.589   4.894
   90SAPC  H14R 8589   1.334   1.690   4.908
   90SAPC  C215 8590   1.429   1.560   4.774
   90SAPC  H15R 8591   1.428   1.641   4.699
   90SAPC  C216 8592   1.495   1.435   4.724
   90SAPC  H16R 8593   1.416   1.358   4.706
   90SAPC  H16S 8594   1.566   1.392   4.798
   90SAPC  C217 8595   1.572   1.453   4.590
   90SAPC  H17R 8596   1.668   1.505   4.608
   90SAPC  H17S 8597   1.518   1.518   4.519
   90SAPC  C218 8598   1.597   1.317   4.523
   90SAPC  H18R 8599   1.541   1.241   4.581
   90SAPC  H18S 8600   1.704   1.291   4.532
   90SAPC  C219 8601   1.552   1.306   4.376
   90SAPC  H19R 8602   1.642   1.303   4.311
   90SAPC  H19S 8603   1.493   1.395   4.348
   90SAPC  C220 8604   1.467   1.181   4.353
   90SAPC  H20R 8605   1.527   1.089   4.370
   90SAPC  H20S 8606   1.427   1.174   4.250
   90SAPC  H20T 8607   1.384   1.178   4.426
   90SAPC   C33 8608   1.366   1.085   5.671
   90SAPC   H3X 8609   1.376   1.134   5.572
   90SAPC   H3Y 8610   1.267   1.110   5.715
   90SAPC   C34 8611   1.376   0.935   5.651
   90SAPC   H4X 8612   1.339   0.887   5.744
   90SAPC   H4Y 8613   1.484   0.915   5.632
   90SAPC   C35 8614   1.302   0.873   5.535
   90SAPC   H5X 8615   1.204   0.925   5.527
   90SAPC   H5Y 8616   1.282   0.767   5.560
   90SAPC   C36 8617   1.380   0.875   5.403
   90SAPC   H6X 8618   1.333   0.799   5.337
   90SAPC   H6Y 8619   1.485   0.843   5.418
   90SAPC   C37 8620   1.374   1.010   5.331
   90SAPC   H7X 8621   1.469   1.067   5.346
   90SAPC   H7Y 8622   1.294   1.071   5.377
   90SAPC   C38 8623   1.341   0.996   5.183
   90SAPC   H8X 8624   1.282   0.904   5.163
   90SAPC   H8Y 8625   1.435   0.989   5.124
   90SAPC   C39 8626   1.270   1.116   5.122
   90SAPC   H9X 8627   1.325   1.208   5.152
   90SAPC   H9Y 8628   1.167   1.127   5.161
   90SAPC  C310 8629   1.269   1.098   4.970
   90SAPC  H10X 8630   1.221   1.000   4.950
   90SAPC  H10Y 8631   1.374   1.092   4.934
   90SAPC  C311 8632   1.198   1.210   4.895
   90SAPC  H11X 8633   1.267   1.259   4.823
   90SAPC  H11Y 8634   1.163   1.286   4.968
   90SAPC  C312 8635   1.076   1.157   4.820
   90SAPC  H12X 8636   1.020   1.242   4.775
   90SAPC  H12Y 8637   1.012   1.113   4.899
   90SAPC  C313 8638   1.107   1.052   4.712
   90SAPC  H13X 8639   1.011   1.006   4.680
   90SAPC  H13Y 8640   1.170   0.970   4.752
   90SAPC  C314 8641   1.168   1.107   4.584
   90SAPC  H14X 8642   1.201   1.022   4.521
   90SAPC  H14Y 8643   1.257   1.169   4.609
   90SAPC  C315 8644   1.066   1.190   4.504
   90SAPC  H15X 8645   1.034   1.274   4.569
   90SAPC  H15Y 8646   0.976   1.129   4.481
   90SAPC  C316 8647   1.126   1.244   4.375
   90SAPC  H16X 8648   1.152   1.159   4.308
   90SAPC  H16Y 8649   1.221   1.295   4.401
   90SAPC  C317 8650   1.036   1.342   4.298
   90SAPC  H17X 8651   0.957   1.282   4.248
   90SAPC  H17Y 8652   1.094   1.388   4.215
   90SAPC  C318 8653   0.966   1.453   4.378
   90SAPC  H18X 8654   0.919   1.416   4.471
   90SAPC  H18Y 8655   0.885   1.494   4.314
   90SAPC  H18Z 8656   1.030   1.540   4.401
   91SAPC     N 8657   5.735   6.930   6.497
   91SAPC   C12 8658   5.635   6.937   6.383
   91SAPC  H12A 8659   5.621   7.041   6.357
   91SAPC  H12B 8660   5.540   6.897   6.417
   91SAPC   C13 8661   5.864   6.991   6.456
   91SAPC  H13A 8662   5.851   7.093   6.424
   91SAPC  H13B 8663   5.942   6.983   6.531
   91SAPC  H13C 8664   5.898   6.939   6.368
   91SAPC   C14 8665   5.680   7.000   6.616
   91SAPC  H14A 8666   5.749   6.996   6.699
   91SAPC  H14B 8667   5.654   7.103   6.594
   91SAPC  H14C 8668   5.589   6.951   6.650
   91SAPC   C15 8669   5.763   6.787   6.532
   91SAPC  H15A 8670   5.672   6.733   6.552
   91SAPC  H15B 8671   5.811   6.736   6.450
   91SAPC  H15C 8672   5.829   6.777   6.617
   91SAPC   C11 8673   5.672   6.866   6.251
   91SAPC  H11A 8674   5.584   6.866   6.182
   91SAPC  H11B 8675   5.697   6.760   6.270
   91SAPC     P 8676   5.770   7.070   6.120
   91SAPC   O13 8677   5.697   7.059   5.993
   91SAPC   O14 8678   5.711   7.167   6.218
   91SAPC   O12 8679   5.783   6.929   6.189
   91SAPC   O11 8680   5.922   7.103   6.097
   91SAPC    C1 8681   6.018   7.100   6.204
   91SAPC    HA 8682   5.986   7.169   6.284
   91SAPC    HB 8683   6.028   6.998   6.247
   91SAPC    C2 8684   6.162   7.148   6.162
   91SAPC    HS 8685   6.201   7.213   6.243
   91SAPC   O21 8686   6.153   7.222   6.040
   91SAPC   C21 8687   6.065   0.018   6.043
   91SAPC   O22 8688   6.042   0.086   6.142
   91SAPC   C22 8689   6.004   0.030   5.903
   91SAPC   H2R 8690   6.082   0.004   5.829
   91SAPC   H2S 8691   5.926   7.255   5.896
   91SAPC    C3 8692   6.268   7.035   6.146
   91SAPC    HX 8693   6.276   6.975   6.240
   91SAPC    HY 8694   6.367   7.084   6.134
   91SAPC   O31 8695   6.246   6.954   6.030
   91SAPC   C31 8696   6.168   6.848   6.050
   91SAPC   O32 8697   6.125   6.810   6.157
   91SAPC   C32 8698   6.135   6.789   5.915
   91SAPC   H2X 8699   6.134   6.679   5.926
   91SAPC   H2Y 8700   6.214   6.816   5.842
   91SAPC   C23 8701   5.943   0.167   5.870
   91SAPC   H3R 8702   6.017   0.248   5.884
   91SAPC   H3S 8703   5.860   0.185   5.941
   91SAPC   C24 8704   5.885   0.169   5.726
   91SAPC   H4R 8705   5.796   0.237   5.728
   91SAPC   H4S 8706   5.846   0.068   5.703
   91SAPC   C25 8707   5.979   0.219   5.620
   91SAPC   H5R 8708   6.027   0.315   5.645
   91SAPC   C26 8709   6.012   0.162   5.502
   91SAPC   H6R 8710   6.079   0.217   5.435
   91SAPC   C27 8711   5.964   0.032   5.441
   91SAPC   H7R 8712   5.933   0.051   5.336
   91SAPC   H7S 8713   5.872   7.300   5.493
   91SAPC   C28 8714   6.069   7.226   5.449
   91SAPC   H8R 8715   6.100   7.202   5.551
   91SAPC   C29 8716   6.126   7.157   5.348
   91SAPC   H9R 8717   6.199   7.079   5.375
   91SAPC  C210 8718   6.103   7.169   5.198
   91SAPC  H10R 8719   6.044   7.260   5.174
   91SAPC  H10S 8720   6.042   7.082   5.164
   91SAPC  C211 8721   6.234   7.172   5.121
   91SAPC  H11R 8722   6.322   7.190   5.184
   91SAPC  C212 8723   6.254   7.156   4.988
   91SAPC  H12R 8724   6.358   7.164   4.951
   91SAPC  C213 8725   6.152   7.129   4.880
   91SAPC  H13R 8726   6.052   7.120   4.926
   91SAPC  H13S 8727   6.173   7.028   4.838
   91SAPC  C214 8728   6.142   7.227   4.764
   91SAPC  H14R 8729   6.042   7.274   4.757
   91SAPC  C215 8730   6.232   7.263   4.670
   91SAPC  H15R 8731   6.200   0.031   4.593
   91SAPC  C216 8732   6.375   7.217   4.652
   91SAPC  H16R 8733   6.404   7.153   4.739
   91SAPC  H16S 8734   6.446   7.302   4.658
   91SAPC  C217 8735   6.411   7.145   4.521
   91SAPC  H17R 8736   6.348   7.054   4.510
   91SAPC  H17S 8737   6.517   7.112   4.528
   91SAPC  C218 8738   6.401   7.229   4.392
   91SAPC  H18R 8739   6.460   0.019   4.403
   91SAPC  H18S 8740   6.295   7.258   4.376
   91SAPC  C219 8741   6.453   7.151   4.270
   91SAPC  H19R 8742   6.464   7.044   4.298
   91SAPC  H19S 8743   6.554   7.188   4.244
   91SAPC  C220 8744   6.360   7.159   4.149
   91SAPC  H20R 8745   6.341   7.265   4.120
   91SAPC  H20S 8746   6.263   7.111   4.172
   91SAPC  H20T 8747   6.406   7.106   4.062
   91SAPC   C33 8748   5.998   6.841   5.868
   91SAPC   H3X 8749   6.000   6.951   5.851
   91SAPC   H3Y 8750   5.920   6.820   5.945
   91SAPC   C34 8751   5.960   6.769   5.739
   91SAPC   H4X 8752   5.966   6.661   5.765
   91SAPC   H4Y 8753   6.036   6.790   5.661
   91SAPC   C35 8754   5.820   6.795   5.685
   91SAPC   H5X 8755   5.748   6.809   5.769
   91SAPC   H5Y 8756   5.788   6.705   5.629
   91SAPC   C36 8757   5.813   6.914   5.588
   91SAPC   H6X 8758   5.894   6.904   5.513
   91SAPC   H6Y 8759   5.830   7.008   5.645
   91SAPC   C37 8760   5.678   6.919   5.516
   91SAPC   H7X 8761   5.599   6.918   5.594
   91SAPC   H7Y 8762   5.665   6.826   5.455
   91SAPC   C38 8763   5.659   7.043   5.429
   91SAPC   H8X 8764   5.688   7.133   5.488
   91SAPC   H8Y 8765   5.551   7.053   5.405
   91SAPC   C39 8766   5.737   7.042   5.296
   91SAPC   H9X 8767   5.846   7.032   5.315
   91SAPC   H9Y 8768   5.721   7.140   5.246
   91SAPC  C310 8769   5.692   6.931   5.200
   91SAPC  H10X 8770   5.583   6.913   5.214
   91SAPC  H10Y 8771   5.745   6.836   5.225
   91SAPC  C311 8772   5.714   6.966   5.052
   91SAPC  H11X 8773   5.820   6.992   5.033
   91SAPC  H11Y 8774   5.653   7.056   5.028
   91SAPC  C312 8775   5.671   6.851   4.959
   91SAPC  H12X 8776   5.578   6.807   5.000
   91SAPC  H12Y 8777   5.749   6.771   4.960
   91SAPC  C313 8778   5.642   6.893   4.814
   91SAPC  H13X 8779   5.585   6.989   4.814
   91SAPC  H13Y 8780   5.576   6.816   4.768
   91SAPC  C314 8781   5.765   6.909   4.724
   91SAPC  H14X 8782   5.815   6.811   4.713
   91SAPC  H14Y 8783   5.837   6.979   4.771
   91SAPC  C315 8784   5.722   6.963   4.586
   91SAPC  H15X 8785   5.687   7.067   4.598
   91SAPC  H15Y 8786   5.636   6.903   4.550
   91SAPC  C316 8787   5.833   6.958   4.480
   91SAPC  H16X 8788   5.791   6.996   4.384
   91SAPC  H16Y 8789   5.863   6.852   4.463
   91SAPC  C317 8790   5.956   7.041   4.517
   91SAPC  H17X 8791   6.009   6.993   4.601
   91SAPC  H17Y 8792   5.922   7.141   4.552
   91SAPC  C318 8793   6.052   7.060   4.400
   91SAPC  H18X 8794   6.141   7.119   4.432
   91SAPC  H18Y 8795   6.003   7.115   4.316
   91SAPC  H18Z 8796   6.088   6.962   4.362
   92SAPC     N 8797   7.142   6.083   6.431
   92SAPC   C12 8798   7.091   6.026   6.299
   92SAPC  H12A 8799   7.074   5.919   6.310
   92SAPC  H12B 8800   7.167   6.039   6.224
   92SAPC   C13 8801   7.033   6.083   6.533
   92SAPC  H13A 8802   6.947   6.134   6.494
   92SAPC  H13B 8803   7.003   5.982   6.558
   92SAPC  H13C 8804   7.064   6.133   6.624
   92SAPC   C14 8805   7.261   6.005   6.477
   92SAPC  H14A 8806   7.237   5.902   6.498
   92SAPC  H14B 8807   0.035   6.004   6.402
   92SAPC  H14C 8808   0.001   6.049   6.566
   92SAPC   C15 8809   7.186   6.224   6.405
   92SAPC  H15A 8810   7.102   6.278   6.364
   92SAPC  H15B 8811   7.226   6.272   6.493
   92SAPC  H15C 8812   7.259   6.225   6.325
   92SAPC   C11 8813   6.963   6.090   6.238
   92SAPC  H11A 8814   6.879   6.085   6.310
   92SAPC  H11B 8815   6.930   6.030   6.150
   92SAPC     P 8816   7.073   6.257   6.073
   92SAPC   O13 8817   7.208   6.200   6.099
   92SAPC   O14 8818   7.002   6.214   5.951
   92SAPC   O12 8819   6.985   6.226   6.201
   92SAPC   O11 8820   7.079   6.414   6.084
   92SAPC    C1 8821   7.181   6.480   6.159
   92SAPC    HA 8822   7.134   6.541   6.239
   92SAPC    HB 8823   7.250   6.410   6.211
   92SAPC    C2 8824   7.270   6.570   6.069
   92SAPC    HS 8825   0.034   6.629   6.135
   92SAPC   O21 8826   7.196   6.660   5.984
   92SAPC   C21 8827   7.083   6.715   6.017
   92SAPC   O22 8828   7.024   6.710   6.124
   92SAPC   C22 8829   7.043   6.815   5.908
   92SAPC   H2R 8830   7.030   6.913   5.957
   92SAPC   H2S 8831   7.127   6.826   5.835
   92SAPC    C3 8832   0.055   6.482   5.977
   92SAPC    HX 8833   0.098   6.399   6.036
   92SAPC    HY 8834   0.139   6.545   5.940
   92SAPC   O31 8835   7.282   6.430   5.867
   92SAPC   C31 8836   0.048   6.372   5.771
   92SAPC   O32 8837   0.170   6.363   5.768
   92SAPC   C32 8838   7.254   6.325   5.664
   92SAPC   H2X 8839   7.220   6.415   5.608
   92SAPC   H2Y 8840   7.167   6.281   5.716
   92SAPC   C23 8841   6.911   6.774   5.839
   92SAPC   H3R 8842   6.881   6.853   5.767
   92SAPC   H3S 8843   6.832   6.769   5.917
   92SAPC   C24 8844   6.917   6.638   5.766
   92SAPC   H4R 8845   6.816   6.614   5.727
   92SAPC   H4S 8846   6.944   6.558   5.838
   92SAPC   C25 8847   7.017   6.643   5.654
   92SAPC   H5R 8848   7.104   6.707   5.673
   92SAPC   C26 8849   7.014   6.577   5.537
   92SAPC   H6R 8850   7.095   6.593   5.465
   92SAPC   C27 8851   6.912   6.481   5.486
   92SAPC   H7R 8852   6.886   6.514   5.383
   92SAPC   H7S 8853   6.820   6.491   5.548
   92SAPC   C28 8854   6.961   6.339   5.491
   92SAPC   H8R 8855   6.971   6.303   5.594
   92SAPC   C29 8856   6.993   6.252   5.392
   92SAPC   H9R 8857   7.026   6.152   5.425
   92SAPC  C210 8858   6.994   6.262   5.241
   92SAPC  H10R 8859   6.900   6.215   5.204
   92SAPC  H10S 8860   7.075   6.195   5.205
   92SAPC  C211 8861   7.012   6.393   5.169
   92SAPC  H11R 8862   7.035   6.481   5.232
   92SAPC  C212 8863   7.009   6.408   5.035
   92SAPC  H12R 8864   7.019   6.509   4.993
   92SAPC  C213 8865   6.987   6.299   4.933
   92SAPC  H13R 8866   6.982   6.198   4.981
   92SAPC  H13S 8867   7.076   6.294   4.867
   92SAPC  C214 8868   6.864   6.320   4.850
   92SAPC  H14R 8869   6.775   6.263   4.881
   92SAPC  C215 8870   6.853   6.403   4.745
   92SAPC  H15R 8871   6.758   6.407   4.689
   92SAPC  C216 8872   6.960   6.492   4.688
   92SAPC  H16R 8873   7.057   6.481   4.741
   92SAPC  H16S 8874   6.926   6.597   4.702
   92SAPC  C217 8875   6.983   6.464   4.539
   92SAPC  H17R 8876   7.056   6.537   4.498
   92SAPC  H17S 8877   6.887   6.480   4.485
   92SAPC  C218 8878   7.036   6.322   4.514
   92SAPC  H18R 8879   6.964   6.250   4.559
   92SAPC  H18S 8880   7.132   6.309   4.569
   92SAPC  C219 8881   7.056   6.285   4.367
   92SAPC  H19R 8882   7.067   6.175   4.360
   92SAPC  H19S 8883   7.151   6.330   4.330
   92SAPC  C220 8884   6.942   6.330   4.277
   92SAPC  H20R 8885   6.945   6.276   4.180
   92SAPC  H20S 8886   6.948   6.439   4.256
   92SAPC  H20T 8887   6.844   6.310   4.325
   92SAPC   C33 8888   0.010   6.222   5.566
   92SAPC   H3X 8889   7.230   6.167   5.517
   92SAPC   H3Y 8890   0.068   6.146   5.623
   92SAPC   C34 8891   0.098   6.284   5.456
   92SAPC   H4X 8892   0.192   6.226   5.455
   92SAPC   H4Y 8893   0.125   6.389   5.482
   92SAPC   C35 8894   0.039   6.278   5.314
   92SAPC   H5X 8895   7.261   6.352   5.306
   92SAPC   H5Y 8896   7.299   6.177   5.297
   92SAPC   C36 8897   0.145   6.304   5.206
   92SAPC   H6X 8898   0.227   6.230   5.217
   92SAPC   H6Y 8899   0.188   6.405   5.224
   92SAPC   C37 8900   0.093   6.298   5.061
   92SAPC   H7X 8901   0.139   6.381   5.003
   92SAPC   H7Y 8902   7.287   6.313   5.060
   92SAPC   C38 8903   0.128   6.166   4.989
   92SAPC   H8X 8904   0.094   6.082   5.053
   92SAPC   H8Y 8905   0.239   6.158   4.980
   92SAPC   C39 8906   0.064   6.149   4.850
   92SAPC   H9X 8907   7.258   6.149   4.865
   92SAPC   H9Y 8908   0.091   6.050   4.808
   92SAPC  C310 8909   0.096   6.258   4.745
   92SAPC  H10X 8910   0.079   6.359   4.789
   92SAPC  H10Y 8911   0.021   6.246   4.664
   92SAPC  C311 8912   0.236   6.252   4.678
   92SAPC  H11X 8913   0.252   6.149   4.639
   92SAPC  H11Y 8914   0.315   6.274   4.753
   92SAPC  C312 8915   0.242   6.352   4.560
   92SAPC  H12X 8916   0.235   6.455   4.602
   92SAPC  H12Y 8917   0.149   6.332   4.503
   92SAPC  C313 8918   0.359   6.344   4.458
   92SAPC  H13X 8919   0.320   6.303   4.363
   92SAPC  H13Y 8920   0.430   6.270   4.500
   92SAPC  C314 8921   0.440   6.475   4.432
   92SAPC  H14X 8922   0.545   6.450   4.406
   92SAPC  H14Y 8923   0.440   6.528   4.530
   92SAPC  C315 8924   0.392   6.585   4.336
   92SAPC  H15X 8925   0.406   6.681   4.391
   92SAPC  H15Y 8926   0.283   6.575   4.313
   92SAPC  C316 8927   0.462   6.614   4.203
   92SAPC  H16X 8928   0.478   6.522   4.143
   92SAPC  H16Y 8929   0.562   6.659   4.223
   92SAPC  C317 8930   0.378   6.710   4.117
   92SAPC  H17X 8931   0.293   6.653   4.073
   92SAPC  H17Y 8932   0.440   6.746   4.033
   92SAPC  C318 8933   0.321   6.833   4.189
   92SAPC  H18X 8934   0.284   6.906   4.114
   92SAPC  H18Y 8935   0.400   6.882   4.251
   92SAPC  H18Z 8936   0.236   6.805   4.255
   93SAPC     N 8937   0.084   0.489   6.249
   93SAPC   C12 8938   0.131   0.361   6.315
   93SAPC  H12A 8939   0.215   0.379   6.381
   93SAPC  H12B 8940   0.169   0.296   6.237
   93SAPC   C13 8941   7.289   0.563   6.334
   93SAPC  H13A 8942   7.202   0.501   6.350
   93SAPC  H13B 8943   0.023   0.596   6.429
   93SAPC  H13C 8944   7.252   0.649   6.280
   93SAPC   C14 8945   0.191   0.583   6.203
   93SAPC  H14A 8946   0.234   0.641   6.283
   93SAPC  H14B 8947   0.270   0.533   6.149
   93SAPC  H14C 8948   0.149   0.653   6.132
   93SAPC   C15 8949   0.012   0.446   6.125
   93SAPC  H15A 8950   0.077   0.395   6.056
   93SAPC  H15B 8951   7.234   0.380   6.151
   93SAPC  H15C 8952   7.275   0.531   6.072
   93SAPC   C11 8953   0.023   0.278   6.390
   93SAPC  H11A 8954   7.286   0.335   6.476
   93SAPC  H11B 8955   0.073   0.187   6.432
   93SAPC     P 8956   7.070   0.267   6.316
   93SAPC   O13 8957   7.025   0.241   6.455
   93SAPC   O14 8958   7.046   0.402   6.261
   93SAPC   O12 8959   7.224   0.234   6.301
   93SAPC   O11 8960   7.004   0.161   6.219
   93SAPC    C1 8961   7.004   0.024   6.259
   93SAPC    HA 8962   7.100   7.299   6.306
   93SAPC    HB 8963   6.925   0.009   6.336
   93SAPC    C2 8964   6.972   7.227   6.142
   93SAPC    HS 8965   6.978   7.123   6.180
   93SAPC   O21 8966   7.058   7.239   6.028
   93SAPC   C21 8967   7.186   7.262   6.034
   93SAPC   O22 8968   7.254   7.271   6.134
   93SAPC   C22 8969   7.242   7.259   5.892
   93SAPC   H2R 8970   0.048   7.249   5.906
   93SAPC   H2S 8971   7.204   7.168   5.841
   93SAPC    C3 8972   6.829   7.249   6.090
   93SAPC    HX 8973   6.758   7.220   6.170
   93SAPC    HY 8974   6.810   7.181   6.004
   93SAPC   O31 8975   6.810   0.084   6.057
   93SAPC   C31 8976   6.861   0.118   5.938
   93SAPC   O32 8977   6.886   0.040   5.848
   93SAPC   C32 8978   6.873   0.269   5.931
   93SAPC   H2X 8979   6.961   0.302   5.991
   93SAPC   H2Y 8980   6.781   0.312   5.976
   93SAPC   C23 8981   7.209   0.081   5.807
   93SAPC   H3R 8982   7.102   0.080   5.778
   93SAPC   H3S 8983   7.265   0.075   5.710
   93SAPC   C24 8984   7.242   0.214   5.876
   93SAPC   H4R 8985   7.179   0.225   5.966
   93SAPC   H4S 8986   7.214   0.297   5.807
   93SAPC   C25 8987   0.085   0.220   5.913
   93SAPC   H5R 8988   0.111   0.169   6.006
   93SAPC   C26 8989   0.183   0.273   5.838
   93SAPC   H6R 8990   0.286   0.270   5.877
   93SAPC   C27 8991   0.169   0.337   5.704
   93SAPC   H7R 8992   0.179   0.446   5.725
   93SAPC   H7S 8993   0.067   0.320   5.663
   93SAPC   C28 8994   0.272   0.311   5.597
   93SAPC   H8R 8995   0.372   0.350   5.619
   93SAPC   C29 8996   0.252   0.249   5.479
   93SAPC   H9R 8997   0.338   0.241   5.412
   93SAPC  C210 8998   0.122   0.190   5.427
   93SAPC  H10R 8999   0.042   0.266   5.422
   93SAPC  H10S 9000   0.085   0.114   5.499
   93SAPC  C211 9001   0.141   0.125   5.291
   93SAPC  H11R 9002   0.245   0.123   5.253
   93SAPC  C212 9003   0.046   0.070   5.214
   93SAPC  H12R 9004   0.077   0.027   5.117
   93SAPC  C213 9005   7.203   0.059   5.243
   93SAPC  H13R 9006   7.177   0.107   5.340
   93SAPC  H13S 9007   7.174   7.256   5.253
   93SAPC  C214 9008   7.127   0.127   5.132
   93SAPC  H14R 9009   7.149   0.234   5.119
   93SAPC  C215 9010   7.038   0.071   5.048
   93SAPC  H15R 9011   6.989   0.135   4.974
   93SAPC  C216 9012   6.992   7.231   5.044
   93SAPC  H16R 9013   6.957   7.200   5.144
   93SAPC  H16S 9014   7.073   7.162   5.013
   93SAPC  C217 9015   6.874   7.219   4.945
   93SAPC  H17R 9016   6.816   0.010   4.943
   93SAPC  H17S 9017   6.805   7.138   4.977
   93SAPC  C218 9018   6.912   7.195   4.799
   93SAPC  H18R 9019   6.942   7.088   4.790
   93SAPC  H18S 9020   7.000   7.258   4.774
   93SAPC  C219 9021   6.797   7.228   4.703
   93SAPC  H19R 9022   6.779   0.034   4.705
   93SAPC  H19S 9023   6.705   7.180   4.741
   93SAPC  C220 9024   6.819   7.183   4.558
   93SAPC  H20R 9025   6.908   7.233   4.514
   93SAPC  H20S 9026   6.731   7.208   4.495
   93SAPC  H20T 9027   6.836   7.073   4.553
   93SAPC   C33 9028   6.887   0.313   5.784
   93SAPC   H3X 9029   6.843   0.236   5.717
   93SAPC   H3Y 9030   6.993   0.324   5.754
   93SAPC   C34 9031   6.810   0.442   5.756
   93SAPC   H4X 9032   6.868   0.530   5.791
   93SAPC   H4Y 9033   6.714   0.442   5.811
   93SAPC   C35 9034   6.779   0.450   5.606
   93SAPC   H5X 9035   6.688   0.512   5.588
   93SAPC   H5Y 9036   6.757   0.349   5.567
   93SAPC   C36 9037   6.897   0.501   5.527
   93SAPC   H6X 9038   6.980   0.519   5.598
   93SAPC   H6Y 9039   6.875   0.601   5.483
   93SAPC   C37 9040   6.939   0.400   5.421
   93SAPC   H7X 9041   6.854   0.376   5.354
   93SAPC   H7Y 9042   6.969   0.305   5.470
   93SAPC   C38 9043   7.056   0.452   5.339
   93SAPC   H8X 9044   7.087   0.374   5.266
   93SAPC   H8Y 9045   7.142   0.466   5.408
   93SAPC   C39 9046   7.028   0.584   5.266
   93SAPC   H9X 9047   7.118   0.619   5.212
   93SAPC   H9Y 9048   7.004   0.665   5.338
   93SAPC  C310 9049   6.913   0.574   5.165
   93SAPC  H10X 9050   6.902   0.674   5.118
   93SAPC  H10Y 9051   6.819   0.549   5.219
   93SAPC  C311 9052   6.936   0.468   5.057
   93SAPC  H11X 9053   6.854   0.478   4.982
   93SAPC  H11Y 9054   6.927   0.367   5.101
   93SAPC  C312 9055   7.072   0.483   4.990
   93SAPC  H12X 9056   7.151   0.449   5.060
   93SAPC  H12Y 9057   7.093   0.590   4.966
   93SAPC  C313 9058   7.082   0.400   4.864
   93SAPC  H13X 9059   7.029   0.452   4.782
   93SAPC  H13Y 9060   7.032   0.302   4.880
   93SAPC  C314 9061   7.225   0.374   4.818
   93SAPC  H14X 9062   7.282   0.320   4.897
   93SAPC  H14Y 9063   7.274   0.472   4.799
   93SAPC  C315 9064   7.223   0.294   4.688
   93SAPC  H15X 9065   7.173   0.356   4.611
   93SAPC  H15Y 9066   7.162   0.203   4.704
   93SAPC  C316 9067   0.058   0.252   4.639
   93SAPC  H16X 9068   0.106   0.193   4.720
   93SAPC  H16Y 9069   0.121   0.340   4.618
   93SAPC  C317 9070   0.045   0.163   4.515
   93SAPC  H17X 9071   7.276   0.083   4.541
   93SAPC  H17Y 9072   0.142   0.112   4.494
   93SAPC  C318 9073   0.001   0.236   4.388
   93SAPC  H18X 9074   0.077   0.310   4.357
   93SAPC  H18Y 9075   7.208   0.289   4.404
   93SAPC  H18Z 9076   7.291   0.163   4.305
   94SAPC     N 9077   7.104   6.980   6.404
   94SAPC   C12 9078   7.198   7.044   6.303
   94SAPC  H12A 9079   7.274   7.100   6.355
   94SAPC  H12B 9080   7.148   7.120   6.245
   94SAPC   C13 9081   7.034   7.082   6.489
   94SAPC  H13A 9082   6.967   7.033   6.558
   94SAPC  H13B 9083   7.105   7.141   6.546
   94SAPC  H13C 9084   6.975   7.149   6.428
   94SAPC   C14 9085   6.997   6.898   6.337
   94SAPC  H14A 9086   6.942   6.954   6.263
   94SAPC  H14B 9087   7.040   6.814   6.284
   94SAPC  H14C 9088   6.927   6.859   6.409
   94SAPC   C15 9089   7.183   6.889   6.492
   94SAPC  H15A 9090   7.241   6.821   6.431
   94SAPC  H15B 9091   7.254   6.945   6.551
   94SAPC  H15C 9092   7.119   6.833   6.559
   94SAPC   C11 9093   7.275   6.953   6.203
   94SAPC  H11A 9094   7.289   7.007   6.107
   94SAPC  H11B 9095   7.214   6.863   6.180
   94SAPC     P 9096   0.212   7.019   6.273
   94SAPC   O13 9097   0.161   7.123   6.367
   94SAPC   O14 9098   0.333   6.951   6.318
   94SAPC   O12 9099   0.096   6.912   6.257
   94SAPC   O11 9100   0.239   7.084   6.132
   94SAPC    C1 9101   0.362   7.158   6.119
   94SAPC    HA 9102   0.338   7.266   6.123
   94SAPC    HB 9103   0.437   7.139   6.200
   94SAPC    C2 9104   0.440   7.130   5.987
   94SAPC    HS 9105   0.515   7.210   5.975
   94SAPC   O21 9106   0.348   7.126   5.875
   94SAPC   C21 9107   0.311   7.249   5.843
   94SAPC   O22 9108   0.349   0.046   5.899
   94SAPC   C22 9109   0.223   7.247   5.719
   94SAPC   H2R 9110   0.146   7.167   5.728
   94SAPC   H2S 9111   0.172   0.042   5.713
   94SAPC    C3 9112   0.524   6.999   5.991
   94SAPC    HX 9113   0.587   7.002   6.082
   94SAPC    HY 9114   0.593   6.997   5.904
   94SAPC   O31 9115   0.441   6.882   5.998
   94SAPC   C31 9116   0.412   6.829   5.881
   94SAPC   O32 9117   0.469   6.850   5.775
   94SAPC   C32 9118   0.286   6.748   5.899
   94SAPC   H2X 9119   0.292   6.698   5.998
   94SAPC   H2Y 9120   0.283   6.669   5.820
   94SAPC   C23 9121   0.303   7.229   5.590
   94SAPC   H3R 9122   0.242   7.265   5.504
   94SAPC   H3S 9123   0.317   7.120   5.571
   94SAPC   C24 9124   0.438   0.001   5.591
   94SAPC   H4R 9125   0.432   0.092   5.655
   94SAPC   H4S 9126   0.462   0.040   5.489
   94SAPC   C25 9127   0.542   7.209   5.640
   94SAPC   H5R 9128   0.564   7.219   5.747
   94SAPC   C26 9129   0.611   7.117   5.570
   94SAPC   H6R 9130   0.681   7.054   5.626
   94SAPC   C27 9131   0.607   7.081   5.423
   94SAPC   H7R 9132   0.594   6.971   5.422
   94SAPC   H7S 9133   0.707   7.099   5.378
   94SAPC   C28 9134   0.500   7.139   5.335
   94SAPC   H8R 9135   0.409   7.174   5.386
   94SAPC   C29 9136   0.491   7.138   5.203
   94SAPC   H9R 9137   0.404   7.189   5.159
   94SAPC  C210 9138   0.585   7.079   5.103
   94SAPC  H10R 9139   0.575   6.969   5.107
   94SAPC  H10S 9140   0.691   7.101   5.128
   94SAPC  C211 9141   0.548   7.121   4.964
   94SAPC  H11R 9142   0.521   7.036   4.900
   94SAPC  C212 9143   0.523   7.244   4.916
   94SAPC  H12R 9144   0.493   7.250   4.810
   94SAPC  C213 9145   0.526   0.072   4.990
   94SAPC  H13R 9146   0.612   0.132   4.953
   94SAPC  H13S 9147   0.542   0.061   5.099
   94SAPC  C214 9148   0.398   0.150   4.971
   94SAPC  H14R 9149   0.334   0.162   5.059
   94SAPC  C215 9150   0.362   0.203   4.854
   94SAPC  H15R 9151   0.266   0.257   4.846
   94SAPC  C216 9152   0.443   0.192   4.728
   94SAPC  H16R 9153   0.542   0.144   4.743
   94SAPC  H16S 9154   0.466   0.295   4.693
   94SAPC  C217 9155   0.371   0.120   4.614
   94SAPC  H17R 9156   0.324   0.199   4.552
   94SAPC  H17S 9157   0.291   0.054   4.653
   94SAPC  C218 9158   0.463   0.036   4.527
   94SAPC  H18R 9159   0.485   7.244   4.578
   94SAPC  H18S 9160   0.560   0.087   4.511
   94SAPC  C219 9161   0.399   0.010   4.390
   94SAPC  H19R 9162   0.391   0.106   4.335
   94SAPC  H19S 9163   0.296   7.274   4.405
   94SAPC  C220 9164   0.479   7.213   4.308
   94SAPC  H20R 9165   0.437   7.205   4.205
   94SAPC  H20S 9166   0.470   7.112   4.354
   94SAPC  H20T 9167   0.586   7.242   4.302
   94SAPC   C33 9168   0.163   6.842   5.895
   94SAPC   H3X 9169   0.184   6.934   5.953
   94SAPC   H3Y 9170   0.078   6.791   5.946
   94SAPC   C34 9171   0.117   6.881   5.754
   94SAPC   H4X 9172   0.202   6.928   5.700
   94SAPC   H4Y 9173   0.036   6.956   5.762
   94SAPC   C35 9174   0.065   6.761   5.672
   94SAPC   H5X 9175   7.296   6.703   5.732
   94SAPC   H5Y 9176   0.152   6.693   5.656
   94SAPC   C36 9177   0.009   6.799   5.535
   94SAPC   H6X 9178   0.067   6.886   5.496
   94SAPC   H6Y 9179   7.208   6.834   5.545
   94SAPC   C37 9180   0.019   6.686   5.431
   94SAPC   H7X 9181   7.285   6.589   5.472
   94SAPC   H7Y 9182   0.126   6.665   5.411
   94SAPC   C38 9183   7.249   6.724   5.300
   94SAPC   H8X 9184   7.269   6.832   5.281
   94SAPC   H8Y 9185   7.139   6.716   5.312
   94SAPC   C39 9186   7.292   6.648   5.174
   94SAPC   H9X 9187   7.263   6.541   5.183
   94SAPC   H9Y 9188   0.099   6.651   5.164
   94SAPC  C310 9189   7.228   6.710   5.049
   94SAPC  H10X 9190   7.264   6.815   5.040
   94SAPC  H10Y 9191   7.118   6.713   5.061
   94SAPC  C311 9192   7.262   6.637   4.918
   94SAPC  H11X 9193   7.209   6.540   4.914
   94SAPC  H11Y 9194   0.067   6.613   4.918
   94SAPC  C312 9195   7.233   6.717   4.789
   94SAPC  H12X 9196   7.225   6.644   4.706
   94SAPC  H12Y 9197   0.021   6.779   4.774
   94SAPC  C313 9198   7.115   6.817   4.785
   94SAPC  H13X 9199   7.147   6.915   4.826
   94SAPC  H13Y 9200   7.038   6.776   4.854
   94SAPC  C314 9201   7.043   6.835   4.648
   94SAPC  H14X 9202   6.942   6.873   4.672
   94SAPC  H14Y 9203   7.031   6.735   4.602
   94SAPC  C315 9204   7.098   6.925   4.535
   94SAPC  H15X 9205   7.016   6.934   4.461
   94SAPC  H15Y 9206   7.183   6.879   4.480
   94SAPC  C316 9207   7.144   7.066   4.570
   94SAPC  H16X 9208   7.236   7.065   4.632
   94SAPC  H16Y 9209   7.065   7.115   4.631
   94SAPC  C317 9210   7.165   7.152   4.445
   94SAPC  H17X 9211   7.139   7.257   4.470
   94SAPC  H17Y 9212   7.095   7.120   4.365
   94SAPC  C318 9213   0.005   7.148   4.392
   94SAPC  H18X 9214   0.016   7.225   4.313
   94SAPC  H18Y 9215   0.029   7.048   4.350
   94SAPC  H18Z 9216   0.077   7.171   4.473
   95SAPC     N 9217   4.856   2.585   2.139
   95SAPC   C12 9218   4.916   2.721   2.105
   95SAPC  H12A 9219   4.935   2.728   1.999
   95SAPC  H12B 9220   5.012   2.729   2.154
   95SAPC   C13 9221   4.876   2.564   2.286
   95SAPC  H13A 9222   4.831   2.646   2.340
   95SAPC  H13B 9223   4.834   2.471   2.321
   95SAPC  H13C 9224   4.981   2.569   2.312
   95SAPC   C14 9225   4.709   2.588   2.109
   95SAPC  H14A 9226   4.659   2.496   2.134
   95SAPC  H14B 9227   4.664   2.668   2.165
   95SAPC  H14C 9228   4.691   2.610   2.005
   95SAPC   C15 9229   4.926   2.478   2.062
   95SAPC  H15A 9230   4.887   2.380   2.088
   95SAPC  H15B 9231   4.912   2.493   1.956
   95SAPC  H15C 9232   5.032   2.479   2.083
   95SAPC   C11 9233   4.836   2.848   2.147
   95SAPC  H11A 9234   4.741   2.853   2.090
   95SAPC  H11B 9235   4.893   2.939   2.118
   95SAPC     P 9236   4.911   2.901   2.393
   95SAPC   O13 9237   4.922   3.048   2.379
   95SAPC   O14 9238   4.876   2.843   2.524
   95SAPC   O12 9239   4.806   2.848   2.287
   95SAPC   O11 9240   5.044   2.831   2.342
   95SAPC    C1 9241   5.142   2.897   2.262
   95SAPC    HA 9242   5.167   2.833   2.175
   95SAPC    HB 9243   5.105   2.993   2.219
   95SAPC    C2 9244   5.276   2.927   2.336
   95SAPC    HS 9245   5.349   2.961   2.259
   95SAPC   O21 9246   5.331   2.817   2.412
   95SAPC   C21 9247   5.282   2.695   2.395
   95SAPC   O22 9248   5.261   2.639   2.289
   95SAPC   C22 9249   5.266   2.628   2.532
   95SAPC   H2R 9250   5.300   2.523   2.520
   95SAPC   H2S 9251   5.330   2.680   2.606
   95SAPC    C3 9252   5.258   3.043   2.438
   95SAPC    HX 9253   5.202   3.126   2.389
   95SAPC    HY 9254   5.359   3.080   2.463
   95SAPC   O31 9255   5.188   2.998   2.556
   95SAPC   C31 9256   5.199   3.079   2.659
   95SAPC   O32 9257   5.272   3.177   2.665
   95SAPC   C32 9258   5.110   3.029   2.772
   95SAPC   H2X 9259   5.151   2.932   2.808
   95SAPC   H2Y 9260   5.010   3.010   2.728
   95SAPC   C23 9261   5.121   2.628   2.587
   95SAPC   H3R 9262   5.048   2.637   2.504
   95SAPC   H3S 9263   5.106   2.718   2.650
   95SAPC   C24 9264   5.084   2.500   2.666
   95SAPC   H4R 9265   5.078   2.417   2.592
   95SAPC   H4S 9266   4.981   2.514   2.705
   95SAPC   C25 9267   5.175   2.457   2.778
   95SAPC   H5R 9268   5.222   2.359   2.763
   95SAPC   C26 9269   5.206   2.525   2.890
   95SAPC   H6R 9270   5.270   2.475   2.964
   95SAPC   C27 9271   5.160   2.662   2.932
   95SAPC   H7R 9272   5.201   2.736   2.860
   95SAPC   H7S 9273   5.209   2.687   3.029
   95SAPC   C28 9274   5.011   2.682   2.946
   95SAPC   H8R 9275   4.965   2.738   2.863
   95SAPC   C29 9276   4.934   2.641   3.048
   95SAPC   H9R 9277   4.826   2.665   3.045
   95SAPC  C210 9278   4.981   2.565   3.170
   95SAPC  H10R 9279   5.089   2.582   3.187
   95SAPC  H10S 9280   4.971   2.456   3.149
   95SAPC  C211 9281   4.901   2.597   3.294
   95SAPC  H11R 9282   4.797   2.628   3.277
   95SAPC  C212 9283   4.946   2.594   3.421
   95SAPC  H12R 9284   4.877   2.622   3.502
   95SAPC  C213 9285   5.085   2.556   3.468
   95SAPC  H13R 9286   5.132   2.644   3.518
   95SAPC  H13S 9287   5.152   2.531   3.383
   95SAPC  C214 9288   5.078   2.438   3.561
   95SAPC  H14R 9289   5.043   2.346   3.512
   95SAPC  C215 9290   5.105   2.435   3.693
   95SAPC  H15R 9291   5.098   2.339   3.746
   95SAPC  C216 9292   5.147   2.551   3.780
   95SAPC  H16R 9293   5.136   2.524   3.887
   95SAPC  H16S 9294   5.080   2.638   3.762
   95SAPC  C217 9295   5.292   2.600   3.757
   95SAPC  H17R 9296   5.309   2.682   3.829
   95SAPC  H17S 9297   5.301   2.643   3.655
   95SAPC  C218 9298   5.403   2.495   3.775
   95SAPC  H18R 9299   5.500   2.545   3.753
   95SAPC  H18S 9300   5.391   2.414   3.700
   95SAPC  C219 9301   5.411   2.435   3.916
   95SAPC  H19R 9302   5.325   2.365   3.930
   95SAPC  H19S 9303   5.399   2.516   3.990
   95SAPC  C220 9304   5.542   2.361   3.942
   95SAPC  H20R 9305   5.628   2.431   3.930
   95SAPC  H20S 9306   5.555   2.277   3.870
   95SAPC  H20T 9307   5.545   2.321   4.045
   95SAPC   C33 9308   5.101   3.130   2.889
   95SAPC   H3X 9309   5.126   3.232   2.852
   95SAPC   H3Y 9310   5.177   3.106   2.966
   95SAPC   C34 9311   4.960   3.139   2.948
   95SAPC   H4X 9312   4.886   3.131   2.865
   95SAPC   H4Y 9313   4.946   3.239   2.994
   95SAPC   C35 9314   4.932   3.032   3.054
   95SAPC   H5X 9315   4.966   2.933   3.016
   95SAPC   H5Y 9316   4.823   3.027   3.072
   95SAPC   C36 9317   5.002   3.065   3.187
   95SAPC   H6X 9318   4.964   3.163   3.221
   95SAPC   H6Y 9319   5.112   3.075   3.171
   95SAPC   C37 9320   4.980   2.962   3.298
   95SAPC   H7X 9321   5.046   2.874   3.280
   95SAPC   H7Y 9322   4.875   2.925   3.297
   95SAPC   C38 9323   5.011   3.026   3.434
   95SAPC   H8X 9324   4.941   3.110   3.453
   95SAPC   H8Y 9325   5.112   3.073   3.425
   95SAPC   C39 9326   5.009   2.930   3.553
   95SAPC   H9X 9327   5.035   2.828   3.515
   95SAPC   H9Y 9328   4.905   2.924   3.593
   95SAPC  C310 9329   5.109   2.963   3.665
   95SAPC  H10X 9330   5.210   2.933   3.629
   95SAPC  H10Y 9331   5.087   2.901   3.754
   95SAPC  C311 9332   5.116   3.112   3.705
   95SAPC  H11X 9333   5.121   3.173   3.613
   95SAPC  H11Y 9334   5.210   3.130   3.761
   95SAPC  C312 9335   5.000   3.160   3.791
   95SAPC  H12X 9336   4.906   3.111   3.757
   95SAPC  H12Y 9337   4.987   3.270   3.780
   95SAPC  C313 9338   5.022   3.130   3.939
   95SAPC  H13X 9339   5.108   3.190   3.977
   95SAPC  H13Y 9340   5.050   3.023   3.947
   95SAPC  C314 9341   4.898   3.158   4.024
   95SAPC  H14X 9342   4.812   3.103   3.981
   95SAPC  H14Y 9343   4.874   3.266   4.020
   95SAPC  C315 9344   4.916   3.115   4.170
   95SAPC  H15X 9345   4.820   3.129   4.224
   95SAPC  H15Y 9346   4.991   3.184   4.216
   95SAPC  C316 9347   4.964   2.970   4.190
   95SAPC  H16X 9348   4.970   2.949   4.299
   95SAPC  H16Y 9349   5.067   2.959   4.149
   95SAPC  C317 9350   4.873   2.864   4.127
   95SAPC  H17X 9351   4.855   2.889   4.020
   95SAPC  H17Y 9352   4.774   2.867   4.178
   95SAPC  C318 9353   4.932   2.723   4.134
   95SAPC  H18X 9354   4.954   2.696   4.240
   95SAPC  H18Y 9355   5.026   2.718   4.076
   95SAPC  H18Z 9356   4.861   2.649   4.092
   96SAPC     N 9357   4.545   2.091   2.359
   96SAPC   C12 9358   4.594   2.011   2.238
   96SAPC  H12A 9359   4.624   1.913   2.271
   96SAPC  H12B 9360   4.683   2.057   2.198
   96SAPC   C13 9361   4.417   2.029   2.407
   96SAPC  H13A 9362   4.429   1.924   2.428
   96SAPC  H13B 9363   4.377   2.079   2.494
   96SAPC  H13C 9364   4.343   2.038   2.329
   96SAPC   C14 9365   4.645   2.088   2.471
   96SAPC  H14A 9366   4.608   2.144   2.556
   96SAPC  H14B 9367   4.663   1.987   2.503
   96SAPC  H14C 9368   4.739   2.133   2.440
   96SAPC   C15 9369   4.515   2.234   2.325
   96SAPC  H15A 9370   4.431   2.237   2.258
   96SAPC  H15B 9371   4.486   2.291   2.412
   96SAPC  H15C 9372   4.598   2.282   2.274
   96SAPC   C11 9373   4.499   1.986   2.118
   96SAPC  H11A 9374   4.406   1.936   2.153
   96SAPC  H11B 9375   4.549   1.911   2.053
   96SAPC     P 9376   4.335   2.177   2.036
   96SAPC   O13 9377   4.362   2.321   2.049
   96SAPC   O14 9378   4.253   2.133   1.921
   96SAPC   O12 9379   4.475   2.103   2.039
   96SAPC   O11 9380   4.270   2.128   2.170
   96SAPC    C1 9381   4.134   2.149   2.202
   96SAPC    HA 9382   4.066   2.110   2.124
   96SAPC    HB 9383   4.114   2.089   2.294
   96SAPC    C2 9384   4.100   2.298   2.235
   96SAPC    HS 9385   4.106   2.354   2.140
   96SAPC   O21 9386   4.198   2.348   2.328
   96SAPC   C21 9387   4.198   2.481   2.338
   96SAPC   O22 9388   4.138   2.557   2.264
   96SAPC   C22 9389   4.285   2.521   2.456
   96SAPC   H2R 9390   4.364   2.443   2.468
   96SAPC   H2S 9391   4.333   2.618   2.432
   96SAPC    C3 9392   3.957   2.315   2.293
   96SAPC    HX 9393   3.880   2.289   2.217
   96SAPC    HY 9394   3.939   2.423   2.316
   96SAPC   O31 9395   3.941   2.240   2.414
   96SAPC   C31 9396   3.888   2.118   2.402
   96SAPC   O32 9397   3.842   2.072   2.299
   96SAPC   C32 9398   3.894   2.054   2.539
   96SAPC   H2X 9399   3.833   1.961   2.534
   96SAPC   H2Y 9400   3.846   2.122   2.612
   96SAPC   C23 9401   4.203   2.532   2.587
   96SAPC   H3R 9402   4.119   2.460   2.587
   96SAPC   H3S 9403   4.157   2.633   2.592
   96SAPC   C24 9404   4.285   2.507   2.716
   96SAPC   H4R 9405   4.275   2.399   2.741
   96SAPC   H4S 9406   4.234   2.561   2.799
   96SAPC   C25 9407   4.430   2.547   2.710
   96SAPC   H5R 9408   4.450   2.636   2.648
   96SAPC   C26 9409   4.534   2.489   2.773
   96SAPC   H6R 9410   4.633   2.533   2.760
   96SAPC   C27 9411   4.528   2.369   2.865
   96SAPC   H7R 9412   4.599   2.291   2.829
   96SAPC   H7S 9413   4.428   2.321   2.863
   96SAPC   C28 9414   4.566   2.409   3.006
   96SAPC   H8R 9415   4.671   2.439   3.018
   96SAPC   C29 9416   4.486   2.413   3.114
   96SAPC   H9R 9417   4.529   2.446   3.210
   96SAPC  C210 9418   4.339   2.378   3.121
   96SAPC  H10R 9419   4.327   2.288   3.186
   96SAPC  H10S 9420   4.298   2.349   3.022
   96SAPC  C211 9421   4.257   2.493   3.174
   96SAPC  H11R 9422   4.245   2.578   3.105
   96SAPC  C212 9423   4.199   2.502   3.296
   96SAPC  H12R 9424   4.144   2.593   3.322
   96SAPC  C213 9425   4.204   2.399   3.407
   96SAPC  H13R 9426   4.166   2.302   3.367
   96SAPC  H13S 9427   4.133   2.428   3.486
   96SAPC  C214 9428   4.340   2.375   3.469
   96SAPC  H14R 9429   4.379   2.273   3.456
   96SAPC  C215 9430   4.415   2.464   3.537
   96SAPC  H15R 9431   4.512   2.431   3.579
   96SAPC  C216 9432   4.381   2.608   3.565
   96SAPC  H16R 9433   4.278   2.634   3.533
   96SAPC  H16S 9434   4.450   2.675   3.509
   96SAPC  C217 9435   4.393   2.642   3.715
   96SAPC  H17R 9436   4.379   2.751   3.728
   96SAPC  H17S 9437   4.495   2.618   3.751
   96SAPC  C218 9438   4.288   2.569   3.800
   96SAPC  H18R 9439   4.297   2.459   3.785
   96SAPC  H18S 9440   4.188   2.599   3.765
   96SAPC  C219 9441   4.298   2.598   3.951
   96SAPC  H19R 9442   4.214   2.546   4.000
   96SAPC  H19S 9443   4.286   2.707   3.967
   96SAPC  C220 9444   4.428   2.551   4.017
   96SAPC  H20R 9445   4.424   2.568   4.127
   96SAPC  H20S 9446   4.516   2.606   3.976
   96SAPC  H20T 9447   4.443   2.442   3.999
   96SAPC   C33 9448   4.037   2.020   2.591
   96SAPC   H3X 9449   4.079   1.933   2.537
   96SAPC   H3Y 9450   4.018   1.989   2.696
   96SAPC   C34 9451   4.138   2.135   2.600
   96SAPC   H4X 9452   4.083   2.231   2.615
   96SAPC   H4Y 9453   4.191   2.145   2.502
   96SAPC   C35 9454   4.240   2.126   2.716
   96SAPC   H5X 9455   4.188   2.159   2.809
   96SAPC   H5Y 9456   4.322   2.199   2.697
   96SAPC   C36 9457   4.303   1.989   2.746
   96SAPC   H6X 9458   4.365   1.957   2.659
   96SAPC   H6Y 9459   4.224   1.912   2.759
   96SAPC   C37 9460   4.392   1.990   2.872
   96SAPC   H7X 9461   4.471   2.068   2.862
   96SAPC   H7Y 9462   4.444   1.892   2.877
   96SAPC   C38 9463   4.317   2.011   3.005
   96SAPC   H8X 9464   4.237   1.935   3.012
   96SAPC   H8Y 9465   4.269   2.111   3.008
   96SAPC   C39 9466   4.408   1.992   3.127
   96SAPC   H9X 9467   4.475   2.080   3.138
   96SAPC   H9Y 9468   4.471   1.903   3.109
   96SAPC  C310 9469   4.331   1.968   3.259
   96SAPC  H10X 9470   4.258   1.887   3.243
   96SAPC  H10Y 9471   4.275   2.060   3.288
   96SAPC  C311 9472   4.429   1.927   3.370
   96SAPC  H11X 9473   4.496   2.012   3.394
   96SAPC  H11Y 9474   4.491   1.845   3.329
   96SAPC  C312 9475   4.364   1.874   3.499
   96SAPC  H12X 9476   4.446   1.826   3.557
   96SAPC  H12Y 9477   4.289   1.795   3.477
   96SAPC  C313 9478   4.303   1.982   3.590
   96SAPC  H13X 9479   4.201   2.007   3.557
   96SAPC  H13Y 9480   4.365   2.074   3.583
   96SAPC  C314 9481   4.303   1.937   3.738
   96SAPC  H14X 9482   4.406   1.902   3.763
   96SAPC  H14Y 9483   4.235   1.850   3.751
   96SAPC  C315 9484   4.268   2.049   3.836
   96SAPC  H15X 9485   4.328   2.139   3.809
   96SAPC  H15Y 9486   4.299   2.019   3.939
   96SAPC  C316 9487   4.120   2.087   3.838
   96SAPC  H16X 9488   4.086   2.105   3.733
   96SAPC  H16Y 9489   4.109   2.182   3.893
   96SAPC  C317 9490   4.027   1.983   3.903
   96SAPC  H17X 9491   4.041   1.884   3.855
   96SAPC  H17Y 9492   3.921   2.013   3.883
   96SAPC  C318 9493   4.044   1.970   4.055
   96SAPC  H18X 9494   4.145   1.932   4.080
   96SAPC  H18Y 9495   3.968   1.900   4.097
   96SAPC  H18Z 9496   4.031   2.069   4.104
   97SAPC     N 9497   2.271   2.048   2.204
   97SAPC   C12 9498   2.413   2.007   2.167
   97SAPC  H12A 9499   2.474   2.002   2.256
   97SAPC  H12B 9500   2.457   2.083   2.103
   97SAPC   C13 9501   2.262   2.194   2.239
   97SAPC  H13A 9502   2.298   2.256   2.158
   97SAPC  H13B 9503   2.160   2.222   2.256
   97SAPC  H13C 9504   2.319   2.217   2.327
   97SAPC   C14 9505   2.177   2.019   2.091
   97SAPC  H14A 9506   2.178   1.913   2.071
   97SAPC  H14B 9507   2.077   2.048   2.116
   97SAPC  H14C 9508   2.208   2.069   2.001
   97SAPC   C15 9509   2.227   1.967   2.322
   97SAPC  H15A 9510   2.239   1.862   2.301
   97SAPC  H15B 9511   2.288   1.984   2.409
   97SAPC  H15C 9512   2.124   1.984   2.350
   97SAPC   C11 9513   2.434   1.870   2.097
   97SAPC  H11A 9514   2.541   1.858   2.071
   97SAPC  H11B 9515   2.378   1.870   2.001
   97SAPC     P 9516   2.472   1.717   2.305
   97SAPC   O13 9517   2.533   1.584   2.279
   97SAPC   O14 9518   2.559   1.830   2.343
   97SAPC   O12 9519   2.388   1.759   2.177
   97SAPC   O11 9520   2.354   1.705   2.410
   97SAPC    C1 9521   2.324   1.582   2.476
   97SAPC    HA 9522   2.298   1.503   2.402
   97SAPC    HB 9523   2.414   1.549   2.533
   97SAPC    C2 9524   2.207   1.599   2.577
   97SAPC    HS 9525   2.123   1.644   2.521
   97SAPC   O21 9526   2.250   1.686   2.682
   97SAPC   C21 9527   2.232   1.814   2.670
   97SAPC   O22 9528   2.166   1.872   2.585
   97SAPC   C22 9529   2.306   1.884   2.785
   97SAPC   H2R 9530   2.323   1.812   2.867
   97SAPC   H2S 9531   2.404   1.919   2.747
   97SAPC    C3 9532   2.148   1.466   2.642
   97SAPC    HX 9533   2.098   1.412   2.559
   97SAPC    HY 9534   2.069   1.511   2.706
   97SAPC   O31 9535   2.232   1.371   2.717
   97SAPC   C31 9536   2.186   1.334   2.842
   97SAPC   O32 9537   2.086   1.382   2.889
   97SAPC   C32 9538   2.262   1.222   2.926
   97SAPC   H2X 9539   2.237   1.128   2.874
   97SAPC   H2Y 9540   2.200   1.219   3.018
   97SAPC   C23 9541   2.222   2.002   2.838
   97SAPC   H3R 9542   2.124   1.961   2.871
   97SAPC   H3S 9543   2.201   2.074   2.755
   97SAPC   C24 9544   2.289   2.075   2.955
   97SAPC   H4R 9545   2.382   2.125   2.921
   97SAPC   H4S 9546   2.317   2.001   3.033
   97SAPC   C25 9547   2.188   2.174   3.005
   97SAPC   H5R 9548   2.172   2.262   2.940
   97SAPC   C26 9549   2.116   2.162   3.117
   97SAPC   H6R 9550   2.037   2.235   3.135
   97SAPC   C27 9551   2.119   2.049   3.218
   97SAPC   H7R 9552   2.054   2.076   3.304
   97SAPC   H7S 9553   2.222   2.042   3.259
   97SAPC   C28 9554   2.075   1.916   3.165
   97SAPC   H8R 9555   2.008   1.917   3.077
   97SAPC   C29 9556   2.110   1.798   3.219
   97SAPC   H9R 9557   2.076   1.706   3.169
   97SAPC  C210 9558   2.197   1.779   3.340
   97SAPC  H10R 9559   2.204   1.873   3.399
   97SAPC  H10S 9560   2.299   1.751   3.306
   97SAPC  C211 9561   2.146   1.670   3.430
   97SAPC  H11R 9562   2.037   1.661   3.434
   97SAPC  C212 9563   2.217   1.585   3.504
   97SAPC  H12R 9564   2.161   1.511   3.564
   97SAPC  C213 9565   2.366   1.579   3.517
   97SAPC  H13R 9566   2.418   1.646   3.446
   97SAPC  H13S 9567   2.402   1.476   3.492
   97SAPC  C214 9568   2.406   1.613   3.658
   97SAPC  H14R 9569   2.455   1.711   3.671
   97SAPC  C215 9570   2.385   1.536   3.766
   97SAPC  H15R 9571   2.419   1.572   3.864
   97SAPC  C216 9572   2.319   1.400   3.766
   97SAPC  H16R 9573   2.287   1.369   3.664
   97SAPC  H16S 9574   2.226   1.402   3.828
   97SAPC  C217 9575   2.410   1.287   3.819
   97SAPC  H17R 9576   2.500   1.280   3.754
   97SAPC  H17S 9577   2.357   1.190   3.807
   97SAPC  C218 9578   2.452   1.302   3.965
   97SAPC  H18R 9579   2.457   1.410   3.989
   97SAPC  H18S 9580   2.552   1.257   3.979
   97SAPC  C219 9581   2.355   1.237   4.064
   97SAPC  H19R 9582   2.357   1.127   4.048
   97SAPC  H19S 9583   2.253   1.274   4.038
   97SAPC  C220 9584   2.380   1.270   4.211
   97SAPC  H20R 9585   2.485   1.248   4.239
   97SAPC  H20S 9586   2.314   1.209   4.276
   97SAPC  H20T 9587   2.360   1.378   4.231
   97SAPC   C33 9588   2.415   1.200   2.975
   97SAPC   H3X 9589   2.483   1.178   2.890
   97SAPC   H3Y 9590   2.401   1.098   3.016
   97SAPC   C34 9591   2.495   1.265   3.098
   97SAPC   H4X 9592   2.560   1.178   3.121
   97SAPC   H4Y 9593   2.433   1.271   3.190
   97SAPC   C35 9594   2.609   1.378   3.102
   97SAPC   H5X 9595   2.671   1.391   3.010
   97SAPC   H5Y 9596   2.682   1.328   3.168
   97SAPC   C36 9597   2.599   1.518   3.177
   97SAPC   H6X 9598   2.705   1.531   3.205
   97SAPC   H6Y 9599   2.542   1.510   3.272
   97SAPC   C37 9600   2.567   1.653   3.104
   97SAPC   H7X 9601   2.459   1.676   3.111
   97SAPC   H7Y 9602   2.598   1.642   2.998
   97SAPC   C38 9603   2.621   1.789   3.154
   97SAPC   H8X 9604   2.615   1.860   3.069
   97SAPC   H8Y 9605   2.727   1.781   3.183
   97SAPC   C39 9606   2.546   1.853   3.270
   97SAPC   H9X 9607   2.553   1.785   3.358
   97SAPC   H9Y 9608   2.439   1.866   3.241
   97SAPC  C310 9609   2.599   1.991   3.307
   97SAPC  H10X 9610   2.555   2.066   3.237
   97SAPC  H10Y 9611   2.709   1.994   3.294
   97SAPC  C311 9612   2.567   2.032   3.452
   97SAPC  H11X 9613   2.590   2.140   3.462
   97SAPC  H11Y 9614   2.633   1.975   3.520
   97SAPC  C312 9615   2.423   2.004   3.496
   97SAPC  H12X 9616   2.402   1.896   3.481
   97SAPC  H12Y 9617   2.351   2.062   3.434
   97SAPC  C313 9618   2.398   2.032   3.644
   97SAPC  H13X 9619   2.403   2.141   3.664
   97SAPC  H13Y 9620   2.477   1.982   3.704
   97SAPC  C314 9621   2.261   1.980   3.689
   97SAPC  H14X 9622   2.251   1.873   3.660
   97SAPC  H14Y 9623   2.181   2.036   3.636
   97SAPC  C315 9624   2.241   1.992   3.840
   97SAPC  H15X 9625   2.255   2.098   3.871
   97SAPC  H15Y 9626   2.319   1.931   3.891
   97SAPC  C316 9627   2.103   1.943   3.883
   97SAPC  H16X 9628   2.090   1.838   3.850
   97SAPC  H16Y 9629   2.024   2.005   3.834
   97SAPC  C317 9630   2.087   1.950   4.035
   97SAPC  H17X 9631   2.098   2.055   4.070
   97SAPC  H17Y 9632   2.168   1.890   4.081
   97SAPC  C318 9633   1.952   1.895   4.080
   97SAPC  H18X 9634   1.955   1.879   4.190
   97SAPC  H18Y 9635   1.933   1.796   4.033
   97SAPC  H18Z 9636   1.869   1.964   4.055
   98SAPC     N 9637   0.609   2.813   2.050
   98SAPC   C12 9638   0.486   2.903   2.055
   98SAPC  H12A 9639   0.397   2.846   2.032
   98SAPC  H12B 9640   0.497   2.979   1.980
   98SAPC   C13 9641   0.611   2.726   2.172
   98SAPC  H13A 9642   0.610   2.790   2.259
   98SAPC  H13B 9643   0.522   2.664   2.175
   98SAPC  H13C 9644   0.698   2.663   2.174
   98SAPC   C14 9645   0.611   2.731   1.926
   98SAPC  H14A 9646   0.695   2.663   1.923
   98SAPC  H14B 9647   0.521   2.671   1.914
   98SAPC  H14C 9648   0.620   2.793   1.838
   98SAPC   C15 9649   0.731   2.901   2.049
   98SAPC  H15A 9650   0.735   2.960   1.959
   98SAPC  H15B 9651   0.724   2.971   2.131
   98SAPC  H15C 9652   0.822   2.844   2.058
   98SAPC   C11 9653   0.460   2.976   2.190
   98SAPC  H11A 9654   0.423   2.904   2.266
   98SAPC  H11B 9655   0.379   3.050   2.173
   98SAPC     P 9656   0.580   3.161   2.332
   98SAPC   O13 9657   0.720   3.208   2.339
   98SAPC   O14 9658   0.474   3.253   2.285
   98SAPC   O12 9659   0.580   3.037   2.235
   98SAPC   O11 9660   0.538   3.090   2.466
   98SAPC    C1 9661   0.616   2.982   2.519
   98SAPC    HA 9662   0.687   2.939   2.445
   98SAPC    HB 9663   0.675   3.021   2.604
   98SAPC    C2 9664   0.525   2.868   2.569
   98SAPC    HS 9665   0.461   2.838   2.483
   98SAPC   O21 9666   0.444   2.921   2.674
   98SAPC   C21 9667   0.344   2.845   2.709
   98SAPC   O22 9668   0.304   2.746   2.650
   98SAPC   C22 9669   0.283   2.900   2.837
   98SAPC   H2R 9670   0.238   2.998   2.810
   98SAPC   H2S 9671   0.204   2.828   2.869
   98SAPC    C3 9672   0.602   2.742   2.618
   98SAPC    HX 9673   0.662   2.699   2.535
   98SAPC    HY 9674   0.528   2.663   2.645
   98SAPC   O31 9675   0.680   2.770   2.736
   98SAPC   C31 9676   0.804   2.809   2.713
   98SAPC   O32 9677   0.864   2.797   2.607
   98SAPC   C32 9678   0.857   2.884   2.835
   98SAPC   H2X 9679   0.934   2.953   2.796
   98SAPC   H2Y 9680   0.905   2.811   2.904
   98SAPC   C23 9681   0.386   2.924   2.949
   98SAPC   H3R 9682   0.347   3.002   3.018
   98SAPC   H3S 9683   0.479   2.965   2.904
   98SAPC   C24 9684   0.422   2.801   3.032
   98SAPC   H4R 9685   0.507   2.827   3.100
   98SAPC   H4S 9686   0.460   2.721   2.964
   98SAPC   C25 9687   0.302   2.756   3.110
   98SAPC   H5R 9688   0.220   2.718   3.048
   98SAPC   C26 9689   0.283   2.758   3.243
   98SAPC   H6R 9690   0.182   2.735   3.279
   98SAPC   C27 9691   0.376   2.806   3.351
   98SAPC   H7R 9692   0.315   2.848   3.434
   98SAPC   H7S 9693   0.436   2.890   3.312
   98SAPC   C28 9694   0.466   2.698   3.405
   98SAPC   H8R 9695   0.417   2.610   3.449
   98SAPC   C29 9696   0.599   2.706   3.403
   98SAPC   H9R 9697   0.658   2.623   3.446
   98SAPC  C210 9698   0.678   2.822   3.345
   98SAPC  H10R 9699   0.663   2.912   3.409
   98SAPC  H10S 9700   0.641   2.850   3.244
   98SAPC  C211 9701   0.823   2.789   3.334
   98SAPC  H11R 9702   0.860   2.762   3.234
   98SAPC  C212 9703   0.907   2.787   3.439
   98SAPC  H12R 9704   1.007   2.745   3.421
   98SAPC  C213 9705   0.872   2.817   3.582
   98SAPC  H13R 9706   0.777   2.874   3.591
   98SAPC  H13S 9707   0.950   2.882   3.627
   98SAPC  C214 9708   0.865   2.687   3.656
   98SAPC  H14R 9709   0.951   2.621   3.639
   98SAPC  C215 9710   0.769   2.645   3.740
   98SAPC  H15R 9711   0.780   2.546   3.785
   98SAPC  C216 9712   0.646   2.717   3.784
   98SAPC  H16R 9713   0.564   2.704   3.711
   98SAPC  H16S 9714   0.666   2.826   3.794
   98SAPC  C217 9715   0.600   2.663   3.922
   98SAPC  H17R 9716   0.570   2.556   3.912
   98SAPC  H17S 9717   0.510   2.719   3.954
   98SAPC  C218 9718   0.709   2.676   4.030
   98SAPC  H18R 9719   0.745   2.781   4.033
   98SAPC  H18S 9720   0.797   2.614   4.000
   98SAPC  C219 9721   0.664   2.633   4.170
   98SAPC  H19R 9722   0.657   2.523   4.174
   98SAPC  H19S 9723   0.563   2.674   4.189
   98SAPC  C220 9724   0.760   2.684   4.278
   98SAPC  H20R 9725   0.766   2.795   4.272
   98SAPC  H20S 9726   0.862   2.643   4.263
   98SAPC  H20T 9727   0.725   2.656   4.379
   98SAPC   C33 9728   0.750   2.968   2.910
   98SAPC   H3X 9729   0.676   2.902   2.958
   98SAPC   H3Y 9730   0.697   3.033   2.836
   98SAPC   C34 9731   0.813   3.059   3.017
   98SAPC   H4X 9732   0.911   3.091   2.977
   98SAPC   H4Y 9733   0.831   3.000   3.109
   98SAPC   C35 9734   0.733   3.187   3.051
   98SAPC   H5X 9735   0.738   3.257   2.966
   98SAPC   H5Y 9736   0.783   3.236   3.138
   98SAPC   C36 9737   0.586   3.163   3.086
   98SAPC   H6X 9738   0.579   3.081   3.161
   98SAPC   H6Y 9739   0.534   3.132   2.993
   98SAPC   C37 9740   0.515   3.288   3.137
   98SAPC   H7X 9741   0.514   3.363   3.055
   98SAPC   H7Y 9742   0.574   3.331   3.221
   98SAPC   C38 9743   0.369   3.267   3.184
   98SAPC   H8X 9744   0.308   3.230   3.099
   98SAPC   H8Y 9745   0.328   3.366   3.214
   98SAPC   C39 9746   0.355   3.171   3.303
   98SAPC   H9X 9747   0.367   3.068   3.263
   98SAPC   H9Y 9748   0.252   3.179   3.344
   98SAPC  C310 9749   0.457   3.197   3.414
   98SAPC  H10X 9750   0.447   3.302   3.449
   98SAPC  H10Y 9751   0.561   3.184   3.376
   98SAPC  C311 9752   0.444   3.105   3.536
   98SAPC  H11X 9753   0.461   2.999   3.507
   98SAPC  H11Y 9754   0.341   3.112   3.577
   98SAPC  C312 9755   0.547   3.142   3.643
   98SAPC  H12X 9756   0.546   3.252   3.660
   98SAPC  H12Y 9757   0.648   3.114   3.608
   98SAPC  C313 9758   0.517   3.072   3.775
   98SAPC  H13X 9759   0.512   2.962   3.758
   98SAPC  H13Y 9760   0.416   3.104   3.810
   98SAPC  C314 9761   0.620   3.105   3.883
   98SAPC  H14X 9762   0.620   3.214   3.901
   98SAPC  H14Y 9763   0.722   3.075   3.849
   98SAPC  C315 9764   0.585   3.030   4.011
   98SAPC  H15X 9765   0.610   2.922   3.999
   98SAPC  H15Y 9766   0.475   3.036   4.022
   98SAPC  C316 9767   0.646   3.087   4.139
   98SAPC  H16X 9768   0.755   3.103   4.127
   98SAPC  H16Y 9769   0.632   3.012   4.220
   98SAPC  C317 9770   0.575   3.217   4.178
   98SAPC  H17X 9771   0.480   3.227   4.122
   98SAPC  H17Y 9772   0.639   3.301   4.143
   98SAPC  C318 9773   0.544   3.229   4.327
   98SAPC  H18X 9774   0.598   3.149   4.383
   98SAPC  H18Y 9775   0.436   3.216   4.347
   98SAPC  H18Z 9776   0.575   3.327   4.368
   99SAPC     N 9777   1.691   6.431   2.040
   99SAPC   C12 9778   1.764   6.379   2.164
   99SAPC  H12A 9779   1.858   6.335   2.134
   99SAPC  H12B 9780   1.704   6.300   2.207
   99SAPC   C13 9781   1.692   6.580   2.036
   99SAPC  H13A 9782   1.652   6.615   2.131
   99SAPC  H13B 9783   1.791   6.622   2.030
   99SAPC  H13C 9784   1.632   6.618   1.955
   99SAPC   C14 9785   1.750   6.375   1.914
   99SAPC  H14A 9786   1.854   6.401   1.903
   99SAPC  H14B 9787   1.742   6.267   1.913
   99SAPC  H14C 9788   1.696   6.410   1.828
   99SAPC   C15 9789   1.548   6.387   2.046
   99SAPC  H15A 9790   1.507   6.409   2.143
   99SAPC  H15B 9791   1.488   6.440   1.973
   99SAPC  H15C 9792   1.538   6.281   2.029
   99SAPC   C11 9793   1.793   6.479   2.280
   99SAPC  H11A 9794   1.867   6.554   2.246
   99SAPC  H11B 9795   1.842   6.425   2.363
   99SAPC     P 9796   1.572   6.472   2.416
   99SAPC   O13 9797   1.471   6.408   2.327
   99SAPC   O14 9798   1.647   6.384   2.508
   99SAPC   O12 9799   1.675   6.548   2.323
   99SAPC   O11 9800   1.507   6.592   2.495
   99SAPC    C1 9801   1.432   6.692   2.425
   99SAPC    HA 9802   1.495   6.740   2.347
   99SAPC    HB 9803   1.344   6.647   2.373
   99SAPC    C2 9804   1.379   6.804   2.521
   99SAPC    HS 9805   1.352   6.892   2.460
   99SAPC   O21 9806   1.478   6.841   2.618
   99SAPC   C21 9807   1.595   6.877   2.569
   99SAPC   O22 9808   1.615   6.923   2.457
   99SAPC   C22 9809   1.702   6.858   2.676
   99SAPC   H2R 9810   1.775   6.940   2.662
   99SAPC   H2S 9811   1.655   6.871   2.775
   99SAPC    C3 9812   1.252   6.762   2.601
   99SAPC    HX 9813   1.167   6.743   2.532
   99SAPC    HY 9814   1.222   6.849   2.664
   99SAPC   O31 9815   1.278   6.651   2.690
   99SAPC   C31 9816   1.260   6.531   2.634
   99SAPC   O32 9817   1.201   6.510   2.530
   99SAPC   C32 9818   1.330   6.426   2.720
   99SAPC   H2X 9819   1.431   6.464   2.746
   99SAPC   H2Y 9820   1.342   6.335   2.657
   99SAPC   C23 9821   1.774   6.721   2.666
   99SAPC   H3R 9822   1.883   6.737   2.652
   99SAPC   H3S 9823   1.739   6.665   2.576
   99SAPC   C24 9824   1.751   6.632   2.789
   99SAPC   H4R 9825   1.793   6.531   2.768
   99SAPC   H4S 9826   1.641   6.618   2.801
   99SAPC   C25 9827   1.816   6.692   2.911
   99SAPC   H5R 9828   1.922   6.717   2.897
   99SAPC   C26 9829   1.758   6.717   3.029
   99SAPC   H6R 9830   1.817   6.765   3.109
   99SAPC   C27 9831   1.615   6.688   3.066
   99SAPC   H7R 9832   1.611   6.670   3.175
   99SAPC   H7S 9833   1.584   6.592   3.019
   99SAPC   C28 9834   1.513   6.793   3.026
   99SAPC   H8R 9835   1.486   6.792   2.919
   99SAPC   C29 9836   1.453   6.882   3.108
   99SAPC   H9R 9837   1.380   6.952   3.064
   99SAPC  C210 9838   1.474   6.898   3.257
   99SAPC  H10R 9839   1.415   6.985   3.291
   99SAPC  H10S 9840   1.580   6.925   3.275
   99SAPC  C211 9841   1.436   6.780   3.344
   99SAPC  H11R 9842   1.382   6.698   3.293
   99SAPC  C212 9843   1.465   6.767   3.474
   99SAPC  H12R 9844   1.434   6.676   3.527
   99SAPC  C213 9845   1.542   6.868   3.557
   99SAPC  H13R 9846   1.551   6.965   3.504
   99SAPC  H13S 9847   1.645   6.830   3.569
   99SAPC  C214 9848   1.478   6.894   3.692
   99SAPC  H14R 9849   1.368   6.894   3.693
   99SAPC  C215 9850   1.544   6.920   3.806
   99SAPC  H15R 9851   1.487   6.937   3.898
   99SAPC  C216 9852   1.694   6.928   3.822
   99SAPC  H16R 9853   1.722   7.018   3.880
   99SAPC  H16S 9854   1.745   6.937   3.723
   99SAPC  C217 9855   1.754   6.807   3.896
   99SAPC  H17R 9856   1.863   6.804   3.874
   99SAPC  H17S 9857   1.710   6.713   3.858
   99SAPC  C218 9858   1.739   6.819   4.048
   99SAPC  H18R 9859   1.631   6.813   4.076
   99SAPC  H18S 9860   1.775   6.919   4.080
   99SAPC  C219 9861   1.819   6.713   4.125
   99SAPC  H19R 9862   1.808   6.732   4.234
   99SAPC  H19S 9863   1.926   6.725   4.099
   99SAPC  C220 9864   1.777   6.568   4.095
   99SAPC  H20R 9865   1.848   6.497   4.143
   99SAPC  H20S 9866   1.776   6.548   3.986
   99SAPC  H20T 9867   1.676   6.548   4.136
   99SAPC   C33 9868   1.248   6.394   2.846
   99SAPC   H3X 9869   1.145   6.368   2.812
   99SAPC   H3Y 9870   1.240   6.484   2.911
   99SAPC   C34 9871   1.301   6.274   2.925
   99SAPC   H4X 9872   1.318   6.190   2.855
   99SAPC   H4Y 9873   1.222   6.244   2.997
   99SAPC   C35 9874   1.428   6.298   3.007
   99SAPC   H5X 9875   1.509   6.337   2.942
   99SAPC   H5Y 9876   1.461   6.201   3.048
   99SAPC   C36 9877   1.405   6.395   3.125
   99SAPC   H6X 9878   1.314   6.365   3.181
   99SAPC   H6Y 9879   1.386   6.496   3.083
   99SAPC   C37 9880   1.525   6.402   3.221
   99SAPC   H7X 9881   1.521   6.498   3.276
   99SAPC   H7Y 9882   1.618   6.402   3.160
   99SAPC   C38 9883   1.531   6.289   3.325
   99SAPC   H8X 9884   1.629   6.297   3.377
   99SAPC   H8Y 9885   1.528   6.190   3.274
   99SAPC   C39 9886   1.418   6.297   3.429
   99SAPC   H9X 9887   1.327   6.253   3.385
   99SAPC   H9Y 9888   1.396   6.404   3.452
   99SAPC  C310 9889   1.455   6.225   3.559
   99SAPC  H10X 9890   1.512   6.134   3.534
   99SAPC  H10Y 9891   1.362   6.192   3.611
   99SAPC  C311 9892   1.535   6.313   3.656
   99SAPC  H11X 9893   1.471   6.397   3.691
   99SAPC  H11Y 9894   1.620   6.358   3.601
   99SAPC  C312 9895   1.592   6.236   3.777
   99SAPC  H12X 9896   1.657   6.305   3.834
   99SAPC  H12Y 9897   1.656   6.154   3.738
   99SAPC  C313 9898   1.487   6.175   3.872
   99SAPC  H13X 9899   1.540   6.127   3.957
   99SAPC  H13Y 9900   1.431   6.096   3.818
   99SAPC  C314 9901   1.385   6.275   3.930
   99SAPC  H14X 9902   1.316   6.223   4.000
   99SAPC  H14Y 9903   1.323   6.315   3.846
   99SAPC  C315 9904   1.449   6.395   4.002
   99SAPC  H15X 9905   1.524   6.441   3.933
   99SAPC  H15Y 9906   1.503   6.362   4.093
   99SAPC  C316 9907   1.348   6.504   4.037
   99SAPC  H16X 9908   1.299   6.483   4.134
   99SAPC  H16Y 9909   1.268   6.506   3.959
   99SAPC  C317 9910   1.414   6.642   4.038
   99SAPC  H17X 9911   1.466   6.659   3.942
   99SAPC  H17Y 9912   1.491   6.644   4.119
   99SAPC  C318 9913   1.316   6.756   4.063
   99SAPC  H18X 9914   1.236   6.757   3.985
   99SAPC  H18Y 9915   1.367   6.854   4.062
   99SAPC  H18Z 9916   1.269   6.741   4.162
  100SAPC     N 9917   6.962   0.597   2.131
  100SAPC   C12 9918   7.046   0.469   2.119
  100SAPC  H12A 9919   7.109   0.478   2.032
  100SAPC  H12B 9920   6.981   0.385   2.102
  100SAPC   C13 9921   6.940   0.627   2.276
  100SAPC  H13A 9922   6.870   0.558   2.322
  100SAPC  H13B 9923   7.034   0.615   2.327
  100SAPC  H13C 9924   6.907   0.729   2.292
  100SAPC   C14 9925   7.038   0.710   2.069
  100SAPC  H14A 9926   6.993   0.806   2.086
  100SAPC  H14B 9927   7.139   0.713   2.107
  100SAPC  H14C 9928   7.045   0.697   1.962
  100SAPC   C15 9929   6.834   0.585   2.056
  100SAPC  H15A 9930   6.773   0.673   2.068
  100SAPC  H15B 9931   6.854   0.574   1.951
  100SAPC  H15C 9932   6.777   0.498   2.086
  100SAPC   C11 9933   7.139   0.432   2.238
  100SAPC  H11A 9934   7.202   0.345   2.209
  100SAPC  H11B 9935   7.078   0.395   2.323
  100SAPC     P 9936   0.044   0.581   2.205
  100SAPC   O13 9937   0.163   0.523   2.268
  100SAPC   O14 9938   0.021   0.547   2.062
  100SAPC   O12 9939   7.217   0.542   2.284
  100SAPC   O11 9940   0.047   0.739   2.210
  100SAPC    C1 9941   7.256   0.819   2.280
  100SAPC    HA 9942   7.237   0.910   2.220
  100SAPC    HB 9943   7.158   0.768   2.295
  100SAPC    C2 9944   7.304   0.860   2.420
  100SAPC    HS 9945   0.101   0.904   2.406
  100SAPC   O21 9946   0.001   0.744   2.506
  100SAPC   C21 9947   0.093   0.744   2.601
  100SAPC   O22 9948   0.180   0.828   2.617
  100SAPC   C22 9949   0.064   0.626   2.696
  100SAPC   H2R 9950   7.271   0.646   2.746
  100SAPC   H2S 9951   0.053   0.536   2.631
  100SAPC    C3 9952   7.203   0.967   2.474
  100SAPC    HX 9953   7.187   1.041   2.393
  100SAPC    HY 9954   7.248   1.025   2.557
  100SAPC   O31 9955   7.076   0.906   2.509
  100SAPC   C31 9956   7.076   0.861   2.635
  100SAPC   O32 9957   7.154   0.894   2.721
  100SAPC   C32 9958   6.966   0.757   2.655
  100SAPC   H2X 9959   7.009   0.658   2.630
  100SAPC   H2Y 9960   6.884   0.780   2.584
  100SAPC   C23 9961   0.175   0.600   2.800
  100SAPC   H3R 9962   0.274   0.597   2.749
  100SAPC   H3S 9963   0.159   0.499   2.845
  100SAPC   C24 9964   0.184   0.702   2.916
  100SAPC   H4R 9965   0.205   0.802   2.873
  100SAPC   H4S 9966   0.274   0.676   2.976
  100SAPC   C25 9967   0.062   0.711   3.005
  100SAPC   H5R 9968   7.281   0.766   2.961
  100SAPC   C26 9969   0.048   0.661   3.130
  100SAPC   H6R 9970   7.262   0.689   3.187
  100SAPC   C27 9971   0.150   0.586   3.211
  100SAPC   H7R 9972   0.209   0.517   3.146
  100SAPC   H7S 9973   0.100   0.520   3.286
  100SAPC   C28 9974   0.243   0.682   3.278
  100SAPC   H8R 9975   0.302   0.735   3.202
  100SAPC   C29 9976   0.255   0.720   3.407
  100SAPC   H9R 9977   0.335   0.791   3.430
  100SAPC  C210 9978   0.177   0.678   3.528
  100SAPC  H10R 9979   0.245   0.628   3.601
  100SAPC  H10S 9980   0.097   0.606   3.503
  100SAPC  C211 9981   0.118   0.806   3.584
  100SAPC  H11R 9982   0.053   0.858   3.513
  100SAPC  C212 9983   0.137   0.862   3.705
  100SAPC  H12R 9984   0.086   0.957   3.725
  100SAPC  C213 9985   0.221   0.813   3.821
  100SAPC  H13R 9986   0.308   0.880   3.837
  100SAPC  H13S 9987   0.263   0.712   3.800
  100SAPC  C214 9988   0.132   0.807   3.943
  100SAPC  H14R 9989   0.025   0.797   3.920
  100SAPC  C215 9990   0.166   0.813   4.073
  100SAPC  H15R 9991   0.087   0.806   4.149
  100SAPC  C216 9992   0.303   0.829   4.131
  100SAPC  H16R 9993   0.381   0.824   4.051
  100SAPC  H16S 9994   0.324   0.745   4.201
  100SAPC  C217 9995   0.319   0.963   4.204
  100SAPC  H17R 9996   0.296   1.046   4.135
  100SAPC  H17S 9997   0.425   0.971   4.233
  100SAPC  C218 9998   0.232   0.986   4.329
  100SAPC  H18R 9999   0.216   0.890   4.382
  100SAPC  H18S10000   0.134   1.025   4.296
  100SAPC  C21910001   0.305   1.086   4.420
  100SAPC  H19R10002   0.348   1.164   4.354
  100SAPC  H19S10003   0.389   1.032   4.467
  100SAPC  C22010004   0.228   1.160   4.529
  100SAPC  H20R10005   0.127   1.190   4.495
  100SAPC  H20S10006   0.282   1.252   4.559
  100SAPC  H20T10007   0.221   1.096   4.620
  100SAPC   C3310008   6.913   0.757   2.800
  100SAPC   H3X10009   6.802   0.759   2.799
  100SAPC   H3Y10010   6.947   0.847   2.856
  100SAPC   C3410011   6.960   0.640   2.885
  100SAPC   H4X10012   7.071   0.643   2.889
  100SAPC   H4Y10013   6.930   0.543   2.839
  100SAPC   C3510014   6.905   0.650   3.028
  100SAPC   H5X10015   6.799   0.615   3.030
  100SAPC   H5Y10016   6.906   0.756   3.060
  100SAPC   C3610017   6.989   0.572   3.130
  100SAPC   H6X10018   6.943   0.578   3.230
  100SAPC   H6Y10019   7.088   0.623   3.136
  100SAPC   C3710020   7.015   0.425   3.091
  100SAPC   H7X10021   7.050   0.419   2.986
  100SAPC   H7Y10022   6.917   0.373   3.095
  100SAPC   C3810023   7.118   0.351   3.178
  100SAPC   H8X10024   7.220   0.393   3.158
  100SAPC   H8Y10025   7.119   0.246   3.143
  100SAPC   C3910026   7.091   0.353   3.329
  100SAPC   H9X10027   7.116   0.253   3.372
  100SAPC   H9Y10028   6.982   0.368   3.345
  100SAPC  C31010029   7.169   0.459   3.406
  100SAPC  H10X10030   7.165   0.556   3.352
  100SAPC  H10Y10031   7.275   0.426   3.410
  100SAPC  C31110032   7.122   0.482   3.550
  100SAPC  H11X10033   7.194   0.552   3.600
  100SAPC  H11Y10034   7.126   0.386   3.605
  100SAPC  C31210035   6.981   0.542   3.560
  100SAPC  H12X10036   6.911   0.473   3.507
  100SAPC  H12Y10037   6.977   0.641   3.511
  100SAPC  C31310038   6.931   0.553   3.705
  100SAPC  H13X10039   6.943   0.453   3.752
  100SAPC  H13Y10040   6.822   0.575   3.705
  100SAPC  C31410041   7.002   0.661   3.788
  100SAPC  H14X10042   6.975   0.760   3.748
  100SAPC  H14Y10043   7.112   0.650   3.776
  100SAPC  C31510044   6.969   0.655   3.938
  100SAPC  H15X10045   6.863   0.686   3.954
  100SAPC  H15Y10046   7.032   0.731   3.989
  100SAPC  C31610047   6.990   0.518   4.005
  100SAPC  H16X10048   6.910   0.449   3.971
  100SAPC  H16Y10049   6.977   0.530   4.115
  100SAPC  C31710050   7.126   0.451   3.978
  100SAPC  H17X10051   7.138   0.436   3.869
  100SAPC  H17Y10052   7.127   0.351   4.025
  100SAPC  C31810053   7.245   0.532   4.030
  100SAPC  H18X10054   7.237   0.636   3.992
  100SAPC  H18Y10055   0.037   0.489   3.995
  100SAPC  H18Z10056   7.245   0.536   4.141
  101OSM      N10057   3.814   2.841   6.472
  101OSM    C1510058   3.931   2.896   6.396
  101OSM   H15A10059   4.014   2.919   6.461
  101OSM   H15B10060   3.908   2.987   6.342
  101OSM   H15C10061   3.965   2.824   6.323
  101OSM    C1410062   3.782   2.934   6.585
  101OSM   H14A10063   3.860   2.935   6.660
  101OSM   H14B10064   3.687   2.912   6.630
  101OSM   H14C10065   3.776   3.035   6.549
  101OSM    C1310066   3.696   2.842   6.379
  101OSM   H13A10067   3.717   2.778   6.294
  101OSM   H13B10068   3.680   2.942   6.342
  101OSM   H13C10069   3.606   2.809   6.429
  101OSM    C1210070   3.843   2.701   6.524
  101OSM   H12A10071   3.766   2.673   6.594
  101OSM   H12B10072   3.935   2.705   6.580
  101OSM    C1110073   3.859   2.585   6.421
  101OSM   H11A10074   3.766   2.575   6.361
  101OSM   H11B10075   3.873   2.491   6.477
  101OSM      P10076   4.009   2.507   6.223
  101OSM    O1310077   4.146   2.540   6.178
  101OSM    O1410078   3.989   2.370   6.275
  101OSM    O1110079   3.902   2.537   6.109
  101OSM    O1210080   3.971   2.610   6.337
  101OSM    C1S10081   3.839   2.665   6.090
  101OSM    H1S10082   3.907   2.748   6.116
  101OSM    H1T10083   3.748   2.672   6.154
  101OSM     NF10084   3.735   2.818   5.918
  101OSM    HNF10085   3.639   2.823   5.895
  101OSM    C2S10086   3.792   2.686   5.942
  101OSM    H2S10087   3.885   2.677   5.882
  101OSM    C3S10088   3.689   2.578   5.897
  101OSM    H3S10089   3.587   2.619   5.913
  101OSM     O310090   3.692   2.456   5.969
  101OSM    HO310091   3.765   2.467   6.030
  101OSM    C4S10092   3.707   2.557   5.748
  101OSM    H4S10093   3.631   2.603   5.684
  101OSM    C5S10094   3.808   2.485   5.694
  101OSM    H5S10095   3.882   2.442   5.763
  101OSM    C6S10096   3.836   2.458   5.548
  101OSM    H6S10097   3.801   2.356   5.522
  101OSM    H6T10098   3.946   2.458   5.533
  101OSM    C7S10099   3.777   2.557   5.447
  101OSM    H7S10100   3.802   2.661   5.480
  101OSM    H7T10101   3.666   2.549   5.443
  101OSM    C8S10102   3.834   2.540   5.305
  101OSM    H8S10103   3.945   2.548   5.308
  101OSM    H8T10104   3.795   2.625   5.245
  101OSM    C9S10105   3.795   2.412   5.231
  101OSM    H9S10106   3.684   2.406   5.227
  101OSM    H9T10107   3.832   2.323   5.287
  101OSM   C10S10108   3.850   2.406   5.087
  101OSM   H10S10109   3.808   2.316   5.037
  101OSM   H10T10110   3.961   2.392   5.092
  101OSM   C11S10111   3.822   2.529   4.998
  101OSM   H11S10112   3.855   2.505   4.895
  101OSM   H11T10113   3.884   2.614   5.033
  101OSM   C12S10114   3.674   2.573   4.995
  101OSM   H12S10115   3.643   2.604   5.097
  101OSM   H12T10116   3.611   2.486   4.967
  101OSM   C13S10117   3.646   2.690   4.900
  101OSM   H13S10118   3.717   2.773   4.920
  101OSM   H13T10119   3.544   2.728   4.919
  101OSM   C14S10120   3.654   2.649   4.752
  101OSM   H14S10121   3.584   2.565   4.734
  101OSM   H14T10122   3.757   2.613   4.729
  101OSM   C15S10123   3.620   2.764   4.656
  101OSM   H15S10124   3.688   2.850   4.676
  101OSM   H15T10125   3.516   2.797   4.674
  101OSM   C16S10126   3.635   2.720   4.509
  101OSM   H16S10127   3.567   2.634   4.492
  101OSM   H16T10128   3.739   2.684   4.492
  101OSM   C17S10129   3.603   2.831   4.409
  101OSM   H17S10130   3.504   2.875   4.434
  101OSM   H17T10131   3.594   2.785   4.308
  101OSM   C18S10132   3.709   2.940   4.402
  101OSM   H18S10133   3.713   2.999   4.497
  101OSM   H18T10134   3.689   3.010   4.318
  101OSM   H18U10135   3.809   2.895   4.385
  101OSM    C1F10136   3.809   2.929   5.911
  101OSM     OF10137   3.924   2.930   5.951
  101OSM    C2F10138   3.743   3.046   5.845
  101OSM    H2F10139   3.757   3.136   5.909
  101OSM    H2G10140   3.634   3.027   5.835
  101OSM    C3F10141   3.803   3.073   5.705
  101OSM    H3F10142   3.905   3.113   5.722
  101OSM    H3G10143   3.747   3.154   5.654
  101OSM    C4F10144   3.812   2.951   5.611
  101OSM    H4F10145   3.715   2.933   5.559
  101OSM    H4G10146   3.836   2.859   5.669
  101OSM    C5F10147   3.927   2.962   5.509
  101OSM    H5F10148   3.960   2.860   5.479
  101OSM    H5G10149   4.014   3.007   5.561
  101OSM    C6F10150   3.895   3.049   5.386
  101OSM    H6F10151   3.991   3.092   5.349
  101OSM    H6G10152   3.830   3.134   5.416
  101OSM    C7F10153   3.834   2.974   5.267
  101OSM    H7F10154   3.820   3.046   5.183
  101OSM    H7G10155   3.733   2.937   5.296
  101OSM    C8F10156   3.918   2.856   5.217
  101OSM    H8F10157   3.863   2.809   5.133
  101OSM    H8G10158   3.920   2.780   5.298
  101OSM    C9F10159   4.061   2.886   5.182
  101OSM    H9F10160   4.130   2.895   5.267
  101OSM   C10F10161   4.109   2.905   5.058
  101OSM   H10F10162   4.215   2.929   5.045
  101OSM   C11F10163   4.029   2.902   4.931
  101OSM   H11F10164   4.001   3.005   4.901
  101OSM   H11G10165   3.933   2.845   4.941
  101OSM   C12F10166   4.111   2.838   4.818
  101OSM   H12F10167   4.136   2.733   4.844
  101OSM   H12G10168   4.206   2.894   4.805
  101OSM   C13F10169   4.036   2.841   4.685
  101OSM   H13F10170   3.998   2.944   4.665
  101OSM   H13G10171   3.948   2.774   4.691
  101OSM   C14F10172   4.128   2.799   4.571
  101OSM   H14F10173   4.166   2.697   4.591
  101OSM   H14G10174   4.215   2.868   4.566
  101OSM   C15F10175   4.054   2.801   4.438
  101OSM   H15F10176   4.017   2.904   4.417
  101OSM   H15G10177   3.966   2.734   4.447
  101OSM   C16F10178   4.141   2.755   4.321
  101OSM   H16F10179   4.218   2.683   4.357
  101OSM   H16G10180   4.195   2.842   4.279
  101OSM   C17F10181   4.058   2.686   4.213
  101OSM   H17F10182   4.114   2.690   4.118
  101OSM   H17G10183   3.963   2.742   4.198
  101OSM   C18F10184   4.025   2.540   4.247
  101OSM   H18F10185   4.117   2.487   4.282
  101OSM   H18G10186   3.987   2.486   4.158
  101OSM   H18H10187   3.948   2.534   4.327
  102OSM      N10188   4.763   2.892   6.389
  102OSM    C1510189   4.826   3.005   6.312
  102OSM   H15A10190   4.749   3.071   6.277
  102OSM   H15B10191   4.883   2.971   6.227
  102OSM   H15C10192   4.888   3.066   6.376
  102OSM    C1410193   4.676   2.816   6.293
  102OSM   H14A10194   4.601   2.885   6.258
  102OSM   H14B10195   4.625   2.734   6.341
  102OSM   H14C10196   4.730   2.783   6.206
  102OSM    C1310197   4.870   2.809   6.452
  102OSM   H13A10198   4.927   2.868   6.522
  102OSM   H13B10199   4.941   2.774   6.378
  102OSM   H13C10200   4.829   2.725   6.505
  102OSM    C1210201   4.674   2.956   6.497
  102OSM   H12A10202   4.722   3.047   6.529
  102OSM   H12B10203   4.668   2.891   6.583
  102OSM    C1110204   4.529   2.993   6.456
  102OSM   H11A10205   4.479   3.045   6.540
  102OSM   H11B10206   4.470   2.901   6.439
  102OSM      P10207   4.542   3.228   6.345
  102OSM    O1310208   4.444   3.277   6.444
  102OSM    O1410209   4.685   3.254   6.375
  102OSM    O1110210   4.509   3.270   6.196
  102OSM    O1210211   4.528   3.070   6.336
  102OSM    C1S10212   4.609   3.244   6.096
  102OSM    H1S10213   4.654   3.143   6.108
  102OSM    H1T10214   4.690   3.320   6.102
  102OSM     NF10215   4.645   3.202   5.852
  102OSM    HNF10216   4.675   3.271   5.786
  102OSM    C2S10217   4.549   3.251   5.952
  102OSM    H2S10218   4.460   3.184   5.948
  102OSM    C3S10219   4.502   3.397   5.925
  102OSM    H3S10220   4.588   3.464   5.949
  102OSM     O310221   4.392   3.437   6.005
  102OSM    HO310222   4.398   3.384   6.084
  102OSM    C4S10223   4.466   3.414   5.780
  102OSM    H4S10224   4.413   3.329   5.735
  102OSM    C5S10225   4.492   3.520   5.701
  102OSM    H5S10226   4.537   3.610   5.746
  102OSM    C6S10227   4.451   3.529   5.556
  102OSM    H6S10228   4.401   3.627   5.539
  102OSM    H6T10229   4.374   3.452   5.535
  102OSM    C7S10230   4.565   3.516   5.452
  102OSM    H7S10231   4.637   3.599   5.471
  102OSM    H7T10232   4.523   3.536   5.351
  102OSM    C8S10233   4.642   3.382   5.453
  102OSM    H8S10234   4.665   3.353   5.557
  102OSM    H8T10235   4.740   3.398   5.402
  102OSM    C9S10236   4.576   3.264   5.379
  102OSM    H9S10237   4.485   3.234   5.436
  102OSM    H9T10238   4.646   3.178   5.380
  102OSM   C10S10239   4.537   3.295   5.234
  102OSM   H10S10240   4.459   3.374   5.234
  102OSM   H10T10241   4.492   3.205   5.188
  102OSM   C11S10242   4.652   3.345   5.144
  102OSM   H11S10243   4.724   3.262   5.128
  102OSM   H11T10244   4.707   3.429   5.191
  102OSM   C12S10245   4.596   3.395   5.010
  102OSM   H12S10246   4.588   3.505   5.010
  102OSM   H12T10247   4.492   3.357   5.002
  102OSM   C13S10248   4.673   3.346   4.887
  102OSM   H13S10249   4.729   3.253   4.911
  102OSM   H13T10250   4.749   3.423   4.860
  102OSM   C14S10251   4.580   3.318   4.768
  102OSM   H14S10252   4.496   3.391   4.772
  102OSM   H14T10253   4.534   3.217   4.778
  102OSM   C15S10254   4.650   3.329   4.632
  102OSM   H15S10255   4.699   3.429   4.627
  102OSM   H15T10256   4.576   3.325   4.550
  102OSM   C16S10257   4.757   3.222   4.611
  102OSM   H16S10258   4.708   3.125   4.584
  102OSM   H16T10259   4.813   3.206   4.706
  102OSM   C17S10260   4.858   3.262   4.504
  102OSM   H17S10261   4.889   3.367   4.525
  102OSM   H17T10262   4.809   3.262   4.404
  102OSM   C18S10263   4.982   3.172   4.504
  102OSM   H18S10264   5.031   3.174   4.604
  102OSM   H18T10265   5.056   3.206   4.429
  102OSM   H18U10266   4.953   3.067   4.482
  102OSM    C1F10267   4.690   3.077   5.844
  102OSM     OF10268   4.663   2.990   5.927
  102OSM    C2F10269   4.775   3.043   5.726
  102OSM    H2F10270   4.747   3.106   5.639
  102OSM    H2G10271   4.756   2.937   5.700
  102OSM    C3F10272   4.925   3.060   5.760
  102OSM    H3F10273   4.945   3.024   5.863
  102OSM    H3G10274   4.950   3.168   5.758
  102OSM    C4F10275   5.019   2.983   5.666
  102OSM    H4F10276   5.000   2.874   5.677
  102OSM    H4G10277   5.123   3.004   5.697
  102OSM    C5F10278   5.003   3.020   5.518
  102OSM    H5F10279   4.992   3.130   5.509
  102OSM    H5G10280   4.910   2.975   5.477
  102OSM    C6F10281   5.123   2.974   5.434
  102OSM    H6F10282   5.119   2.864   5.418
  102OSM    H6G10283   5.217   2.996   5.490
  102OSM    C7F10284   5.134   3.044   5.297
  102OSM    H7F10285   5.226   3.010   5.245
  102OSM    H7G10286   5.148   3.152   5.316
  102OSM    C8F10287   5.012   3.027   5.205
  102OSM    H8F10288   5.029   3.088   5.113
  102OSM    H8G10289   4.923   3.070   5.255
  102OSM    C9F10290   4.993   2.882   5.165
  102OSM    H9F10291   5.082   2.835   5.123
  102OSM   C10F10292   4.879   2.811   5.176
  102OSM   H10F10293   4.879   2.707   5.140
  102OSM   C11F10294   4.748   2.862   5.229
  102OSM   H11F10295   4.763   2.920   5.323
  102OSM   H11G10296   4.680   2.777   5.255
  102OSM   C12F10297   4.677   2.953   5.127
  102OSM   H12F10298   4.744   3.038   5.101
  102OSM   H12G10299   4.586   2.996   5.174
  102OSM   C13F10300   4.636   2.882   4.997
  102OSM   H13F10301   4.556   2.808   5.019
  102OSM   H13G10302   4.723   2.826   4.956
  102OSM   C14F10303   4.588   2.982   4.892
  102OSM   H14F10304   4.673   3.050   4.867
  102OSM   H14G10305   4.508   3.044   4.937
  102OSM   C15F10306   4.536   2.919   4.762
  102OSM   H15F10307   4.493   3.000   4.699
  102OSM   H15G10308   4.454   2.848   4.785
  102OSM   C16F10309   4.646   2.848   4.681
  102OSM   H16F10310   4.682   2.759   4.737
  102OSM   H16G10311   4.732   2.917   4.669
  102OSM   C17F10312   4.597   2.805   4.542
  102OSM   H17F10313   4.560   2.895   4.488
  102OSM   H17G10314   4.511   2.736   4.555
  102OSM   C18F10315   4.705   2.737   4.458
  102OSM   H18F10316   4.664   2.707   4.359
  102OSM   H18G10317   4.743   2.646   4.510
  102OSM   H18H10318   4.790   2.806   4.442
  103OSM      N10319   4.739   4.706   6.415
  103OSM    C1510320   4.857   4.744   6.499
  103OSM   H15A10321   4.939   4.675   6.484
  103OSM   H15B10322   4.835   4.750   6.604
  103OSM   H15C10323   4.899   4.838   6.467
  103OSM    C1410324   4.632   4.811   6.422
  103OSM   H14A10325   4.655   4.899   6.364
  103OSM   H14B10326   4.609   4.840   6.523
  103OSM   H14C10327   4.541   4.770   6.379
  103OSM    C1310328   4.784   4.692   6.273
  103OSM   H13A10329   4.844   4.603   6.258
  103OSM   H13B10330   4.848   4.773   6.244
  103OSM   H13C10331   4.701   4.687   6.204
  103OSM    C1210332   4.684   4.573   6.463
  103OSM   H12A10333   4.644   4.586   6.563
  103OSM   H12B10334   4.767   4.504   6.470
  103OSM    C1110335   4.574   4.509   6.375
  103OSM   H11A10336   4.561   4.407   6.416
  103OSM   H11B10337   4.609   4.499   6.270
  103OSM      P10338   4.322   4.508   6.331
  103OSM    O1310339   4.317   4.385   6.413
  103OSM    O1410340   4.205   4.597   6.340
  103OSM    O1110341   4.357   4.474   6.180
  103OSM    O1210342   4.452   4.585   6.380
  103OSM    C1S10343   4.394   4.577   6.087
  103OSM    H1S10344   4.472   4.643   6.130
  103OSM    H1T10345   4.306   4.640   6.062
  103OSM     NF10346   4.502   4.619   5.863
  103OSM    HNF10347   4.454   4.633   5.777
  103OSM    C2S10348   4.450   4.517   5.953
  103OSM    H2S10349   4.534   4.449   5.980
  103OSM    C3S10350   4.341   4.432   5.882
  103OSM    H3S10351   4.256   4.499   5.854
  103OSM     O310352   4.287   4.330   5.964
  103OSM    HO310353   4.307   4.358   6.054
  103OSM    C4S10354   4.394   4.365   5.758
  103OSM    H4S10355   4.455   4.275   5.778
  103OSM    C5S10356   4.371   4.402   5.630
  103OSM    H5S10357   4.307   4.489   5.609
  103OSM    C6S10358   4.425   4.330   5.508
  103OSM    H6S10359   4.354   4.341   5.423
  103OSM    H6T10360   4.432   4.222   5.531
  103OSM    C7S10361   4.565   4.372   5.462
  103OSM    H7S10362   4.636   4.336   5.540
  103OSM    H7T10363   4.574   4.483   5.456
  103OSM    C8S10364   4.609   4.309   5.329
  103OSM    H8S10365   4.572   4.204   5.321
  103OSM    H8T10366   4.720   4.304   5.328
  103OSM    C9S10367   4.566   4.390   5.206
  103OSM    H9S10368   4.598   4.496   5.223
  103OSM    H9T10369   4.455   4.390   5.195
  103OSM   C10S10370   4.632   4.342   5.076
  103OSM   H10S10371   4.586   4.247   5.041
  103OSM   H10T10372   4.738   4.319   5.100
  103OSM   C11S10373   4.630   4.447   4.964
  103OSM   H11S10374   4.631   4.548   5.011
  103OSM   H11T10375   4.535   4.439   4.907
  103OSM   C12S10376   4.751   4.440   4.870
  103OSM   H12S10377   4.816   4.354   4.898
  103OSM   H12T10378   4.812   4.532   4.884
  103OSM   C13S10379   4.713   4.428   4.722
  103OSM   H13S10380   4.637   4.507   4.701
  103OSM   H13T10381   4.662   4.331   4.703
  103OSM   C14S10382   4.831   4.449   4.626
  103OSM   H14S10383   4.888   4.354   4.613
  103OSM   H14T10384   4.900   4.521   4.675
  103OSM   C15S10385   4.796   4.508   4.487
  103OSM   H15S10386   4.886   4.499   4.422
  103OSM   H15T10387   4.777   4.617   4.500
  103OSM   C16S10388   4.677   4.445   4.415
  103OSM   H16S10389   4.589   4.443   4.483
  103OSM   H16T10390   4.701   4.340   4.389
  103OSM   C17S10391   4.636   4.521   4.288
  103OSM   H17S10392   4.603   4.623   4.317
  103OSM   H17T10393   4.549   4.470   4.243
  103OSM   C18S10394   4.747   4.534   4.183
  103OSM   H18S10395   4.707   4.581   4.091
  103OSM   H18T10396   4.788   4.434   4.158
  103OSM   H18U10397   4.830   4.597   4.221
  103OSM    C1F10398   4.614   4.687   5.887
  103OSM     OF10399   4.669   4.682   5.995
  103OSM    C2F10400   4.675   4.763   5.773
  103OSM    H2F10401   4.761   4.701   5.739
  103OSM    H2G10402   4.716   4.858   5.812
  103OSM    C3F10403   4.587   4.791   5.648
  103OSM    H3F10404   4.509   4.865   5.674
  103OSM    H3G10405   4.538   4.699   5.611
  103OSM    C4F10406   4.674   4.847   5.534
  103OSM    H4F10407   4.750   4.771   5.506
  103OSM    H4G10408   4.728   4.937   5.570
  103OSM    C5F10409   4.597   4.888   5.407
  103OSM    H5F10410   4.531   4.973   5.432
  103OSM    H5G10411   4.532   4.805   5.373
  103OSM    C6F10412   4.692   4.929   5.293
  103OSM    H6F10413   4.776   4.990   5.333
  103OSM    H6G10414   4.636   4.997   5.225
  103OSM    C7F10415   4.747   4.810   5.213
  103OSM    H7F10416   4.692   4.717   5.243
  103OSM    H7G10417   4.853   4.794   5.240
  103OSM    C8F10418   4.735   4.826   5.060
  103OSM    H8F10419   4.783   4.738   5.011
  103OSM    H8G10420   4.794   4.916   5.030
  103OSM    C9F10421   4.592   4.842   5.017
  103OSM    H9F10422   4.521   4.865   5.098
  103OSM   C10F10423   4.543   4.828   4.893
  103OSM   H10F10424   4.436   4.844   4.876
  103OSM   C11F10425   4.622   4.795   4.769
  103OSM   H11F10426   4.708   4.729   4.793
  103OSM   H11G10427   4.664   4.887   4.723
  103OSM   C12F10428   4.532   4.724   4.666
  103OSM   H12F10429   4.476   4.640   4.713
  103OSM   H12G10430   4.597   4.681   4.587
  103OSM   C13F10431   4.436   4.818   4.596
  103OSM   H13F10432   4.502   4.896   4.551
  103OSM   H13G10433   4.367   4.865   4.669
  103OSM   C14F10434   4.355   4.752   4.484
  103OSM   H14F10435   4.314   4.656   4.520
  103OSM   H14G10436   4.424   4.730   4.400
  103OSM   C15F10437   4.240   4.842   4.435
  103OSM   H15F10438   4.258   4.945   4.472
  103OSM   H15G10439   4.145   4.809   4.481
  103OSM   C16F10440   4.227   4.845   4.282
  103OSM   H16F10441   4.174   4.753   4.250
  103OSM   H16G10442   4.328   4.843   4.236
  103OSM   C17F10443   4.153   4.966   4.223
  103OSM   H17F10444   4.094   4.932   4.135
  103OSM   H17G10445   4.230   5.036   4.184
  103OSM   C18F10446   4.062   5.042   4.319
  103OSM   H18F10447   3.997   4.971   4.374
  103OSM   H18G10448   3.998   5.114   4.264
  103OSM   H18H10449   4.121   5.099   4.394
  104OSM      N10450   5.232   3.618   6.393
  104OSM    C1510451   5.111   3.595   6.478
  104OSM   H15A10452   5.025   3.564   6.420
  104OSM   H15B10453   5.084   3.685   6.532
  104OSM   H15C10454   5.132   3.519   6.553
  104OSM    C1410455   5.199   3.720   6.291
  104OSM   H14A10456   5.116   3.687   6.230
  104OSM   H14B10457   5.284   3.741   6.228
  104OSM   H14C10458   5.168   3.812   6.338
  104OSM    C1310459   5.340   3.675   6.480
  104OSM   H13A10460   5.309   3.766   6.529
  104OSM   H13B10461   5.431   3.692   6.424
  104OSM   H13C10462   5.368   3.602   6.555
  104OSM    C1210463   5.278   3.487   6.329
  104OSM   H12A10464   5.367   3.506   6.271
  104OSM   H12B10465   5.202   3.454   6.260
  104OSM    C1110466   5.314   3.368   6.421
  104OSM   H11A10467   5.331   3.278   6.359
  104OSM   H11B10468   5.227   3.344   6.487
  104OSM      P10469   5.571   3.412   6.438
  104OSM    O1310470   5.613   3.548   6.480
  104OSM    O1410471   5.655   3.298   6.480
  104OSM    O1110472   5.541   3.406   6.282
  104OSM    O1210473   5.427   3.394   6.503
  104OSM    C1S10474   5.643   3.360   6.193
  104OSM    H1S10475   5.687   3.264   6.229
  104OSM    H1T10476   5.725   3.434   6.185
  104OSM     NF10477   5.551   3.454   5.981
  104OSM    HNF10478   5.457   3.461   5.949
  104OSM    C2S10479   5.586   3.331   6.051
  104OSM    H2S10480   5.666   3.281   5.992
  104OSM    C3S10481   5.464   3.234   6.060
  104OSM    H3S10482   5.387   3.276   6.128
  104OSM     O310483   5.493   3.102   6.108
  104OSM    HO310484   5.588   3.100   6.120
  104OSM    C4S10485   5.401   3.224   5.924
  104OSM    H4S10486   5.294   3.252   5.920
  104OSM    C5S10487   5.462   3.185   5.810
  104OSM    H5S10488   5.568   3.157   5.812
  104OSM    C6S10489   5.395   3.180   5.676
  104OSM    H6S10490   5.284   3.183   5.687
  104OSM    H6T10491   5.420   3.087   5.621
  104OSM    C7S10492   5.443   3.302   5.594
  104OSM    H7S10493   5.550   3.288   5.567
  104OSM    H7T10494   5.437   3.393   5.657
  104OSM    C8S10495   5.361   3.331   5.468
  104OSM    H8S10496   5.375   3.250   5.393
  104OSM    H8T10497   5.399   3.425   5.423
  104OSM    C9S10498   5.212   3.346   5.500
  104OSM    H9S10499   5.202   3.388   5.603
  104OSM    H9T10500   5.166   3.245   5.503
  104OSM   C10S10501   5.133   3.438   5.408
  104OSM   H10S10502   5.157   3.542   5.437
  104OSM   H10T10503   5.025   3.421   5.426
  104OSM   C11S10504   5.157   3.430   5.257
  104OSM   H11S10505   5.129   3.331   5.216
  104OSM   H11T10506   5.264   3.449   5.234
  104OSM   C12S10507   5.071   3.538   5.190
  104OSM   H12S10508   5.086   3.633   5.245
  104OSM   H12T10509   4.964   3.510   5.198
  104OSM   C13S10510   5.105   3.566   5.044
  104OSM   H13S10511   5.208   3.609   5.039
  104OSM   H13T10512   5.035   3.644   5.008
  104OSM   C14S10513   5.097   3.444   4.952
  104OSM   H14S10514   5.010   3.381   4.981
  104OSM   H14T10515   5.189   3.384   4.964
  104OSM   C15S10516   5.081   3.486   4.806
  104OSM   H15S10517   4.978   3.525   4.790
  104OSM   H15T10518   5.093   3.396   4.742
  104OSM   C16S10519   5.181   3.594   4.763
  104OSM   H16S10520   5.282   3.552   4.778
  104OSM   H16T10521   5.173   3.684   4.829
  104OSM   C17S10522   5.163   3.644   4.620
  104OSM   H17S10523   5.252   3.706   4.594
  104OSM   H17T10524   5.074   3.710   4.615
  104OSM   C18S10525   5.148   3.534   4.515
  104OSM   H18S10526   5.056   3.475   4.534
  104OSM   H18T10527   5.235   3.464   4.520
  104OSM   H18U10528   5.141   3.577   4.413
  104OSM    C1F10529   5.641   3.542   5.940
  104OSM     OF10530   5.759   3.532   5.966
  104OSM    C2F10531   5.586   3.650   5.852
  104OSM    H2F10532   5.523   3.718   5.913
  104OSM    H2G10533   5.522   3.601   5.775
  104OSM    C3F10534   5.697   3.731   5.782
  104OSM    H3F10535   5.764   3.663   5.725
  104OSM    H3G10536   5.759   3.781   5.860
  104OSM    C4F10537   5.639   3.837   5.687
  104OSM    H4F10538   5.720   3.906   5.655
  104OSM    H4G10539   5.564   3.897   5.742
  104OSM    C5F10540   5.573   3.778   5.561
  104OSM    H5F10541   5.512   3.858   5.514
  104OSM    H5G10542   5.501   3.697   5.586
  104OSM    C6F10543   5.673   3.727   5.456
  104OSM    H6F10544   5.692   3.619   5.473
  104OSM    H6G10545   5.770   3.781   5.468
  104OSM    C7F10546   5.624   3.753   5.313
  104OSM    H7F10547   5.632   3.862   5.294
  104OSM    H7G10548   5.516   3.725   5.304
  104OSM    C8F10549   5.705   3.680   5.204
  104OSM    H8F10550   5.813   3.690   5.229
  104OSM    H8G10551   5.691   3.734   5.108
  104OSM    C9F10552   5.667   3.535   5.192
  104OSM    H9F10553   5.708   3.471   5.272
  104OSM   C10F10554   5.591   3.479   5.096
  104OSM   H10F10555   5.574   3.370   5.100
  104OSM   C11F10556   5.526   3.548   4.978
  104OSM   H11F10557   5.533   3.659   4.987
  104OSM   H11G10558   5.418   3.523   4.972
  104OSM   C12F10559   5.594   3.504   4.846
  104OSM   H12F10560   5.578   3.396   4.830
  104OSM   H12G10561   5.704   3.519   4.862
  104OSM   C13F10562   5.556   3.581   4.718
  104OSM   H13F10563   5.457   3.547   4.680
  104OSM   H13G10564   5.629   3.552   4.639
  104OSM   C14F10565   5.555   3.734   4.733
  104OSM   H14F10566   5.648   3.767   4.785
  104OSM   H14G10567   5.470   3.763   4.798
  104OSM   C15F10568   5.543   3.814   4.601
  104OSM   H15F10569   5.544   3.922   4.627
  104OSM   H15G10570   5.445   3.790   4.554
  104OSM   C16F10571   5.653   3.791   4.497
  104OSM   H16F10572   5.656   3.683   4.470
  104OSM   H16G10573   5.752   3.819   4.541
  104OSM   C17F10574   5.634   3.872   4.368
  104OSM   H17F10575   5.659   3.979   4.386
  104OSM   H17G10576   5.526   3.869   4.341
  104OSM   C18F10577   5.718   3.819   4.251
  104OSM   H18F10578   5.719   3.708   4.252
  104OSM   H18G10579   5.822   3.856   4.259
  104OSM   H18H10580   5.676   3.852   4.154
  105OSM      N10581   5.519   4.145   6.362
  105OSM    C1510582   5.628   4.209   6.281
  105OSM   H15A10583   5.712   4.235   6.344
  105OSM   H15B10584   5.591   4.299   6.235
  105OSM   H15C10585   5.660   4.145   6.201
  105OSM    C1410586   5.563   4.011   6.413
  105OSM   H14A10587   5.652   4.019   6.473
  105OSM   H14B10588   5.584   3.942   6.332
  105OSM   H14C10589   5.486   3.969   6.476
  105OSM    C1310590   5.495   4.234   6.480
  105OSM   H13A10591   5.461   4.332   6.449
  105OSM   H13B10592   5.584   4.246   6.540
  105OSM   H13C10593   5.415   4.194   6.540
  105OSM    C1210594   5.393   4.135   6.277
  105OSM   H12A10595   5.418   4.088   6.184
  105OSM   H12B10596   5.367   4.236   6.247
  105OSM    C1110597   5.265   4.070   6.336
  105OSM   H11A10598   5.290   3.964   6.359
  105OSM   H11B10599   5.186   4.069   6.258
  105OSM      P10600   5.143   4.269   6.459
  105OSM    O1310601   5.011   4.246   6.522
  105OSM    O1410602   5.232   4.364   6.529
  105OSM    O1110603   5.125   4.309   6.308
  105OSM    O1210604   5.219   4.131   6.456
  105OSM    C1S10605   5.201   4.412   6.244
  105OSM    H1S10606   5.309   4.405   6.271
  105OSM    H1T10607   5.166   4.513   6.275
  105OSM     NF10608   5.296   4.468   6.019
  105OSM    HNF10609   5.272   4.544   5.959
  105OSM    C2S10610   5.187   4.400   6.089
  105OSM    H2S10611   5.192   4.292   6.062
  105OSM    C3S10612   5.047   4.454   6.047
  105OSM    H3S10613   5.042   4.563   6.067
  105OSM     O310614   4.943   4.393   6.125
  105OSM    HO310615   4.991   4.350   6.196
  105OSM    C4S10616   5.023   4.431   5.899
  105OSM    H4S10617   5.115   4.435   5.838
  105OSM    C5S10618   4.907   4.408   5.834
  105OSM    H5S10619   4.814   4.406   5.892
  105OSM    C6S10620   4.894   4.386   5.685
  105OSM    H6S10621   4.786   4.385   5.661
  105OSM    H6T10622   4.936   4.288   5.654
  105OSM    C7S10623   4.958   4.499   5.603
  105OSM    H7S10624   5.069   4.499   5.611
  105OSM    H7T10625   4.920   4.592   5.650
  105OSM    C8S10626   4.915   4.511   5.456
  105OSM    H8S10627   4.925   4.618   5.428
  105OSM    H8T10628   4.807   4.485   5.446
  105OSM    C9S10629   4.997   4.431   5.354
  105OSM    H9S10630   4.976   4.322   5.366
  105OSM    H9T10631   5.106   4.447   5.372
  105OSM   C10S10632   4.964   4.475   5.210
  105OSM   H10S10633   5.005   4.577   5.193
  105OSM   H10T10634   4.854   4.484   5.201
  105OSM   C11S10635   5.013   4.382   5.098
  105OSM   H11S10636   4.998   4.432   5.000
  105OSM   H11T10637   4.947   4.292   5.102
  105OSM   C12S10638   5.159   4.336   5.107
  105OSM   H12S10639   5.180   4.298   5.210
  105OSM   H12T10640   5.223   4.425   5.092
  105OSM   C13S10641   5.201   4.226   5.007
  105OSM   H13S10642   5.145   4.132   5.025
  105OSM   H13T10643   5.307   4.199   5.024
  105OSM   C14S10644   5.189   4.265   4.860
  105OSM   H14S10645   5.226   4.369   4.851
  105OSM   H14T10646   5.083   4.269   4.827
  105OSM   C15S10647   5.274   4.178   4.765
  105OSM   H15S10648   5.368   4.144   4.813
  105OSM   H15T10649   5.303   4.251   4.686
  105OSM   C16S10650   5.199   4.065   4.695
  105OSM   H16S10651   5.096   4.102   4.675
  105OSM   H16T10652   5.194   3.979   4.766
  105OSM   C17S10653   5.253   4.012   4.561
  105OSM   H17S10654   5.214   3.909   4.551
  105OSM   H17T10655   5.364   4.006   4.563
  105OSM   C18S10656   5.205   4.086   4.435
  105OSM   H18S10657   5.276   4.166   4.404
  105OSM   H18T10658   5.106   4.133   4.453
  105OSM   H18U10659   5.197   4.015   4.350
  105OSM    C1F10660   5.423   4.424   6.022
  105OSM     OF10661   5.449   4.320   6.079
  105OSM    C2F10662   5.529   4.501   5.949
  105OSM    H2F10663   5.625   4.445   5.959
  105OSM    H2G10664   5.544   4.600   5.998
  105OSM    C3F10665   5.498   4.519   5.799
  105OSM    H3F10666   5.583   4.572   5.750
  105OSM    H3G10667   5.409   4.585   5.786
  105OSM    C4F10668   5.471   4.387   5.727
  105OSM    H4F10669   5.401   4.327   5.788
  105OSM    H4G10670   5.566   4.329   5.718
  105OSM    C5F10671   5.405   4.403   5.589
  105OSM    H5F10672   5.483   4.424   5.513
  105OSM    H5G10673   5.337   4.490   5.591
  105OSM    C6F10674   5.323   4.278   5.551
  105OSM    H6F10675   5.289   4.287   5.446
  105OSM    H6G10676   5.232   4.277   5.615
  105OSM    C7F10677   5.397   4.145   5.572
  105OSM    H7F10678   5.325   4.061   5.563
  105OSM    H7G10679   5.436   4.139   5.676
  105OSM    C8F10680   5.514   4.126   5.475
  105OSM    H8F10681   5.589   4.057   5.520
  105OSM    H8G10682   5.567   4.223   5.463
  105OSM    C9F10683   5.468   4.070   5.343
  105OSM    H9F10684   5.402   3.982   5.350
  105OSM   C10F10685   5.497   4.118   5.222
  105OSM   H10F10686   5.454   4.068   5.133
  105OSM   C11F10687   5.583   4.238   5.192
  105OSM   H11F10688   5.634   4.221   5.095
  105OSM   H11G10689   5.663   4.253   5.268
  105OSM   C12F10690   5.492   4.363   5.188
  105OSM   H12F10691   5.453   4.386   5.289
  105OSM   H12G10692   5.405   4.339   5.123
  105OSM   C13F10693   5.549   4.489   5.124
  105OSM   H13F10694   5.638   4.521   5.183
  105OSM   H13G10695   5.476   4.573   5.129
  105OSM   C14F10696   5.589   4.471   4.978
  105OSM   H14F10697   5.618   4.366   4.960
  105OSM   H14G10698   5.680   4.534   4.965
  105OSM   C15F10699   5.486   4.507   4.869
  105OSM   H15F10700   5.386   4.482   4.910
  105OSM   H15G10701   5.504   4.437   4.784
  105OSM   C16F10702   5.492   4.651   4.812
  105OSM   H16F10703   5.557   4.714   4.875
  105OSM   H16G10704   5.392   4.698   4.821
  105OSM   C17F10705   5.527   4.659   4.662
  105OSM   H17F10706   5.430   4.666   4.608
  105OSM   H17G10707   5.576   4.564   4.630
  105OSM   C18F10708   5.613   4.774   4.609
  105OSM   H18F10709   5.601   4.782   4.499
  105OSM   H18G10710   5.721   4.756   4.628
  105OSM   H18H10711   5.583   4.870   4.656
  106OSM      N10712   3.926   1.098   6.511
  106OSM    C1510713   4.028   1.207   6.501
  106OSM   H15A10714   4.120   1.178   6.549
  106OSM   H15B10715   3.991   1.298   6.544
  106OSM   H15C10716   4.049   1.226   6.396
  106OSM    C1410717   3.897   1.065   6.654
  106OSM   H14A10718   3.858   1.151   6.707
  106OSM   H14B10719   3.986   1.030   6.705
  106OSM   H14C10720   3.823   0.988   6.663
  106OSM    C1310721   3.800   1.143   6.443
  106OSM   H13A10722   3.819   1.153   6.337
  106OSM   H13B10723   3.762   1.237   6.480
  106OSM   H13C10724   3.725   1.066   6.447
  106OSM    C1210725   3.977   0.973   6.440
  106OSM   H12A10726   3.904   0.894   6.449
  106OSM   H12B10727   4.067   0.937   6.488
  106OSM    C1110728   4.005   0.987   6.288
  106OSM   H11A10729   4.064   0.900   6.252
  106OSM   H11B10730   4.067   1.076   6.267
  106OSM      P10731   3.786   0.871   6.210
  106OSM    O1310732   3.872   0.751   6.226
  106OSM    O1410733   3.678   0.891   6.309
  106OSM    O1110734   3.727   0.881   6.064
  106OSM    O1210735   3.882   0.998   6.217
  106OSM    C1S10736   3.805   0.950   5.965
  106OSM    H1S10737   3.903   0.900   5.953
  106OSM    H1T10738   3.822   1.056   5.993
  106OSM     NF10739   3.824   1.007   5.724
  106OSM    HNF10740   3.790   1.087   5.675
  106OSM    C2S10741   3.735   0.953   5.826
  106OSM    H2S10742   3.709   0.849   5.798
  106OSM    C3S10743   3.603   1.035   5.834
  106OSM    H3S10744   3.628   1.139   5.867
  106OSM     O310745   3.510   0.984   5.929
  106OSM    HO310746   3.562   0.927   5.985
  106OSM    C4S10747   3.538   1.040   5.699
  106OSM    H4S10748   3.488   0.947   5.669
  106OSM    C5S10749   3.535   1.145   5.615
  106OSM    H5S10750   3.581   1.241   5.645
  106OSM    C6S10751   3.468   1.144   5.480
  106OSM    H6S10752   3.419   1.243   5.466
  106OSM    H6T10753   3.387   1.068   5.475
  106OSM    C7S10754   3.565   1.121   5.362
  106OSM    H7S10755   3.655   1.185   5.371
  106OSM    H7T10756   3.512   1.149   5.269
  106OSM    C8S10757   3.612   0.976   5.344
  106OSM    H8S10758   3.523   0.910   5.340
  106OSM    H8T10759   3.674   0.945   5.430
  106OSM    C9S10760   3.691   0.961   5.213
  106OSM    H9S10761   3.779   1.028   5.214
  106OSM    H9T10762   3.626   0.993   5.128
  106OSM   C10S10763   3.736   0.817   5.189
  106OSM   H10S10764   3.648   0.749   5.200
  106OSM   H10T10765   3.809   0.791   5.269
  106OSM   C11S10766   3.803   0.794   5.053
  106OSM   H11S10767   3.858   0.698   5.056
  106OSM   H11T10768   3.879   0.873   5.037
  106OSM   C12S10769   3.704   0.788   4.935
  106OSM   H12S10770   3.643   0.881   4.932
  106OSM   H12T10771   3.636   0.702   4.953
  106OSM   C13S10772   3.772   0.768   4.799
  106OSM   H13S10773   3.842   0.682   4.805
  106OSM   H13T10774   3.833   0.859   4.778
  106OSM   C14S10775   3.672   0.742   4.685
  106OSM   H14S10776   3.602   0.828   4.678
  106OSM   H14T10777   3.612   0.652   4.710
  106OSM   C15S10778   3.740   0.721   4.548
  106OSM   H15S10779   3.662   0.697   4.472
  106OSM   H15T10780   3.809   0.634   4.555
  106OSM   C16S10781   3.817   0.846   4.504
  106OSM   H16S10782   3.898   0.864   4.577
  106OSM   H16T10783   3.746   0.931   4.505
  106OSM   C17S10784   3.885   0.838   4.367
  106OSM   H17S10785   3.900   0.941   4.329
  106OSM   H17T10786   3.817   0.786   4.296
  106OSM   C18S10787   4.021   0.770   4.376
  106OSM   H18S10788   4.018   0.691   4.454
  106OSM   H18T10789   4.100   0.843   4.405
  106OSM   H18U10790   4.049   0.723   4.280
  106OSM    C1F10791   3.941   0.954   5.690
  106OSM     OF10792   3.980   0.847   5.733
  106OSM    C2F10793   4.024   1.036   5.597
  106OSM    H2F10794   4.110   1.076   5.654
  106OSM    H2G10795   3.964   1.121   5.559
  106OSM    C3F10796   4.076   0.953   5.477
  106OSM    H3F10797   3.991   0.911   5.420
  106OSM    H3G10798   4.137   0.868   5.515
  106OSM    C4F10799   4.162   1.040   5.385
  106OSM    H4F10800   4.241   1.089   5.446
  106OSM    H4G10801   4.099   1.121   5.342
  106OSM    C5F10802   4.230   0.964   5.271
  106OSM    H5F10803   4.293   0.882   5.312
  106OSM    H5G10804   4.297   1.035   5.218
  106OSM    C6F10805   4.131   0.905   5.168
  106OSM    H6F10806   4.055   0.982   5.145
  106OSM    H6G10807   4.077   0.819   5.213
  106OSM    C7F10808   4.202   0.861   5.039
  106OSM    H7F10809   4.187   0.752   5.025
  106OSM    H7G10810   4.311   0.878   5.049
  106OSM    C8F10811   4.153   0.933   4.911
  106OSM    H8F10812   4.048   0.901   4.892
  106OSM    H8G10813   4.211   0.895   4.825
  106OSM    C9F10814   4.166   1.084   4.917
  106OSM    H9F10815   4.270   1.120   4.921
  106OSM   C10F10816   4.066   1.174   4.919
  106OSM   H10F10817   4.091   1.281   4.922
  106OSM   C11F10818   3.918   1.146   4.916
  106OSM   H11F10819   3.868   1.191   5.004
  106OSM   H11G10820   3.896   1.037   4.920
  106OSM   C12F10821   3.847   1.198   4.789
  106OSM   H12F10822   3.843   1.309   4.790
  106OSM   H12G10823   3.742   1.162   4.793
  106OSM   C13F10824   3.908   1.147   4.658
  106OSM   H13F10825   3.913   1.036   4.668
  106OSM   H13G10826   4.012   1.183   4.648
  106OSM   C14F10827   3.828   1.185   4.531
  106OSM   H14F10828   3.722   1.154   4.541
  106OSM   H14G10829   3.872   1.130   4.446
  106OSM   C15F10830   3.839   1.335   4.502
  106OSM   H15F10831   3.942   1.361   4.535
  106OSM   H15G10832   3.771   1.395   4.566
  106OSM   C16F10833   3.833   1.380   4.356
  106OSM   H16F10834   3.737   1.432   4.337
  106OSM   H16G10835   3.838   1.292   4.287
  106OSM   C17F10836   3.954   1.472   4.327
  106OSM   H17F10837   4.043   1.406   4.323
  106OSM   H17G10838   3.968   1.540   4.414
  106OSM   C18F10839   3.949   1.558   4.202
  106OSM   H18F10840   3.905   1.657   4.227
  106OSM   H18G10841   3.889   1.510   4.121
  106OSM   H18H10842   4.051   1.578   4.164
  107OSM      N10843   4.555   6.042   6.345
  107OSM    C1510844   4.595   6.147   6.248
  107OSM   H15A10845   4.615   6.105   6.151
  107OSM   H15B10846   4.682   6.202   6.283
  107OSM   H15C10847   4.514   6.217   6.238
  107OSM    C1410848   4.454   5.954   6.277
  107OSM   H14A10849   4.433   5.865   6.335
  107OSM   H14B10850   4.490   5.923   6.180
  107OSM   H14C10851   4.360   6.005   6.263
  107OSM    C1310852   4.675   5.957   6.375
  107OSM   H13A10853   4.721   5.922   6.284
  107OSM   H13B10854   4.647   5.867   6.428
  107OSM   H13C10855   4.750   6.010   6.432
  107OSM    C1210856   4.491   6.102   6.469
  107OSM   H12A10857   4.539   6.061   6.557
  107OSM   H12B10858   4.388   6.070   6.472
  107OSM    C1110859   4.486   6.257   6.480
  107OSM   H11A10860   4.589   6.298   6.469
  107OSM   H11B10861   4.453   6.285   6.582
  107OSM      P10862   4.244   6.321   6.402
  107OSM    O1310863   4.200   6.202   6.478
  107OSM    O1410864   4.211   6.452   6.464
  107OSM    O1110865   4.185   6.314   6.255
  107OSM    O1210866   4.401   6.314   6.380
  107OSM    C1S10867   4.215   6.204   6.167
  107OSM    H1S10868   4.135   6.127   6.176
  107OSM    H1T10869   4.312   6.156   6.190
  107OSM     NF10870   4.353   6.301   5.989
  107OSM    HNF10871   4.363   6.397   6.014
  107OSM    C2S10872   4.222   6.246   6.016
  107OSM    H2S10873   4.210   6.155   5.952
  107OSM    C3S10874   4.106   6.344   5.983
  107OSM    H3S10875   4.094   6.420   6.063
  107OSM     O310876   3.979   6.281   5.970
  107OSM    HO310877   3.938   6.295   6.055
  107OSM    C4S10878   4.139   6.422   5.857
  107OSM    H4S10879   4.157   6.528   5.882
  107OSM    C5S10880   4.148   6.387   5.727
  107OSM    H5S10881   4.129   6.284   5.694
  107OSM    C6S10882   4.186   6.492   5.626
  107OSM    H6S10883   4.287   6.532   5.650
  107OSM    H6T10884   4.116   6.578   5.635
  107OSM    C7S10885   4.189   6.455   5.476
  107OSM    H7S10886   4.106   6.386   5.450
  107OSM    H7T10887   4.285   6.403   5.454
  107OSM    C8S10888   4.179   6.582   5.390
  107OSM    H8S10889   4.245   6.662   5.430
  107OSM    H8T10890   4.074   6.618   5.398
  107OSM    C9S10891   4.211   6.562   5.242
  107OSM    H9S10892   4.166   6.644   5.183
  107OSM    H9T10893   4.163   6.467   5.210
  107OSM   C10S10894   4.362   6.562   5.213
  107OSM   H10S10895   4.410   6.485   5.278
  107OSM   H10T10896   4.405   6.660   5.242
  107OSM   C11S10897   4.396   6.532   5.067
  107OSM   H11S10898   4.506   6.521   5.058
  107OSM   H11T10899   4.365   6.617   5.003
  107OSM   C12S10900   4.329   6.403   5.016
  107OSM   H12S10901   4.219   6.420   5.007
  107OSM   H12T10902   4.344   6.324   5.092
  107OSM   C13S10903   4.381   6.354   4.881
  107OSM   H13S10904   4.338   6.254   4.860
  107OSM   H13T10905   4.492   6.343   4.885
  107OSM   C14S10906   4.341   6.446   4.765
  107OSM   H14S10907   4.386   6.546   4.782
  107OSM   H14T10908   4.230   6.458   4.765
  107OSM   C15S10909   4.385   6.394   4.628
  107OSM   H15S10910   4.495   6.386   4.625
  107OSM   H15T10911   4.353   6.469   4.553
  107OSM   C16S10912   4.323   6.261   4.582
  107OSM   H16S10913   4.214   6.261   4.604
  107OSM   H16T10914   4.369   6.177   4.638
  107OSM   C17S10915   4.345   6.244   4.432
  107OSM   H17S10916   4.452   6.267   4.410
  107OSM   H17T10917   4.285   6.320   4.378
  107OSM   C18S10918   4.312   6.105   4.377
  107OSM   H18S10919   4.205   6.081   4.395
  107OSM   H18T10920   4.375   6.028   4.427
  107OSM   H18U10921   4.332   6.101   4.268
  107OSM    C1F10922   4.466   6.235   5.968
  107OSM     OF10923   4.470   6.113   5.968
  107OSM    C2F10924   4.589   6.322   5.961
  107OSM    H2F10925   4.630   6.332   6.064
  107OSM    H2G10926   4.559   6.424   5.928
  107OSM    C3F10927   4.703   6.274   5.868
  107OSM    H3F10928   4.715   6.164   5.870
  107OSM    H3G10929   4.797   6.317   5.909
  107OSM    C4F10930   4.691   6.326   5.724
  107OSM    H4F10931   4.792   6.333   5.679
  107OSM    H4G10932   4.649   6.429   5.724
  107OSM    C5F10933   4.606   6.236   5.634
  107OSM    H5F10934   4.504   6.229   5.677
  107OSM    H5G10935   4.649   6.133   5.634
  107OSM    C6F10936   4.599   6.290   5.491
  107OSM    H6F10937   4.696   6.276   5.439
  107OSM    H6G10938   4.578   6.399   5.496
  107OSM    C7F10939   4.486   6.223   5.411
  107OSM    H7F10940   4.468   6.281   5.318
  107OSM    H7G10941   4.395   6.229   5.474
  107OSM    C8F10942   4.512   6.077   5.374
  107OSM    H8F10943   4.545   6.019   5.463
  107OSM    H8G10944   4.594   6.072   5.299
  107OSM    C9F10945   4.383   6.020   5.321
  107OSM    H9F10946   4.314   5.983   5.398
  107OSM   C10F10947   4.345   6.016   5.192
  107OSM   H10F10948   4.244   5.981   5.169
  107OSM   C11F10949   4.422   6.065   5.073
  107OSM   H11F10950   4.487   6.152   5.099
  107OSM   H11G10951   4.347   6.102   4.999
  107OSM   C12F10952   4.508   5.960   5.003
  107OSM   H12F10953   4.454   5.862   4.999
  107OSM   H12G10954   4.602   5.944   5.061
  107OSM   C13F10955   4.541   6.000   4.858
  107OSM   H13F10956   4.582   6.104   4.856
  107OSM   H13G10957   4.446   6.000   4.800
  107OSM   C14F10958   4.641   5.906   4.791
  107OSM   H14F10959   4.621   5.802   4.827
  107OSM   H14G10960   4.744   5.932   4.825
  107OSM   C15F10961   4.635   5.907   4.638
  107OSM   H15F10962   4.535   5.873   4.604
  107OSM   H15G10963   4.710   5.835   4.599
  107OSM   C16F10964   4.662   6.045   4.577
  107OSM   H16F10965   4.748   6.092   4.631
  107OSM   H16G10966   4.574   6.111   4.594
  107OSM   C17F10967   4.693   6.040   4.427
  107OSM   H17F10968   4.614   5.981   4.376
  107OSM   H17G10969   4.789   5.985   4.413
  107OSM   C18F10970   4.703   6.178   4.362
  107OSM   H18F10971   4.618   6.196   4.294
  107OSM   H18G10972   4.797   6.188   4.303
  107OSM   H18H10973   4.704   6.258   4.440
  108OSM      N10974   5.738   1.991   6.400
  108OSM    C1510975   5.794   1.852   6.398
  108OSM   H15A10976   5.787   1.805   6.495
  108OSM   H15B10977   5.897   1.856   6.368
  108OSM   H15C10978   5.738   1.791   6.328
  108OSM    C1410979   5.766   2.051   6.266
  108OSM   H14A10980   5.729   2.152   6.259
  108OSM   H14B10981   5.727   1.990   6.185
  108OSM   H14C10982   5.872   2.057   6.251
  108OSM    C1310983   5.590   1.982   6.420
  108OSM   H13A10984   5.546   1.914   6.348
  108OSM   H13B10985   5.543   2.079   6.408
  108OSM   H13C10986   5.565   1.943   6.517
  108OSM    C1210987   5.798   2.075   6.511
  108OSM   H12A10988   5.767   2.038   6.607
  108OSM   H12B10989   5.756   2.174   6.504
  108OSM    C1110990   5.952   2.098   6.516
  108OSM   H11A10991   6.004   2.001   6.512
  108OSM   H11B10992   5.977   2.145   6.614
  108OSM      P10993   5.948   2.326   6.379
  108OSM    O1310994   5.816   2.349   6.443
  108OSM    O1410995   6.054   2.426   6.403
  108OSM    O1110996   5.924   2.312   6.224
  108OSM    O1210997   6.000   2.180   6.411
  108OSM    C1S10998   6.013   2.234   6.142
  108OSM    H1S10999   6.029   2.132   6.183
  108OSM    H1T11000   6.114   2.281   6.137
  108OSM     NF11001   6.009   2.110   5.920
  108OSM    HNF11002   6.058   2.134   5.836
  108OSM    C2S11003   5.955   2.223   5.997
  108OSM    H2S11004   5.846   2.208   6.006
  108OSM    C3S11005   5.981   2.363   5.932
  108OSM    H3S11006   6.090   2.372   5.910
  108OSM     O311007   5.952   2.473   6.018
  108OSM    HO311008   5.943   2.432   6.104
  108OSM    C4S11009   5.902   2.386   5.806
  108OSM    H4S11010   5.792   2.384   5.817
  108OSM    C5S11011   5.957   2.416   5.688
  108OSM    H5S11012   6.066   2.429   5.682
  108OSM    C6S11013   5.886   2.447   5.559
  108OSM    H6S11014   5.957   2.514   5.506
  108OSM    H6T11015   5.796   2.508   5.578
  108OSM    C7S11016   5.852   2.342   5.452
  108OSM    H7S11017   5.765   2.281   5.484
  108OSM    H7T11018   5.939   2.274   5.438
  108OSM    C8S11019   5.821   2.417   5.320
  108OSM    H8S11020   5.897   2.497   5.305
  108OSM    H8T11021   5.723   2.467   5.331
  108OSM    C9S11022   5.822   2.332   5.193
  108OSM    H9S11023   5.753   2.246   5.205
  108OSM    H9T11024   5.924   2.291   5.173
  108OSM   C10S11025   5.782   2.415   5.070
  108OSM   H10S11026   5.862   2.488   5.045
  108OSM   H10T11027   5.690   2.471   5.094
  108OSM   C11S11028   5.754   2.325   4.949
  108OSM   H11S11029   5.672   2.257   4.982
  108OSM   H11T11030   5.842   2.263   4.925
  108OSM   C12S11031   5.707   2.401   4.824
  108OSM   H12S11032   5.794   2.428   4.761
  108OSM   H12T11033   5.656   2.495   4.855
  108OSM   C13S11034   5.604   2.319   4.744
  108OSM   H13S11035   5.523   2.290   4.813
  108OSM   H13T11036   5.652   2.225   4.709
  108OSM   C14S11037   5.541   2.391   4.624
  108OSM   H14S11038   5.502   2.490   4.657
  108OSM   H14T11039   5.455   2.331   4.588
  108OSM   C15S11040   5.637   2.411   4.507
  108OSM   H15S11041   5.719   2.477   4.542
  108OSM   H15T11042   5.583   2.465   4.426
  108OSM   C16S11043   5.693   2.280   4.448
  108OSM   H16S11044   5.612   2.228   4.392
  108OSM   H16T11045   5.727   2.212   4.529
  108OSM   C17S11046   5.815   2.301   4.359
  108OSM   H17S11047   5.791   2.371   4.277
  108OSM   H17T11048   5.843   2.204   4.314
  108OSM   C18S11049   5.934   2.353   4.439
  108OSM   H18S11050   6.025   2.356   4.375
  108OSM   H18T11051   5.954   2.289   4.527
  108OSM   H18U11052   5.915   2.456   4.476
  108OSM    C1F11053   6.000   1.980   5.953
  108OSM     OF11054   5.962   1.944   6.064
  108OSM    C2F11055   6.024   1.878   5.845
  108OSM    H2F11056   6.033   1.928   5.746
  108OSM    H2G11057   5.932   1.815   5.841
  108OSM    C3F11058   6.140   1.779   5.867
  108OSM    H3F11059   6.123   1.691   5.802
  108OSM    H3G11060   6.142   1.742   5.972
  108OSM    C4F11061   6.279   1.834   5.832
  108OSM    H4F11062   6.353   1.751   5.838
  108OSM    H4G11063   6.309   1.908   5.909
  108OSM    C5F11064   6.290   1.898   5.693
  108OSM    H5F11065   6.393   1.939   5.685
  108OSM    H5G11066   6.223   1.986   5.683
  108OSM    C6F11067   6.267   1.803   5.574
  108OSM    H6F11068   6.159   1.780   5.565
  108OSM    H6G11069   6.320   1.708   5.593
  108OSM    C7F11070   6.322   1.863   5.443
  108OSM    H7F11071   6.419   1.811   5.424
  108OSM    H7G11072   6.351   1.969   5.463
  108OSM    C8F11073   6.232   1.858   5.317
  108OSM    H8F11074   6.214   1.752   5.287
  108OSM    H8G11075   6.287   1.905   5.232
  108OSM    C9F11076   6.102   1.931   5.341
  108OSM    H9F11077   6.089   1.954   5.447
  108OSM   C10F11078   6.004   1.972   5.259
  108OSM   H10F11079   5.921   2.024   5.308
  108OSM   C11F11080   5.979   1.966   5.110
  108OSM   H11F11081   5.975   2.072   5.074
  108OSM   H11G11082   5.875   1.930   5.097
  108OSM   C12F11083   6.060   1.888   5.003
  108OSM   H12F11084   6.031   1.781   5.007
  108OSM   H12G11085   6.170   1.894   5.022
  108OSM   C13F11086   6.027   1.946   4.864
  108OSM   H13F11087   6.069   2.048   4.854
  108OSM   H13G11088   5.917   1.955   4.858
  108OSM   C14F11089   6.073   1.863   4.743
  108OSM   H14F11090   6.059   1.755   4.765
  108OSM   H14G11091   6.181   1.882   4.728
  108OSM   C15F11092   5.996   1.897   4.614
  108OSM   H15F11093   5.929   1.984   4.632
  108OSM   H15G11094   5.930   1.811   4.586
  108OSM   C16F11095   6.085   1.929   4.494
  108OSM   H16F11096   6.025   1.936   4.400
  108OSM   H16G11097   6.158   1.847   4.480
  108OSM   C17F11098   6.161   2.059   4.515
  108OSM   H17F11099   6.167   2.081   4.624
  108OSM   H17G11100   6.106   2.143   4.468
  108OSM   C18F11101   6.302   2.052   4.460
  108OSM   H18F11102   6.363   2.139   4.494
  108OSM   H18G11103   6.299   2.051   4.349
  108OSM   H18H11104   6.352   1.959   4.495
  109OSM      N11105   2.667   1.270   6.333
  109OSM    C1511106   2.519   1.289   6.320
  109OSM   H15A11107   2.479   1.217   6.250
  109OSM   H15B11108   2.494   1.387   6.280
  109OSM   H15C11109   2.468   1.273   6.414
  109OSM    C1411110   2.720   1.271   6.193
  109OSM   H14A11111   2.669   1.195   6.136
  109OSM   H14B11112   2.827   1.257   6.188
  109OSM   H14C11113   2.692   1.363   6.145
  109OSM    C1311114   2.718   1.391   6.404
  109OSM   H13A11115   2.686   1.393   6.507
  109OSM   H13B11116   2.677   1.479   6.356
  109OSM   H13C11117   2.825   1.399   6.396
  109OSM    C1211118   2.700   1.142   6.409
  109OSM   H12A11119   2.649   1.147   6.504
  109OSM   H12B11120   2.806   1.139   6.428
  109OSM    C1111121   2.661   1.004   6.350
  109OSM   H11A11122   2.701   0.922   6.413
  109OSM   H11B11123   2.709   0.993   6.250
  109OSM      P11124   2.414   0.978   6.447
  109OSM    O1311125   2.438   0.854   6.524
  109OSM    O1411126   2.410   1.104   6.524
  109OSM    O1111127   2.285   0.964   6.356
  109OSM    O1211128   2.522   0.989   6.335
  109OSM    C1S11129   2.259   1.051   6.244
  109OSM    H1S11130   2.276   1.158   6.270
  109OSM    H1T11131   2.152   1.042   6.216
  109OSM     NF11132   2.307   1.107   6.006
  109OSM    HNF11133   2.215   1.107   5.967
  109OSM    C2S11134   2.342   1.017   6.115
  109OSM    H2S11135   2.450   1.030   6.137
  109OSM    C3S11136   2.323   0.868   6.080
  109OSM    H3S11137   2.222   0.835   6.111
  109OSM     O311138   2.417   0.782   6.145
  109OSM    HO311139   2.454   0.835   6.216
  109OSM    C4S11140   2.341   0.838   5.934
  109OSM    H4S11141   2.429   0.883   5.885
  109OSM    C5S11142   2.258   0.758   5.865
  109OSM    H5S11143   2.175   0.710   5.920
  109OSM    C6S11144   2.266   0.718   5.720
  109OSM    H6S11145   2.164   0.686   5.690
  109OSM    H6T11146   2.323   0.623   5.713
  109OSM    C7S11147   2.315   0.812   5.608
  109OSM    H7S11148   2.262   0.910   5.613
  109OSM    H7T11149   2.284   0.761   5.515
  109OSM    C8S11150   2.465   0.837   5.592
  109OSM    H8S11151   2.524   0.752   5.633
  109OSM    H8T11152   2.491   0.929   5.648
  109OSM    C9S11153   2.506   0.857   5.445
  109OSM    H9S11154   2.493   0.761   5.390
  109OSM    H9T11155   2.613   0.884   5.441
  109OSM   C10S11156   2.423   0.965   5.375
  109OSM   H10S11157   2.427   1.058   5.435
  109OSM   H10T11158   2.316   0.934   5.371
  109OSM   C11S11159   2.471   0.995   5.232
  109OSM   H11S11160   2.568   0.944   5.215
  109OSM   H11T11161   2.485   1.105   5.224
  109OSM   C12S11162   2.373   0.953   5.123
  109OSM   H12S11163   2.272   0.978   5.162
  109OSM   H12T11164   2.377   0.843   5.107
  109OSM   C13S11165   2.390   1.027   4.989
  109OSM   H13S11166   2.487   0.994   4.945
  109OSM   H13T11167   2.396   1.137   5.008
  109OSM   C14S11168   2.276   1.001   4.889
  109OSM   H14S11169   2.185   1.057   4.920
  109OSM   H14T11170   2.253   0.893   4.893
  109OSM   C15S11171   2.308   1.039   4.744
  109OSM   H15S11172   2.403   0.989   4.715
  109OSM   H15T11173   2.323   1.149   4.736
  109OSM   C16S11174   2.199   0.998   4.644
  109OSM   H16S11175   2.108   1.060   4.660
  109OSM   H16T11176   2.171   0.892   4.664
  109OSM   C17S11177   2.244   1.008   4.498
  109OSM   H17S11178   2.335   0.946   4.483
  109OSM   H17T11179   2.275   1.113   4.478
  109OSM   C18S11180   2.137   0.963   4.397
  109OSM   H18S11181   2.174   0.974   4.293
  109OSM   H18T11182   2.045   1.023   4.409
  109OSM   H18U11183   2.111   0.856   4.414
  109OSM    C1F11184   2.408   1.174   5.951
  109OSM     OF11185   2.489   1.233   6.022
  109OSM    C2F11186   2.429   1.160   5.804
  109OSM    H2F11187   2.379   1.246   5.754
  109OSM    H2G11188   2.380   1.067   5.768
  109OSM    C3F11189   2.581   1.160   5.769
  109OSM    H3F11190   2.622   1.257   5.803
  109OSM    H3G11191   2.589   1.156   5.658
  109OSM    C4F11192   2.669   1.047   5.828
  109OSM    H4F11193   2.633   0.949   5.792
  109OSM    H4G11194   2.659   1.047   5.939
  109OSM    C5F11195   2.821   1.055   5.795
  109OSM    H5F11196   2.868   0.959   5.826
  109OSM    H5G11197   2.867   1.136   5.857
  109OSM    C6F11198   2.856   1.083   5.647
  109OSM    H6F11199   2.831   1.189   5.628
  109OSM    H6G11200   2.791   1.020   5.583
  109OSM    C7F11201   3.004   1.062   5.606
  109OSM    H7F11202   3.022   0.953   5.618
  109OSM    H7G11203   3.072   1.114   5.676
  109OSM    C8F11204   3.042   1.098   5.458
  109OSM    H8F11205   2.959   1.060   5.394
  109OSM    H8G11206   3.122   1.025   5.435
  109OSM    C9F11207   3.101   1.233   5.413
  109OSM    H9F11208   3.205   1.234   5.450
  109OSM   C10F11209   3.067   1.350   5.348
  109OSM   H10F11210   3.156   1.412   5.328
  109OSM   C11F11211   2.948   1.422   5.283
  109OSM   H11F11212   2.951   1.527   5.318
  109OSM   H11G11213   2.851   1.387   5.325
  109OSM   C12F11214   2.925   1.436   5.127
  109OSM   H12F11215   2.955   1.340   5.082
  109OSM   H12G11216   2.996   1.514   5.092
  109OSM   C13F11217   2.781   1.478   5.078
  109OSM   H13F11218   2.789   1.588   5.065
  109OSM   H13G11219   2.709   1.461   5.160
  109OSM   C14F11220   2.712   1.426   4.945
  109OSM   H14F11221   2.780   1.436   4.857
  109OSM   H14G11222   2.629   1.498   4.926
  109OSM   C15F11223   2.638   1.289   4.934
  109OSM   H15F11224   2.561   1.285   5.014
  109OSM   H15G11225   2.708   1.204   4.952
  109OSM   C16F11226   2.569   1.253   4.799
  109OSM   H16F11227   2.476   1.313   4.787
  109OSM   H16G11228   2.539   1.146   4.809
  109OSM   C17F11229   2.650   1.256   4.668
  109OSM   H17F11230   2.757   1.235   4.688
  109OSM   H17G11231   2.641   1.359   4.627
  109OSM   C18F11232   2.600   1.161   4.558
  109OSM   H18F11233   2.609   1.055   4.590
  109OSM   H18G11234   2.661   1.174   4.465
  109OSM   H18H11235   2.494   1.182   4.532
  110OSM      N11236   6.059   5.436   6.436
  110OSM    C1511237   6.141   5.349   6.526
  110OSM   H15A11238   6.140   5.385   6.628
  110OSM   H15B11239   6.244   5.347   6.494
  110OSM   H15C11240   6.106   5.247   6.524
  110OSM    C1411241   6.117   5.574   6.436
  110OSM   H14A11242   6.063   5.635   6.365
  110OSM   H14B11243   6.220   5.571   6.404
  110OSM   H14C11244   6.110   5.620   6.534
  110OSM    C1311245   6.072   5.386   6.295
  110OSM   H13A11246   6.036   5.285   6.285
  110OSM   H13B11247   6.175   5.390   6.262
  110OSM   H13C11248   6.012   5.448   6.230
  110OSM    C1211249   5.912   5.439   6.474
  110OSM   H12A11250   5.902   5.434   6.581
  110OSM   H12B11251   5.864   5.352   6.433
  110OSM    C1111252   5.829   5.560   6.422
  110OSM   H11A11253   5.875   5.657   6.453
  110OSM   H11B11254   5.730   5.558   6.472
  110OSM      P11255   5.703   5.468   6.220
  110OSM    O1311256   5.742   5.330   6.257
  110OSM    O1411257   5.576   5.526   6.273
  110OSM    O1111258   5.712   5.492   6.063
  110OSM    O1211259   5.819   5.559   6.278
  110OSM    C1S11260   5.834   5.473   5.991
  110OSM    H1S11261   5.890   5.384   6.028
  110OSM    H1T11262   5.899   5.562   6.006
  110OSM     NF11263   5.854   5.319   5.796
  110OSM    HNF11264   5.941   5.311   5.748
  110OSM    C2S11265   5.813   5.452   5.836
  110OSM    H2S11266   5.705   5.464   5.813
  110OSM    C3S11267   5.893   5.561   5.758
  110OSM    H3S11268   5.992   5.574   5.804
  110OSM     O311269   5.827   5.688   5.759
  110OSM    HO311270   5.759   5.680   5.826
  110OSM    C4S11271   5.912   5.519   5.613
  110OSM    H4S11272   5.830   5.546   5.545
  110OSM    C5S11273   6.021   5.455   5.566
  110OSM    H5S11274   6.103   5.431   5.636
  110OSM    C6S11275   6.046   5.410   5.424
  110OSM    H6S11276   5.952   5.411   5.365
  110OSM    H6T11277   6.085   5.306   5.424
  110OSM    C7S11278   6.148   5.505   5.357
  110OSM    H7S11279   6.234   5.517   5.425
  110OSM    H7T11280   6.094   5.601   5.346
  110OSM    C8S11281   6.206   5.469   5.219
  110OSM    H8S11282   6.291   5.398   5.231
  110OSM    H8T11283   6.248   5.562   5.173
  110OSM    C9S11284   6.105   5.407   5.124
  110OSM    H9S11285   6.010   5.464   5.125
  110OSM    H9T11286   6.084   5.307   5.169
  110OSM   C10S11287   6.155   5.376   4.982
  110OSM   H10S11288   6.099   5.288   4.945
  110OSM   H10T11289   6.262   5.348   4.985
  110OSM   C11S11290   6.133   5.489   4.881
  110OSM   H11S11291   6.161   5.452   4.780
  110OSM   H11T11292   6.201   5.573   4.906
  110OSM   C12S11293   5.989   5.542   4.876
  110OSM   H12S11294   5.986   5.619   4.796
  110OSM   H12T11295   5.963   5.593   4.971
  110OSM   C13S11296   5.879   5.439   4.847
  110OSM   H13S11297   5.871   5.367   4.932
  110OSM   H13T11298   5.907   5.382   4.756
  110OSM   C14S11299   5.745   5.509   4.825
  110OSM   H14S11300   5.761   5.595   4.757
  110OSM   H14T11301   5.706   5.549   4.921
  110OSM   C15S11302   5.638   5.422   4.758
  110OSM   H15S11303   5.604   5.347   4.832
  110OSM   H15T11304   5.681   5.366   4.672
  110OSM   C16S11305   5.518   5.506   4.712
  110OSM   H16S11306   5.497   5.582   4.790
  110OSM   H16T11307   5.428   5.441   4.707
  110OSM   C17S11308   5.535   5.578   4.576
  110OSM   H17S11309   5.620   5.648   4.585
  110OSM   H17T11310   5.443   5.638   4.559
  110OSM   C18S11311   5.559   5.493   4.451
  110OSM   H18S11312   5.577   5.558   4.363
  110OSM   H18T11313   5.469   5.431   4.429
  110OSM   H18U11314   5.647   5.426   4.464
  110OSM    C1F11315   5.785   5.209   5.819
  110OSM     OF11316   5.668   5.213   5.850
  110OSM    C2F11317   5.864   5.082   5.807
  110OSM    H2F11318   5.861   5.037   5.908
  110OSM    H2G11319   5.968   5.107   5.781
  110OSM    C3F11320   5.813   4.974   5.708
  110OSM    H3F11321   5.730   4.920   5.758
  110OSM    H3G11322   5.896   4.902   5.692
  110OSM    C4F11323   5.765   5.019   5.571
  110OSM    H4F11324   5.694   5.103   5.584
  110OSM    H4G11325   5.710   4.935   5.524
  110OSM    C5F11326   5.873   5.062   5.473
  110OSM    H5F11327   5.938   4.976   5.448
  110OSM    H5G11328   5.936   5.142   5.519
  110OSM    C6F11329   5.804   5.117   5.348
  110OSM    H6F11330   5.741   5.203   5.378
  110OSM    H6G11331   5.736   5.040   5.305
  110OSM    C7F11332   5.905   5.163   5.243
  110OSM    H7F11333   6.006   5.159   5.290
  110OSM    H7G11334   5.883   5.269   5.218
  110OSM    C8F11335   5.910   5.080   5.115
  110OSM    H8F11336   5.921   4.973   5.143
  110OSM    H8G11337   6.002   5.108   5.058
  110OSM    C9F11338   5.786   5.105   5.033
  110OSM    H9F11339   5.695   5.125   5.090
  110OSM   C10F11340   5.780   5.104   4.899
  110OSM   H10F11341   5.683   5.126   4.851
  110OSM   C11F11342   5.893   5.078   4.803
  110OSM   H11F11343   5.964   5.002   4.844
  110OSM   H11G11344   5.953   5.171   4.789
  110OSM   C12F11345   5.843   5.030   4.665
  110OSM   H12F11346   5.733   5.033   4.659
  110OSM   H12G11347   5.872   4.924   4.651
  110OSM   C13F11348   5.898   5.113   4.549
  110OSM   H13F11349   5.890   5.222   4.572
  110OSM   H13G11350   5.835   5.094   4.459
  110OSM   C14F11351   6.042   5.074   4.517
  110OSM   H14F11352   6.043   4.964   4.499
  110OSM   H14G11353   6.107   5.094   4.605
  110OSM   C15F11354   6.099   5.144   4.394
  110OSM   H15F11355   6.112   5.251   4.417
  110OSM   H15G11356   6.026   5.136   4.310
  110OSM   C16F11357   6.232   5.080   4.353
  110OSM   H16F11358   6.213   4.974   4.325
  110OSM   H16G11359   6.298   5.080   4.442
  110OSM   C17F11360   6.308   5.148   4.238
  110OSM   H17F11361   6.395   5.083   4.213
  110OSM   H17G11362   6.349   5.244   4.274
  110OSM   C18F11363   6.224   5.171   4.112
  110OSM   H18F11364   6.287   5.215   4.032
  110OSM   H18G11365   6.141   5.241   4.133
  110OSM   H18H11366   6.182   5.075   4.075
  111OSM      N11367   1.110   5.005   6.263
  111OSM    C1511368   0.997   4.997   6.165
  111OSM   H15A11369   0.905   4.981   6.220
  111OSM   H15B11370   1.011   4.920   6.090
  111OSM   H15C11371   0.985   5.093   6.118
  111OSM    C1411372   1.123   4.873   6.333
  111OSM   H14A11373   1.142   4.792   6.264
  111OSM   H14B11374   1.032   4.852   6.385
  111OSM   H14C11375   1.203   4.876   6.406
  111OSM    C1311376   1.236   5.042   6.191
  111OSM   H13A11377   1.224   5.138   6.143
  111OSM   H13B11378   1.261   4.969   6.115
  111OSM   H13C11379   1.319   5.051   6.259
  111OSM    C1211380   1.076   5.115   6.363
  111OSM   H12A11381   1.052   5.204   6.307
  111OSM   H12B11382   1.163   5.138   6.422
  111OSM    C1111383   0.956   5.091   6.459
  111OSM   H11A11384   0.945   5.183   6.520
  111OSM   H11B11385   0.980   5.008   6.529
  111OSM      P11386   0.696   5.077   6.458
  111OSM    O1311387   0.608   4.967   6.412
  111OSM    O1411388   0.717   5.088   6.604
  111OSM    O1111389   0.638   5.212   6.398
  111OSM    O1211390   0.836   5.062   6.387
  111OSM    C1S11391   0.707   5.299   6.308
  111OSM    H1S11392   0.814   5.312   6.338
  111OSM    H1T11393   0.661   5.400   6.312
  111OSM     NF11394   0.780   5.339   6.070
  111OSM    HNF11395   0.729   5.403   6.014
  111OSM    C2S11396   0.702   5.252   6.159
  111OSM    H2S11397   0.748   5.151   6.156
  111OSM    C3S11398   0.555   5.241   6.106
  111OSM    H3S11399   0.516   5.344   6.091
  111OSM     O311400   0.461   5.177   6.192
  111OSM    HO311401   0.509   5.165   6.274
  111OSM    C4S11402   0.559   5.169   5.974
  111OSM    H4S11403   0.586   5.063   5.983
  111OSM    C5S11404   0.530   5.220   5.852
  111OSM    H5S11405   0.498   5.325   5.845
  111OSM    C6S11406   0.536   5.146   5.721
  111OSM    H6S11407   0.592   5.209   5.649
  111OSM    H6T11408   0.434   5.134   5.678
  111OSM    C7S11409   0.605   5.008   5.721
  111OSM    H7S11410   0.535   4.930   5.758
  111OSM    H7T11411   0.692   5.009   5.790
  111OSM    C8S11412   0.660   4.967   5.583
  111OSM    H8S11413   0.722   4.876   5.592
  111OSM    H8T11414   0.727   5.048   5.547
  111OSM    C9S11415   0.552   4.943   5.477
  111OSM    H9S11416   0.459   5.000   5.500
  111OSM    H9T11417   0.526   4.835   5.482
  111OSM   C10S11418   0.597   4.979   5.334
  111OSM   H10S11419   0.528   4.931   5.262
  111OSM   H10T11420   0.699   4.939   5.315
  111OSM   C11S11421   0.593   5.130   5.307
  111OSM   H11S11422   0.665   5.183   5.374
  111OSM   H11T11423   0.491   5.168   5.331
  111OSM   C12S11424   0.626   5.165   5.161
  111OSM   H12S11425   0.557   5.108   5.095
  111OSM   H12T11426   0.729   5.132   5.138
  111OSM   C13S11427   0.611   5.315   5.131
  111OSM   H13S11428   0.690   5.372   5.184
  111OSM   H13T11429   0.512   5.349   5.170
  111OSM   C14S11430   0.615   5.347   4.981
  111OSM   H14S11431   0.596   5.456   4.969
  111OSM   H14T11432   0.533   5.294   4.930
  111OSM   C15S11433   0.748   5.313   4.912
  111OSM   H15S11434   0.765   5.203   4.919
  111OSM   H15T11435   0.831   5.364   4.964
  111OSM   C16S11436   0.747   5.354   4.764
  111OSM   H16S11437   0.753   5.465   4.758
  111OSM   H16T11438   0.651   5.322   4.718
  111OSM   C17S11439   0.862   5.295   4.681
  111OSM   H17S11440   0.863   5.185   4.694
  111OSM   H17T11441   0.958   5.335   4.720
  111OSM   C18S11442   0.850   5.327   4.532
  111OSM   H18S11443   0.931   5.278   4.474
  111OSM   H18T11444   0.859   5.437   4.516
  111OSM   H18U11445   0.753   5.293   4.492
  111OSM    C1F11446   0.914   5.345   6.066
  111OSM     OF11447   0.982   5.293   6.152
  111OSM    C2F11448   0.975   5.417   5.949
  111OSM    H2F11449   1.019   5.512   5.984
  111OSM    H2G11450   0.896   5.440   5.875
  111OSM    C3F11451   1.086   5.334   5.879
  111OSM    H3F11452   1.174   5.329   5.946
  111OSM    H3G11453   1.117   5.390   5.789
  111OSM    C4F11454   1.046   5.192   5.837
  111OSM    H4F11455   1.036   5.130   5.928
  111OSM    H4G11456   1.129   5.148   5.777
  111OSM    C5F11457   0.914   5.181   5.757
  111OSM    H5F11458   0.829   5.219   5.819
  111OSM    H5G11459   0.895   5.074   5.739
  111OSM    C6F11460   0.914   5.253   5.621
  111OSM    H6F11461   0.928   5.362   5.635
  111OSM    H6G11462   0.815   5.238   5.573
  111OSM    C7F11463   1.024   5.198   5.530
  111OSM    H7F11464   1.031   5.088   5.544
  111OSM    H7G11465   1.119   5.242   5.566
  111OSM    C8F11466   1.004   5.226   5.380
  111OSM    H8F11467   0.980   5.333   5.367
  111OSM    H8G11468   0.918   5.167   5.341
  111OSM    C9F11469   1.133   5.192   5.311
  111OSM    H9F11470   1.221   5.201   5.376
  111OSM   C10F11471   1.155   5.150   5.185
  111OSM   H10F11472   1.259   5.132   5.155
  111OSM   C11F11473   1.054   5.125   5.077
  111OSM   H11F11474   0.951   5.147   5.111
  111OSM   H11G11475   1.056   5.017   5.049
  111OSM   C12F11476   1.080   5.206   4.948
  111OSM   H12F11477   1.059   5.314   4.967
  111OSM   H12G11478   1.006   5.171   4.873
  111OSM   C13F11479   1.221   5.194   4.887
  111OSM   H13F11480   1.277   5.111   4.937
  111OSM   H13G11481   1.276   5.288   4.908
  111OSM   C14F11482   1.222   5.166   4.736
  111OSM   H14F11483   1.325   5.182   4.698
  111OSM   H14G11484   1.156   5.238   4.683
  111OSM   C15F11485   1.181   5.022   4.702
  111OSM   H15F11486   1.077   5.002   4.735
  111OSM   H15G11487   1.248   4.955   4.759
  111OSM   C16F11488   1.197   4.983   4.554
  111OSM   H16F11489   1.193   4.872   4.546
  111OSM   H16G11490   1.298   5.015   4.519
  111OSM   C17F11491   1.091   5.042   4.461
  111OSM   H17F11492   1.103   5.152   4.460
  111OSM   H17G11493   0.990   5.018   4.501
  111OSM   C18F11494   1.102   4.989   4.318
  111OSM   H18F11495   1.024   5.033   4.253
  111OSM   H18G11496   1.091   4.879   4.316
  111OSM   H18H11497   1.202   5.014   4.275
  112OSM      N11498   4.975   0.966   6.478
  112OSM    C1511499   5.076   0.929   6.582
  112OSM   H15A11500   5.097   1.010   6.650
  112OSM   H15B11501   5.168   0.904   6.531
  112OSM   H15C11502   5.046   0.841   6.637
  112OSM    C1411503   4.947   0.847   6.392
  112OSM   H14A11504   4.881   0.871   6.310
  112OSM   H14B11505   4.906   0.765   6.449
  112OSM   H14C11506   5.039   0.811   6.349
  112OSM    C1311507   4.850   1.010   6.546
  112OSM   H13A11508   4.773   1.037   6.474
  112OSM   H13B11509   4.867   1.097   6.608
  112OSM   H13C11510   4.811   0.932   6.611
  112OSM    C1211511   5.034   1.078   6.393
  112OSM   H12A11512   5.070   1.156   6.458
  112OSM   H12B11513   4.956   1.122   6.333
  112OSM    C1111514   5.150   1.041   6.295
  112OSM   H11A11515   5.190   1.135   6.252
  112OSM   H11B11516   5.105   0.985   6.211
  112OSM      P11517   5.302   0.824   6.319
  112OSM    O1311518   5.448   0.817   6.323
  112OSM    O1411519   5.227   0.731   6.408
  112OSM    O1111520   5.244   0.806   6.172
  112OSM    O1211521   5.256   0.971   6.359
  112OSM    C1S11522   5.326   0.770   6.061
  112OSM    H1S11523   5.403   0.694   6.088
  112OSM    H1T11524   5.380   0.859   6.021
  112OSM     NF11525   5.325   0.665   5.838
  112OSM    HNF11526   5.342   0.731   5.765
  112OSM    C2S11527   5.240   0.708   5.945
  112OSM    H2S11528   5.188   0.619   5.988
  112OSM    C3S11529   5.133   0.808   5.893
  112OSM    H3S11530   5.184   0.889   5.837
  112OSM     O311531   5.057   0.870   5.996
  112OSM    HO311532   5.113   0.856   6.072
  112OSM    C4S11533   5.034   0.739   5.800
  112OSM    H4S11534   4.981   0.656   5.849
  112OSM    C5S11535   5.005   0.769   5.671
  112OSM    H5S11536   5.056   0.853   5.621
  112OSM    C6S11537   4.901   0.695   5.588
  112OSM    H6S11538   4.807   0.754   5.594
  112OSM    H6T11539   4.877   0.596   5.632
  112OSM    C7S11540   4.928   0.674   5.437
  112OSM    H7S11541   4.968   0.768   5.392
  112OSM    H7T11542   4.831   0.653   5.388
  112OSM    C8S11543   5.021   0.556   5.405
  112OSM    H8S11544   4.986   0.466   5.460
  112OSM    H8T11545   5.123   0.580   5.442
  112OSM    C9S11546   5.026   0.519   5.255
  112OSM    H9S11547   4.928   0.480   5.222
  112OSM    H9T11548   5.101   0.438   5.242
  112OSM   C10S11549   5.062   0.636   5.162
  112OSM   H10S11550   5.139   0.697   5.213
  112OSM   H10T11551   4.974   0.701   5.145
  112OSM   C11S11552   5.120   0.591   5.026
  112OSM   H11S11553   5.038   0.548   4.965
  112OSM   H11T11554   5.195   0.511   5.043
  112OSM   C12S11555   5.190   0.706   4.951
  112OSM   H12S11556   5.288   0.725   4.999
  112OSM   H12T11557   5.129   0.799   4.960
  112OSM   C13S11558   5.214   0.677   4.803
  112OSM   H13S11559   5.256   0.575   4.790
  112OSM   H13T11560   5.289   0.749   4.764
  112OSM   C14S11561   5.086   0.693   4.722
  112OSM   H14S11562   5.050   0.797   4.734
  112OSM   H14T11563   5.007   0.626   4.763
  112OSM   C15S11564   5.102   0.663   4.573
  112OSM   H15S11565   5.128   0.556   4.557
  112OSM   H15T11566   5.186   0.724   4.531
  112OSM   C16S11567   4.972   0.697   4.500
  112OSM   H16S11568   4.941   0.800   4.528
  112OSM   H16T11569   4.892   0.628   4.534
  112OSM   C17S11570   4.984   0.691   4.347
  112OSM   H17S11571   5.020   0.591   4.316
  112OSM   H17T11572   5.059   0.766   4.315
  112OSM   C18S11573   4.849   0.722   4.282
  112OSM   H18S11574   4.778   0.638   4.298
  112OSM   H18T11575   4.861   0.737   4.172
  112OSM   H18U11576   4.805   0.813   4.326
  112OSM    C1F11577   5.397   0.554   5.835
  112OSM     OF11578   5.397   0.471   5.926
  112OSM    C2F11579   5.473   0.534   5.708
  112OSM    H2F11580   5.476   0.425   5.685
  112OSM    H2G11581   5.578   0.566   5.722
  112OSM    C3F11582   5.408   0.615   5.592
  112OSM    H3F11583   5.429   0.723   5.608
  112OSM    H3G11584   5.298   0.600   5.592
  112OSM    C4F11585   5.456   0.577   5.452
  112OSM    H4F11586   5.456   0.466   5.442
  112OSM    H4G11587   5.563   0.605   5.441
  112OSM    C5F11588   5.379   0.639   5.335
  112OSM    H5F11589   5.289   0.577   5.313
  112OSM    H5G11590   5.444   0.630   5.246
  112OSM    C6F11591   5.335   0.786   5.353
  112OSM    H6F11592   5.401   0.838   5.427
  112OSM    H6G11593   5.233   0.790   5.397
  112OSM    C7F11594   5.340   0.868   5.222
  112OSM    H7F11595   5.239   0.877   5.177
  112OSM    H7G11596   5.402   0.812   5.149
  112OSM    C8F11597   5.405   1.007   5.236
  112OSM    H8F11598   5.440   1.038   5.135
  112OSM    H8G11599   5.496   1.001   5.300
  112OSM    C9F11600   5.307   1.105   5.294
  112OSM    H9F11601   5.286   1.090   5.401
  112OSM   C10F11602   5.245   1.203   5.226
  112OSM   H10F11603   5.173   1.268   5.279
  112OSM   C11F11604   5.261   1.232   5.079
  112OSM   H11F11605   5.368   1.239   5.051
  112OSM   H11G11606   5.216   1.332   5.056
  112OSM   C12F11607   5.194   1.128   4.988
  112OSM   H12F11608   5.095   1.096   5.028
  112OSM   H12G11609   5.259   1.038   4.984
  112OSM   C13F11610   5.174   1.182   4.846
  112OSM   H13F11611   5.264   1.244   4.824
  112OSM   H13G11612   5.088   1.251   4.842
  112OSM   C14F11613   5.161   1.074   4.739
  112OSM   H14F11614   5.054   1.046   4.727
  112OSM   H14G11615   5.217   0.983   4.769
  112OSM   C15F11616   5.219   1.122   4.605
  112OSM   H15F11617   5.329   1.130   4.615
  112OSM   H15G11618   5.179   1.223   4.582
  112OSM   C16F11619   5.191   1.030   4.488
  112OSM   H16F11620   5.082   1.026   4.467
  112OSM   H16G11621   5.225   0.927   4.514
  112OSM   C17F11622   5.265   1.074   4.361
  112OSM   H17F11623   5.374   1.083   4.383
  112OSM   H17G11624   5.228   1.174   4.330
  112OSM   C18F11625   5.246   0.973   4.249
  112OSM   H18F11626   5.295   0.877   4.274
  112OSM   H18G11627   5.286   1.012   4.153
  112OSM   H18H11628   5.137   0.953   4.237
  113OSM      N11629   0.677   2.968   6.431
  113OSM    C1511630   0.709   2.926   6.291
  113OSM   H15A11631   0.648   2.841   6.261
  113OSM   H15B11632   0.813   2.899   6.280
  113OSM   H15C11633   0.690   3.008   6.224
  113OSM    C1411634   0.711   2.857   6.525
  113OSM   H14A11635   0.653   2.769   6.502
  113OSM   H14B11636   0.691   2.886   6.627
  113OSM   H14C11637   0.815   2.831   6.517
  113OSM    C1311638   0.760   3.089   6.462
  113OSM   H13A11639   0.723   3.172   6.403
  113OSM   H13B11640   0.864   3.075   6.439
  113OSM   H13C11641   0.749   3.117   6.566
  113OSM    C1211642   0.530   3.006   6.444
  113OSM   H12A11643   0.512   3.039   6.546
  113OSM   H12B11644   0.469   2.918   6.428
  113OSM    C1111645   0.475   3.119   6.352
  113OSM   H11A11646   0.366   3.129   6.374
  113OSM   H11B11647   0.485   3.087   6.246
  113OSM      P11648   0.490   3.380   6.314
  113OSM    O1311649   0.343   3.378   6.319
  113OSM    O1411650   0.564   3.491   6.378
  113OSM    O1111651   0.535   3.368   6.163
  113OSM    O1211652   0.543   3.243   6.375
  113OSM    C1S11653   0.453   3.307   6.063
  113OSM    H1S11654   0.391   3.385   6.014
  113OSM    H1T11655   0.385   3.230   6.104
  113OSM     NF11656   0.456   3.175   5.854
  113OSM    HNF11657   0.423   3.084   5.877
  113OSM    C2S11658   0.541   3.242   5.953
  113OSM    H2S11659   0.598   3.325   5.906
  113OSM    C3S11660   0.645   3.143   6.013
  113OSM    H3S11661   0.593   3.051   6.047
  113OSM     O311662   0.721   3.190   6.123
  113OSM    HO311663   0.674   3.269   6.151
  113OSM    C4S11664   0.742   3.112   5.906
  113OSM    H4S11665   0.825   3.185   5.901
  113OSM    C5S11666   0.741   3.009   5.821
  113OSM    H5S11667   0.662   2.933   5.824
  113OSM    C6S11668   0.849   2.995   5.718
  113OSM    H6S11669   0.821   2.918   5.643
  113OSM    H6T11670   0.940   2.960   5.771
  113OSM    C7S11671   0.884   3.122   5.638
  113OSM    H7S11672   0.989   3.114   5.600
  113OSM    H7T11673   0.880   3.213   5.701
  113OSM    C8S11674   0.793   3.140   5.516
  113OSM    H8S11675   0.691   3.110   5.548
  113OSM    H8T11676   0.825   3.069   5.437
  113OSM    C9S11677   0.791   3.284   5.463
  113OSM    H9S11678   0.895   3.310   5.433
  113OSM    H9T11679   0.759   3.353   5.544
  113OSM   C10S11680   0.707   3.308   5.338
  113OSM   H10S11681   0.714   3.415   5.311
  113OSM   H10T11682   0.600   3.285   5.356
  113OSM   C11S11683   0.761   3.225   5.221
  113OSM   H11S11684   0.741   3.117   5.237
  113OSM   H11T11685   0.871   3.238   5.216
  113OSM   C12S11686   0.704   3.268   5.086
  113OSM   H12S11687   0.722   3.376   5.070
  113OSM   H12T11688   0.594   3.251   5.084
  113OSM   C13S11689   0.771   3.188   4.975
  113OSM   H13S11690   0.752   3.079   4.990
  113OSM   H13T11691   0.880   3.203   4.981
  113OSM   C14S11692   0.723   3.229   4.836
  113OSM   H14S11693   0.746   3.336   4.820
  113OSM   H14T11694   0.613   3.216   4.828
  113OSM   C15S11695   0.793   3.145   4.729
  113OSM   H15S11696   0.752   3.041   4.734
  113OSM   H15T11697   0.901   3.140   4.752
  113OSM   C16S11698   0.775   3.203   4.590
  113OSM   H16S11699   0.805   3.310   4.591
  113OSM   H16T11700   0.666   3.200   4.567
  113OSM   C17S11701   0.856   3.130   4.482
  113OSM   H17S11702   0.964   3.147   4.503
  113OSM   H17T11703   0.834   3.175   4.383
  113OSM   C18S11704   0.831   2.979   4.475
  113OSM   H18S11705   0.857   2.929   4.571
  113OSM   H18T11706   0.893   2.934   4.395
  113OSM   H18U11707   0.724   2.958   4.453
  113OSM    C1F11708   0.423   3.235   5.740
  113OSM     OF11709   0.464   3.347   5.716
  113OSM    C2F11710   0.339   3.158   5.641
  113OSM    H2F11711   0.236   3.199   5.642
  113OSM    H2G11712   0.337   3.051   5.670
  113OSM    C3F11713   0.399   3.171   5.499
  113OSM    H3F11714   0.508   3.151   5.505
  113OSM    H3G11715   0.390   3.276   5.464
  113OSM    C4F11716   0.345   3.073   5.393
  113OSM    H4F11717   0.239   3.095   5.369
  113OSM    H4G11718   0.353   2.972   5.439
  113OSM    C5F11719   0.431   3.071   5.265
  113OSM    H5F11720   0.533   3.039   5.294
  113OSM    H5G11721   0.439   3.174   5.224
  113OSM    C6F11722   0.381   2.977   5.152
  113OSM    H6F11723   0.313   3.035   5.086
  113OSM    H6G11724   0.322   2.894   5.195
  113OSM    C7F11725   0.497   2.915   5.070
  113OSM    H7F11726   0.564   2.861   5.140
  113OSM    H7G11727   0.556   2.997   5.024
  113OSM    C8F11728   0.454   2.815   4.960
  113OSM    H8F11729   0.395   2.734   5.007
  113OSM    H8G11730   0.546   2.768   4.918
  113OSM    C9F11731   0.373   2.881   4.852
  113OSM    H9F11732   0.295   2.947   4.891
  113OSM   C10F11733   0.387   2.874   4.718
  113OSM   H10F11734   0.315   2.931   4.657
  113OSM   C11F11735   0.488   2.797   4.637
  113OSM   H11F11736   0.513   2.700   4.686
  113OSM   H11G11737   0.583   2.855   4.631
  113OSM   C12F11738   0.442   2.768   4.491
  113OSM   H12F11739   0.351   2.704   4.494
  113OSM   H12G11740   0.521   2.710   4.440
  113OSM   C13F11741   0.414   2.895   4.408
  113OSM   H13F11742   0.501   2.964   4.417
  113OSM   H13G11743   0.327   2.947   4.454
  113OSM   C14F11744   0.380   2.874   4.259
  113OSM   H14F11745   0.330   2.775   4.244
  113OSM   H14G11746   0.474   2.869   4.199
  113OSM   C15F11747   0.290   2.987   4.206
  113OSM   H15F11748   0.350   3.080   4.207
  113OSM   H15G11749   0.206   3.005   4.276
  113OSM   C16F11750   0.231   2.970   4.064
  113OSM   H16F11751   0.141   2.905   4.063
  113OSM   H16G11752   0.306   2.918   4.000
  113OSM   C17F11753   0.198   3.106   4.001
  113OSM   H17F11754   0.175   3.093   3.893
  113OSM   H17G11755   0.291   3.166   4.008
  113OSM   C18F11756   0.086   3.186   4.068
  113OSM   H18F11757   7.290   3.144   4.042
  113OSM   H18G11758   0.087   3.292   4.033
  113OSM   H18H11759   0.096   3.187   4.179
  114OSM      N11760   6.419   2.538   6.443
  114OSM    C1511761   6.520   2.534   6.554
  114OSM   H15A11762   6.492   2.464   6.631
  114OSM   H15B11763   6.537   2.632   6.597
  114OSM   H15C11764   6.614   2.502   6.513
  114OSM    C1411765   6.391   2.397   6.399
  114OSM   H14A11766   6.481   2.353   6.357
  114OSM   H14B11767   6.313   2.393   6.324
  114OSM   H14C11768   6.363   2.334   6.482
  114OSM    C1311769   6.291   2.595   6.494
  114OSM   H13A11770   6.300   2.700   6.519
  114OSM   H13B11771   6.260   2.541   6.583
  114OSM   H13C11772   6.211   2.578   6.424
  114OSM    C1211773   6.477   2.617   6.327
  114OSM   H12A11774   6.512   2.712   6.364
  114OSM   H12B11775   6.398   2.636   6.256
  114OSM    C1111776   6.594   2.552   6.247
  114OSM   H11A11777   6.626   2.624   6.169
  114OSM   H11B11778   6.553   2.465   6.193
  114OSM      P11779   6.774   2.379   6.337
  114OSM    O1311780   6.912   2.395   6.390
  114OSM    O1411781   6.688   2.289   6.418
  114OSM    O1111782   6.787   2.329   6.187
  114OSM    O1211783   6.705   2.520   6.330
  114OSM    C1S11784   6.687   2.250   6.122
  114OSM    H1S11785   6.588   2.255   6.172
  114OSM    H1T11786   6.717   2.143   6.121
  114OSM     NF11787   6.546   2.243   5.921
  114OSM    HNF11788   6.554   2.152   5.879
  114OSM    C2S11789   6.667   2.296   5.974
  114OSM    H2S11790   6.660   2.407   5.974
  114OSM    C3S11791   6.787   2.255   5.886
  114OSM    H3S11792   6.794   2.144   5.885
  114OSM     O311793   6.910   2.299   5.938
  114OSM    HO311794   6.887   2.325   6.028
  114OSM    C4S11795   6.764   2.306   5.745
  114OSM    H4S11796   6.737   2.412   5.739
  114OSM    C5S11797   6.772   2.233   5.631
  114OSM    H5S11798   6.801   2.127   5.640
  114OSM    C6S11799   6.748   2.280   5.489
  114OSM    H6S11800   6.679   2.210   5.439
  114OSM    H6T11801   6.843   2.276   5.433
  114OSM    C7S11802   6.689   2.422   5.472
  114OSM    H7S11803   6.762   2.496   5.511
  114OSM    H7T11804   6.596   2.434   5.533
  114OSM    C8S11805   6.655   2.457   5.326
  114OSM    H8S11806   6.569   2.398   5.289
  114OSM    H8T11807   6.742   2.426   5.263
  114OSM    C9S11808   6.631   2.608   5.305
  114OSM    H9S11809   6.650   2.635   5.199
  114OSM    H9T11810   6.705   2.663   5.366
  114OSM   C10S11811   6.490   2.658   5.340
  114OSM   H10S11812   6.491   2.769   5.345
  114OSM   H10T11813   6.464   2.622   5.442
  114OSM   C11S11814   6.378   2.616   5.243
  114OSM   H11S11815   6.282   2.660   5.277
  114OSM   H11T11816   6.369   2.506   5.256
  114OSM   C12S11817   6.396   2.649   5.093
  114OSM   H12S11818   6.498   2.621   5.058
  114OSM   H12T11819   6.383   2.758   5.078
  114OSM   C13S11820   6.295   2.574   5.005
  114OSM   H13S11821   6.195   2.582   5.053
  114OSM   H13T11822   6.325   2.467   5.003
  114OSM   C14S11823   6.282   2.619   4.859
  114OSM   H14S11824   6.375   2.593   4.804
  114OSM   H14T11825   6.274   2.730   4.854
  114OSM   C15S11826   6.158   2.557   4.791
  114OSM   H15S11827   6.146   2.603   4.690
  114OSM   H15T11828   6.068   2.584   4.850
  114OSM   C16S11829   6.163   2.404   4.776
  114OSM   H16S11830   6.069   2.369   4.728
  114OSM   H16T11831   6.167   2.357   4.877
  114OSM   C17S11832   6.282   2.354   4.694
  114OSM   H17S11833   6.284   2.243   4.698
  114OSM   H17T11834   6.376   2.387   4.744
  114OSM   C18S11835   6.282   2.400   4.548
  114OSM   H18S11836   6.277   2.511   4.541
  114OSM   H18T11837   6.194   2.357   4.495
  114OSM   H18U11838   6.373   2.366   4.494
  114OSM    C1F11839   6.426   2.293   5.940
  114OSM     OF11840   6.406   2.394   6.006
  114OSM    C2F11841   6.318   2.215   5.876
  114OSM    H2F11842   6.234   2.214   5.948
  114OSM    H2G11843   6.351   2.110   5.861
  114OSM    C3F11844   6.276   2.275   5.740
  114OSM    H3F11845   6.252   2.383   5.754
  114OSM    H3G11846   6.184   2.224   5.705
  114OSM    C4F11847   6.382   2.265   5.629
  114OSM    H4F11848   6.415   2.160   5.616
  114OSM    H4G11849   6.470   2.324   5.661
  114OSM    C5F11850   6.333   2.321   5.494
  114OSM    H5F11851   6.420   2.345   5.430
  114OSM    H5G11852   6.278   2.416   5.512
  114OSM    C6F11853   6.245   2.222   5.417
  114OSM    H6F11854   6.172   2.178   5.487
  114OSM    H6G11855   6.309   2.141   5.376
  114OSM    C7F11856   6.168   2.283   5.300
  114OSM    H7F11857   6.137   2.386   5.327
  114OSM    H7G11858   6.076   2.223   5.285
  114OSM    C8F11859   6.243   2.286   5.165
  114OSM    H8F11860   6.342   2.333   5.181
  114OSM    H8G11861   6.182   2.352   5.100
  114OSM    C9F11862   6.262   2.156   5.092
  114OSM    H9F11863   6.171   2.114   5.048
  114OSM   C10F11864   6.379   2.097   5.066
  114OSM   H10F11865   6.381   2.004   5.007
  114OSM   C11F11866   6.513   2.152   5.106
  114OSM   H11F11867   6.524   2.154   5.217
  114OSM   H11G11868   6.517   2.257   5.071
  114OSM   C12F11869   6.629   2.073   5.045
  114OSM   H12F11870   6.604   2.042   4.941
  114OSM   H12G11871   6.648   1.980   5.102
  114OSM   C13F11872   6.759   2.154   5.042
  114OSM   H13F11873   6.839   2.092   4.994
  114OSM   H13G11874   6.792   2.176   5.146
  114OSM   C14F11875   6.748   2.286   4.964
  114OSM   H14F11876   6.850   2.328   4.959
  114OSM   H14G11877   6.684   2.359   5.019
  114OSM   C15F11878   6.698   2.270   4.821
  114OSM   H15F11879   6.607   2.206   4.817
  114OSM   H15G11880   6.778   2.220   4.762
  114OSM   C16F11881   6.658   2.403   4.756
  114OSM   H16F11882   6.742   2.475   4.759
  114OSM   H16G11883   6.573   2.447   4.813
  114OSM   C17F11884   6.617   2.379   4.611
  114OSM   H17F11885   6.570   2.471   4.570
  114OSM   H17G11886   6.541   2.298   4.607
  114OSM   C18F11887   6.736   2.340   4.525
  114OSM   H18F11888   6.713   2.349   4.417
  114OSM   H18G11889   6.767   2.235   4.545
  114OSM   H18H11890   6.820   2.408   4.550
  115OSM      N11891   6.938   5.077   6.492
  115OSM    C1511892   7.039   5.126   6.590
  115OSM   H15A11893   7.106   5.046   6.619
  115OSM   H15B11894   6.992   5.162   6.680
  115OSM   H15C11895   7.096   5.208   6.547
  115OSM    C1411896   7.004   5.021   6.370
  115OSM   H14A11897   6.927   4.989   6.301
  115OSM   H14B11898   7.065   4.934   6.392
  115OSM   H14C11899   7.062   5.097   6.320
  115OSM    C1311900   6.857   4.969   6.555
  115OSM   H13A11901   6.917   4.882   6.577
  115OSM   H13B11902   6.778   4.941   6.487
  115OSM   H13C11903   6.810   5.003   6.646
  115OSM    C1211904   6.846   5.191   6.447
  115OSM   H12A11905   6.907   5.275   6.417
  115OSM   H12B11906   6.784   5.223   6.529
  115OSM    C1111907   6.751   5.159   6.330
  115OSM   H11A11908   6.811   5.142   6.238
  115OSM   H11B11909   6.687   5.248   6.310
  115OSM      P11910   6.571   4.986   6.257
  115OSM    O1311911   6.576   4.840   6.277
  115OSM    O1411912   6.442   5.054   6.278
  115OSM    O1111913   6.639   5.027   6.119
  115OSM    O1211914   6.670   5.047   6.363
  115OSM    C1S11915   6.557   5.049   6.004
  115OSM    H1S11916   6.460   5.097   6.030
  115OSM    H1T11917   6.537   4.952   5.955
  115OSM     NF11918   6.541   5.145   5.777
  115OSM    HNF11919   6.583   5.116   5.691
  115OSM    C2S11920   6.626   5.139   5.896
  115OSM    H2S11921   6.636   5.242   5.936
  115OSM    C3S11922   6.769   5.083   5.866
  115OSM    H3S11923   6.766   4.972   5.868
  115OSM     O311924   6.869   5.123   5.960
  115OSM    HO311925   6.818   5.155   6.035
  115OSM    C4S11926   6.812   5.128   5.728
  115OSM    H4S11927   6.836   5.235   5.721
  115OSM    C5S11928   6.823   5.048   5.619
  115OSM    H5S11929   6.803   4.940   5.628
  115OSM    C6S11930   6.864   5.097   5.483
  115OSM    H6S11931   6.966   5.058   5.460
  115OSM    H6T11932   6.872   5.208   5.485
  115OSM    C7S11933   6.771   5.061   5.365
  115OSM    H7S11934   6.666   5.054   5.400
  115OSM    H7T11935   6.800   4.962   5.325
  115OSM    C8S11936   6.776   5.167   5.252
  115OSM    H8S11937   6.882   5.189   5.225
  115OSM    H8T11938   6.732   5.261   5.291
  115OSM    C9S11939   6.707   5.128   5.120
  115OSM    H9S11940   6.609   5.181   5.118
  115OSM    H9T11941   6.688   5.019   5.117
  115OSM   C10S11942   6.780   5.173   4.991
  115OSM   H10S11943   6.833   5.085   4.948
  115OSM   H10T11944   6.857   5.248   5.016
  115OSM   C11S11945   6.682   5.231   4.887
  115OSM   H11S11946   6.618   5.308   4.933
  115OSM   H11T11947   6.617   5.146   4.855
  115OSM   C12S11948   6.749   5.291   4.761
  115OSM   H12S11949   6.842   5.234   4.740
  115OSM   H12T11950   6.778   5.396   4.784
  115OSM   C13S11951   6.661   5.291   4.634
  115OSM   H13S11952   6.593   5.378   4.635
  115OSM   H13T11953   6.597   5.200   4.637
  115OSM   C14S11954   6.741   5.286   4.502
  115OSM   H14S11955   6.819   5.207   4.508
  115OSM   H14T11956   6.797   5.382   4.492
  115OSM   C15S11957   6.654   5.262   4.377
  115OSM   H15S11958   6.577   5.342   4.372
  115OSM   H15T11959   6.596   5.168   4.384
  115OSM   C16S11960   6.734   5.258   4.245
  115OSM   H16S11961   6.727   5.158   4.197
  115OSM   H16T11962   6.841   5.275   4.268
  115OSM   C17S11963   6.687   5.365   4.147
  115OSM   H17S11964   6.664   5.456   4.207
  115OSM   H17T11965   6.593   5.333   4.097
  115OSM   C18S11966   6.790   5.409   4.045
  115OSM   H18S11967   6.880   5.449   4.096
  115OSM   H18T11968   6.748   5.492   3.983
  115OSM   H18U11969   6.819   5.325   3.979
  115OSM    C1F11970   6.421   5.203   5.774
  115OSM     OF11971   6.374   5.259   5.872
  115OSM    C2F11972   6.344   5.202   5.644
  115OSM    H2F11973   6.307   5.305   5.627
  115OSM    H2G11974   6.256   5.135   5.658
  115OSM    C3F11975   6.422   5.156   5.518
  115OSM    H3F11976   6.461   5.053   5.532
  115OSM    H3G11977   6.508   5.225   5.501
  115OSM    C4F11978   6.330   5.157   5.394
  115OSM    H4F11979   6.285   5.259   5.386
  115OSM    H4G11980   6.246   5.087   5.411
  115OSM    C5F11981   6.401   5.126   5.260
  115OSM    H5F11982   6.476   5.046   5.277
  115OSM    H5G11983   6.454   5.219   5.233
  115OSM    C6F11984   6.311   5.083   5.141
  115OSM    H6F11985   6.229   5.157   5.129
  115OSM    H6G11986   6.265   4.985   5.163
  115OSM    C7F11987   6.389   5.071   5.007
  115OSM    H7F11988   6.479   5.008   5.025
  115OSM    H7G11989   6.424   5.174   4.984
  115OSM    C8F11990   6.315   5.014   4.882
  115OSM    H8F11991   6.215   5.062   4.877
  115OSM    H8G11992   6.299   4.905   4.896
  115OSM    C9F11993   6.394   5.046   4.756
  115OSM    H9F11994   6.428   5.151   4.758
  115OSM   C10F11995   6.425   4.976   4.644
  115OSM   H10F11996   6.480   5.030   4.566
  115OSM   C11F11997   6.389   4.836   4.599
  115OSM   H11F11998   6.339   4.841   4.501
  115OSM   H11G11999   6.312   4.808   4.674
  115OSM   C12F12000   6.482   4.709   4.591
  115OSM   H12F12001   6.415   4.621   4.597
  115OSM   H12G12002   6.544   4.704   4.683
  115OSM   C13F12003   6.561   4.671   4.462
  115OSM   H13F12004   6.601   4.757   4.404
  115OSM   H13G12005   6.485   4.626   4.395
  115OSM   C14F12006   6.669   4.562   4.489
  115OSM   H14F12007   6.654   4.477   4.419
  115OSM   H14G12008   6.647   4.527   4.592
  115OSM   C15F12009   6.820   4.590   4.492
  115OSM   H15F12010   6.864   4.525   4.570
  115OSM   H15G12011   6.844   4.695   4.523
  115OSM   C16F12012   6.893   4.557   4.361
  115OSM   H16F12013   6.851   4.620   4.280
  115OSM   H16G12014   6.875   4.451   4.334
  115OSM   C17F12015   7.044   4.582   4.373
  115OSM   H17F12016   7.088   4.507   4.443
  115OSM   H17G12017   7.060   4.682   4.418
  115OSM   C18F12018   7.117   4.576   4.239
  115OSM   H18F12019   7.071   4.646   4.167
  115OSM   H18G12020   7.112   4.474   4.196
  115OSM   H18H12021   7.224   4.604   4.251
  116OSM      N12022   6.359   1.576   6.492
  116OSM    C1512023   6.320   1.719   6.510
  116OSM   H15A12024   6.313   1.744   6.615
  116OSM   H15B12025   6.226   1.742   6.460
  116OSM   H15C12026   6.394   1.782   6.463
  116OSM    C1412027   6.482   1.552   6.574
  116OSM   H14A12028   6.563   1.615   6.541
  116OSM   H14B12029   6.513   1.449   6.571
  116OSM   H14C12030   6.464   1.576   6.678
  116OSM    C1312031   6.253   1.483   6.543
  116OSM   H13A12032   6.161   1.491   6.487
  116OSM   H13B12033   6.233   1.504   6.647
  116OSM   H13C12034   6.286   1.380   6.538
  116OSM    C1212035   6.387   1.550   6.344
  116OSM   H12A12036   6.297   1.569   6.287
  116OSM   H12B12037   6.410   1.446   6.332
  116OSM    C1112038   6.497   1.633   6.275
  116OSM   H11A12039   6.518   1.587   6.176
  116OSM   H11B12040   6.590   1.629   6.334
  116OSM      P12041   6.557   1.873   6.199
  116OSM    O1312042   6.493   2.005   6.203
  116OSM    O1412043   6.683   1.855   6.274
  116OSM    O1112044   6.573   1.827   6.048
  116OSM    O1212045   6.453   1.767   6.257
  116OSM    C1S12046   6.692   1.767   5.994
  116OSM    H1S12047   6.704   1.664   6.032
  116OSM    H1T12048   6.783   1.824   6.021
  116OSM     NF12049   6.791   1.678   5.781
  116OSM    HNF12050   6.873   1.721   5.746
  116OSM    C2S12051   6.684   1.759   5.837
  116OSM    H2S12052   6.586   1.713   5.812
  116OSM    C3S12053   6.686   1.900   5.774
  116OSM    H3S12054   6.784   1.949   5.794
  116OSM     O312055   6.587   1.983   5.832
  116OSM    HO312056   6.564   1.936   5.913
  116OSM    C4S12057   6.661   1.899   5.623
  116OSM    H4S12058   6.568   1.951   5.595
  116OSM    C5S12059   6.737   1.855   5.520
  116OSM    H5S12060   6.834   1.807   5.538
  116OSM    C6S12061   6.695   1.866   5.375
  116OSM    H6S12062   6.775   1.919   5.318
  116OSM    H6T12063   6.606   1.932   5.367
  116OSM    C7S12064   6.663   1.735   5.299
  116OSM    H7S12065   6.646   1.651   5.369
  116OSM    H7T12066   6.752   1.708   5.237
  116OSM    C8S12067   6.539   1.749   5.207
  116OSM    H8S12068   6.512   1.856   5.195
  116OSM    H8T12069   6.453   1.699   5.257
  116OSM    C9S12070   6.552   1.687   5.069
  116OSM    H9S12071   6.557   1.577   5.083
  116OSM    H9T12072   6.646   1.720   5.019
  116OSM   C10S12073   6.432   1.715   4.977
  116OSM   H10S12074   6.436   1.821   4.942
  116OSM   H10T12075   6.337   1.700   5.032
  116OSM   C11S12076   6.435   1.623   4.855
  116OSM   H11S12077   6.426   1.517   4.889
  116OSM   H11T12078   6.534   1.638   4.805
  116OSM   C12S12079   6.332   1.648   4.746
  116OSM   H12S12080   6.337   1.755   4.716
  116OSM   H12T12081   6.229   1.625   4.782
  116OSM   C13S12082   6.364   1.563   4.623
  116OSM   H13S12083   6.388   1.458   4.650
  116OSM   H13T12084   6.458   1.605   4.579
  116OSM   C14S12085   6.254   1.565   4.517
  116OSM   H14S12086   6.193   1.657   4.529
  116OSM   H14T12087   6.186   1.478   4.530
  116OSM   C15S12088   6.318   1.562   4.378
  116OSM   H15S12089   6.365   1.463   4.362
  116OSM   H15T12090   6.397   1.640   4.378
  116OSM   C16S12091   6.221   1.593   4.263
  116OSM   H16S12092   6.189   1.699   4.272
  116OSM   H16T12093   6.131   1.529   4.271
  116OSM   C17S12094   6.288   1.571   4.127
  116OSM   H17S12095   6.229   1.624   4.049
  116OSM   H17T12096   6.284   1.462   4.104
  116OSM   C18S12097   6.435   1.616   4.121
  116OSM   H18S12098   6.472   1.620   4.016
  116OSM   H18T12099   6.500   1.546   4.177
  116OSM   H18U12100   6.446   1.717   4.167
  116OSM    C1F12101   6.771   1.548   5.767
  116OSM     OF12102   6.715   1.484   5.854
  116OSM    C2F12103   6.807   1.492   5.633
  116OSM    H2F12104   6.908   1.446   5.631
  116OSM    H2G12105   6.804   1.572   5.557
  116OSM    C3F12106   6.704   1.384   5.598
  116OSM    H3F12107   6.603   1.430   5.597
  116OSM    H3G12108   6.710   1.304   5.675
  116OSM    C4F12109   6.726   1.323   5.461
  116OSM    H4F12110   6.749   1.408   5.393
  116OSM    H4G12111   6.632   1.277   5.424
  116OSM    C5F12112   6.832   1.213   5.461
  116OSM    H5F12113   6.792   1.129   5.522
  116OSM    H5G12114   6.926   1.246   5.510
  116OSM    C6F12115   6.860   1.161   5.319
  116OSM    H6F12116   6.765   1.155   5.263
  116OSM    H6G12117   6.896   1.056   5.324
  116OSM    C7F12118   6.966   1.244   5.244
  116OSM    H7F12119   6.959   1.224   5.135
  116OSM    H7G12120   7.065   1.205   5.277
  116OSM    C8F12121   6.967   1.396   5.271
  116OSM    H8F12122   6.962   1.414   5.380
  116OSM    H8G12123   6.880   1.449   5.227
  116OSM    C9F12124   7.093   1.460   5.227
  116OSM    H9F12125   7.170   1.455   5.306
  116OSM   C10F12126   7.128   1.512   5.108
  116OSM   H10F12127   7.229   1.554   5.104
  116OSM   C11F12128   7.052   1.522   4.979
  116OSM   H11F12129   6.998   1.428   4.956
  116OSM   H11G12130   7.130   1.523   4.899
  116OSM   C12F12131   6.964   1.647   4.953
  116OSM   H12F12132   7.021   1.738   4.982
  116OSM   H12G12133   6.873   1.646   5.016
  116OSM   C13F12134   6.925   1.659   4.804
  116OSM   H13F12135   6.833   1.602   4.781
  116OSM   H13G12136   7.004   1.610   4.744
  116OSM   C14F12137   6.907   1.802   4.751
  116OSM   H14F12138   6.916   1.798   4.641
  116OSM   H14G12139   6.988   1.869   4.788
  116OSM   C15F12140   6.769   1.862   4.784
  116OSM   H15F12141   6.781   1.928   4.872
  116OSM   H15G12142   6.698   1.781   4.813
  116OSM   C16F12143   6.707   1.939   4.667
  116OSM   H16F12144   6.786   2.002   4.621
  116OSM   H16G12145   6.626   2.006   4.703
  116OSM   C17F12146   6.647   1.846   4.561
  116OSM   H17F12147   6.549   1.808   4.597
  116OSM   H17G12148   6.713   1.757   4.549
  116OSM   C18F12149   6.630   1.913   4.425
  116OSM   H18F12150   6.725   1.961   4.394
  116OSM   H18G12151   6.554   1.994   4.431
  116OSM   H18H12152   6.599   1.840   4.348
  117OSM      N12153   1.152   5.890   6.388
  117OSM    C1512154   1.248   5.940   6.284
  117OSM   H15A12155   1.302   6.026   6.320
  117OSM   H15B12156   1.194   5.971   6.195
  117OSM   H15C12157   1.320   5.864   6.257
  117OSM    C1412158   1.231   5.840   6.505
  117OSM   H14A12159   1.164   5.806   6.583
  117OSM   H14B12160   1.295   5.918   6.544
  117OSM   H14C12161   1.291   5.755   6.476
  117OSM    C1312162   1.065   6.005   6.428
  117OSM   H13A12163   0.994   5.973   6.503
  117OSM   H13B12164   1.003   6.035   6.345
  117OSM   H13C12165   1.122   6.090   6.462
  117OSM    C1212166   1.067   5.778   6.331
  117OSM   H12A12167   1.131   5.700   6.294
  117OSM   H12B12168   1.014   5.818   6.246
  117OSM    C1112169   0.959   5.710   6.422
  117OSM   H11A12170   1.011   5.668   6.511
  117OSM   H11B12171   0.917   5.624   6.367
  117OSM      P12172   0.745   5.853   6.364
  117OSM    O1312173   0.623   5.884   6.442
  117OSM    O1412174   0.808   5.961   6.285
  117OSM    O1112175   0.720   5.730   6.267
  117OSM    O1212176   0.857   5.799   6.465
  117OSM    C1S12177   0.626   5.738   6.158
  117OSM    H1S12178   0.539   5.802   6.184
  117OSM    H1T12179   0.585   5.636   6.140
  117OSM     NF12180   0.599   5.765   5.905
  117OSM    HNF12181   0.648   5.759   5.819
  117OSM    C2S12182   0.685   5.788   6.021
  117OSM    H2S12183   0.698   5.898   6.032
  117OSM    C3S12184   0.824   5.726   5.989
  117OSM    H3S12185   0.806   5.619   5.965
  117OSM     O312186   0.919   5.728   6.093
  117OSM    HO312187   0.863   5.744   6.170
  117OSM    C4S12188   0.881   5.791   5.865
  117OSM    H4S12189   0.874   5.728   5.775
  117OSM    C5S12190   0.945   5.910   5.855
  117OSM    H5S12191   0.958   5.972   5.945
  117OSM    C6S12192   0.999   5.965   5.726
  117OSM    H6S12193   1.091   5.909   5.699
  117OSM    H6T12194   1.030   6.070   5.740
  117OSM    C7S12195   0.901   5.961   5.606
  117OSM    H7S12196   0.818   6.031   5.628
  117OSM    H7T12197   0.857   5.860   5.593
  117OSM    C8S12198   0.968   6.001   5.474
  117OSM    H8S12199   1.033   6.090   5.492
  117OSM    H8T12200   0.890   6.031   5.400
  117OSM    C9S12201   1.052   5.887   5.414
  117OSM    H9S12202   0.986   5.804   5.382
  117OSM    H9T12203   1.117   5.848   5.495
  117OSM   C10S12204   1.142   5.930   5.298
  117OSM   H10S12205   1.227   5.859   5.290
  117OSM   H10T12206   1.185   6.030   5.318
  117OSM   C11S12207   1.070   5.930   5.163
  117OSM   H11S12208   0.984   6.000   5.167
  117OSM   H11T12209   1.029   5.828   5.143
  117OSM   C12S12210   1.162   5.970   5.047
  117OSM   H12S12211   1.248   5.900   5.040
  117OSM   H12T12212   1.202   6.071   5.068
  117OSM   C13S12213   1.088   5.973   4.912
  117OSM   H13S12214   1.145   6.036   4.841
  117OSM   H13T12215   0.989   6.020   4.927
  117OSM   C14S12216   1.071   5.834   4.850
  117OSM   H14S12217   1.033   5.762   4.926
  117OSM   H14T12218   1.170   5.797   4.816
  117OSM   C15S12219   0.974   5.834   4.731
  117OSM   H15S12220   0.990   5.926   4.670
  117OSM   H15T12221   0.870   5.840   4.771
  117OSM   C16S12222   0.988   5.711   4.641
  117OSM   H16S12223   0.886   5.679   4.609
  117OSM   H16T12224   1.031   5.626   4.698
  117OSM   C17S12225   1.072   5.738   4.515
  117OSM   H17S12226   1.177   5.754   4.546
  117OSM   H17T12227   1.037   5.833   4.469
  117OSM   C18S12228   1.064   5.628   4.410
  117OSM   H18S12229   1.129   5.652   4.323
  117OSM   H18T12230   0.960   5.617   4.373
  117OSM   H18U12231   1.095   5.530   4.453
  117OSM    C1F12232   0.467   5.773   5.894
  117OSM     OF12233   0.392   5.794   5.989
  117OSM    C2F12234   0.413   5.747   5.756
  117OSM    H2F12235   0.340   5.826   5.731
  117OSM    H2G12236   0.359   5.650   5.764
  117OSM    C3F12237   0.516   5.730   5.639
  117OSM    H3F12238   0.596   5.658   5.666
  117OSM    H3G12239   0.565   5.828   5.618
  117OSM    C4F12240   0.446   5.674   5.513
  117OSM    H4F12241   0.337   5.684   5.533
  117OSM    H4G12242   0.468   5.565   5.505
  117OSM    C5F12243   0.460   5.740   5.374
  117OSM    H5F12244   0.382   5.819   5.366
  117OSM    H5G12245   0.434   5.664   5.297
  117OSM    C6F12246   0.594   5.803   5.335
  117OSM    H6F12247   0.676   5.728   5.350
  117OSM    H6G12248   0.616   5.887   5.405
  117OSM    C7F12249   0.600   5.854   5.189
  117OSM    H7F12250   0.636   5.770   5.127
  117OSM    H7G12251   0.677   5.934   5.183
  117OSM    C8F12252   0.468   5.907   5.126
  117OSM    H8F12253   0.429   5.996   5.179
  117OSM    H8G12254   0.389   5.829   5.139
  117OSM    C9F12255   0.481   5.940   4.980
  117OSM    H9F12256   0.484   6.047   4.955
  117OSM   C10F12257   0.491   5.849   4.882
  117OSM   H10F12258   0.502   5.883   4.778
  117OSM   C11F12259   0.491   5.699   4.905
  117OSM   H11F12260   0.459   5.675   5.008
  117OSM   H11G12261   0.594   5.661   4.895
  117OSM   C12F12262   0.399   5.616   4.813
  117OSM   H12F12263   0.303   5.668   4.793
  117OSM   H12G12264   0.374   5.523   4.868
  117OSM   C13F12265   0.467   5.573   4.682
  117OSM   H13F12266   0.420   5.479   4.646
  117OSM   H13G12267   0.575   5.553   4.700
  117OSM   C14F12268   0.455   5.678   4.572
  117OSM   H14F12269   0.499   5.774   4.606
  117OSM   H14G12270   0.346   5.698   4.558
  117OSM   C15F12271   0.516   5.635   4.438
  117OSM   H15F12272   0.465   5.688   4.355
  117OSM   H15G12273   0.498   5.526   4.422
  117OSM   C16F12274   0.667   5.664   4.424
  117OSM   H16F12275   0.697   5.640   4.319
  117OSM   H16G12276   0.722   5.595   4.491
  117OSM   C17F12277   0.709   5.808   4.455
  117OSM   H17F12278   0.811   5.823   4.414
  117OSM   H17G12279   0.717   5.821   4.565
  117OSM   C18F12280   0.617   5.917   4.400
  117OSM   H18F12281   0.585   5.893   4.296
  117OSM   H18G12282   0.671   6.015   4.400
  117OSM   H18H12283   0.526   5.928   4.461
  118OSM      N12284   0.226   4.028   6.359
  118OSM    C1512285   0.244   4.156   6.284
  118OSM   H15A12286   0.212   4.143   6.182
  118OSM   H15B12287   0.347   4.189   6.285
  118OSM   H15C12288   0.182   4.233   6.326
  118OSM    C1412289   0.284   4.037   6.497
  118OSM   H14A12290   0.390   4.060   6.495
  118OSM   H14B12291   0.274   3.940   6.544
  118OSM   H14C12292   0.233   4.111   6.557
  118OSM    C1312293   0.079   4.004   6.369
  118OSM   H13A12294   0.058   3.911   6.420
  118OSM   H13B12295   0.036   3.995   6.271
  118OSM   H13C12296   0.028   4.086   6.418
  118OSM    C1212297   0.292   3.913   6.284
  118OSM   H12A12298   0.388   3.946   6.246
  118OSM   H12B12299   0.232   3.891   6.197
  118OSM    C1112300   0.318   3.780   6.360
  118OSM   H11A12301   0.407   3.794   6.426
  118OSM   H11B12302   0.348   3.700   6.289
  118OSM      P12303   0.090   3.651   6.390
  118OSM    O1312304   0.090   3.522   6.464
  118OSM    O1412305   7.271   3.733   6.404
  118OSM    O1112306   0.119   3.629   6.233
  118OSM    O1212307   0.209   3.740   6.442
  118OSM    C1S12308   0.050   3.715   6.141
  118OSM    H1S12309   0.053   3.821   6.176
  118OSM    H1T12310   7.246   3.687   6.135
  118OSM     NF12311   0.044   3.823   5.920
  118OSM    HNF12312   7.279   3.799   5.852
  118OSM    C2S12313   0.107   3.714   5.995
  118OSM    H2S12314   0.216   3.732   5.999
  118OSM    C3S12315   0.083   3.575   5.930
  118OSM    H3S12316   7.278   3.552   5.935
  118OSM     O312317   0.151   3.469   5.996
  118OSM    HO312318   0.173   3.504   6.083
  118OSM    C4S12319   0.121   3.578   5.783
  118OSM    H4S12320   0.034   3.586   5.716
  118OSM    C5S12321   0.244   3.569   5.727
  118OSM    H5S12322   0.331   3.554   5.794
  118OSM    C6S12323   0.278   3.571   5.580
  118OSM    H6S12324   0.359   3.497   5.561
  118OSM    H6T12325   0.320   3.669   5.551
  118OSM    C7S12326   0.164   3.534   5.483
  118OSM    H7S12327   0.099   3.624   5.472
  118OSM    H7T12328   0.104   3.452   5.526
  118OSM    C8S12329   0.210   3.486   5.343
  118OSM    H8S12330   0.120   3.457   5.284
  118OSM    H8T12331   0.271   3.394   5.355
  118OSM    C9S12332   0.291   3.588   5.262
  118OSM    H9S12333   0.340   3.537   5.176
  118OSM    H9T12334   0.372   3.631   5.326
  118OSM   C10S12335   0.201   3.699   5.209
  118OSM   H10S12336   0.139   3.735   5.294
  118OSM   H10T12337   0.132   3.659   5.132
  118OSM   C11S12338   0.276   3.821   5.154
  118OSM   H11S12339   0.351   3.855   5.229
  118OSM   H11T12340   0.201   3.903   5.143
  118OSM   C12S12341   0.343   3.798   5.018
  118OSM   H12S12342   0.322   3.696   4.980
  118OSM   H12T12343   0.453   3.805   5.033
  118OSM   C13S12344   0.299   3.902   4.915
  118OSM   H13S12345   0.283   3.998   4.968
  118OSM   H13T12346   0.202   3.873   4.869
  118OSM   C14S12347   0.404   3.930   4.806
  118OSM   H14S12348   0.398   3.852   4.727
  118OSM   H14T12349   0.505   3.925   4.851
  118OSM   C15S12350   0.385   4.070   4.746
  118OSM   H15S12351   0.387   4.145   4.828
  118OSM   H15T12352   0.285   4.077   4.699
  118OSM   C16S12353   0.494   4.107   4.645
  118OSM   H16S12354   0.505   4.026   4.569
  118OSM   H16T12355   0.591   4.116   4.699
  118OSM   C17S12356   0.464   4.239   4.573
  118OSM   H17S12357   0.424   4.312   4.647
  118OSM   H17T12358   0.385   4.222   4.497
  118OSM   C18S12359   0.587   4.300   4.506
  118OSM   H18S12360   0.636   4.226   4.439
  118OSM   H18T12361   0.662   4.331   4.583
  118OSM   H18U12362   0.559   4.389   4.446
  118OSM    C1F12363   0.072   3.951   5.946
  118OSM     OF12364   0.163   3.981   6.023
  118OSM    C2F12365   7.289   4.055   5.883
  118OSM    H2F12366   7.250   4.120   5.965
  118OSM    H2G12367   7.202   4.008   5.833
  118OSM    C3F12368   0.065   4.144   5.784
  118OSM    H3F12369   0.154   4.186   5.835
  118OSM    H3G12370   7.303   4.231   5.759
  118OSM    C4F12371   0.108   4.076   5.653
  118OSM    H4F12372   0.190   4.003   5.674
  118OSM    H4G12373   0.150   4.154   5.586
  118OSM    C5F12374   7.298   4.003   5.580
  118OSM    H5F12375   7.207   4.068   5.582
  118OSM    H5G12376   7.274   3.909   5.635
  118OSM    C6F12377   0.024   3.968   5.433
  118OSM    H6F12378   0.119   3.911   5.426
  118OSM    H6G12379   0.037   4.062   5.376
  118OSM    C7F12380   7.212   3.886   5.373
  118OSM    H7F12381   7.119   3.931   5.413
  118OSM    H7G12382   7.217   3.782   5.413
  118OSM    C8F12383   7.204   3.884   5.219
  118OSM    H8F12384   7.283   3.819   5.177
  118OSM    H8G12385   7.224   3.986   5.182
  118OSM    C9F12386   7.068   3.839   5.171
  118OSM    H9F12387   6.984   3.865   5.238
  118OSM   C10F12388   7.038   3.771   5.059
  118OSM   H10F12389   6.933   3.748   5.037
  118OSM   C11F12390   7.137   3.725   4.956
  118OSM   H11F12391   7.082   3.667   4.878
  118OSM   H11G12392   7.208   3.655   5.004
  118OSM   C12F12393   7.218   3.835   4.884
  118OSM   H12F12394   7.289   3.785   4.815
  118OSM   H12G12395   7.279   3.891   4.958
  118OSM   C13F12396   7.133   3.935   4.803
  118OSM   H13F12397   7.201   4.015   4.767
  118OSM   H13G12398   7.057   3.982   4.869
  118OSM   C14F12399   7.066   3.871   4.681
  118OSM   H14F12400   6.991   3.795   4.713
  118OSM   H14G12401   7.145   3.817   4.625
  118OSM   C15F12402   6.999   3.972   4.588
  118OSM   H15F12403   7.056   4.067   4.587
  118OSM   H15G12404   6.897   3.995   4.628
  118OSM   C16F12405   6.989   3.920   4.444
  118OSM   H16F12406   6.904   3.969   4.392
  118OSM   H16G12407   6.970   3.810   4.448
  118OSM   C17F12408   7.116   3.946   4.363
  118OSM   H17F12409   7.202   3.913   4.424
  118OSM   H17G12410   7.127   4.055   4.346
  118OSM   C18F12411   7.119   3.873   4.228
  118OSM   H18F12412   7.112   3.763   4.243
  118OSM   H18G12413   7.214   3.894   4.175
  118OSM   H18H12414   7.035   3.907   4.164
  119OSM      N12415   3.795   7.200   6.405
  119OSM    C1512416   3.801   7.061   6.459
  119OSM   H15A12417   3.857   7.053   6.550
  119OSM   H15B12418   3.846   6.994   6.387
  119OSM   H15C12419   3.701   7.025   6.478
  119OSM    C1412420   3.932   7.240   6.360
  119OSM   H14A12421   4.001   7.241   6.443
  119OSM   H14B12422   3.926   0.038   6.322
  119OSM   H14C12423   3.968   7.173   6.283
  119OSM    C1312424   3.704   7.201   6.286
  119OSM   H13A12425   3.602   7.179   6.314
  119OSM   H13B12426   3.735   7.130   6.210
  119OSM   H13C12427   3.702   7.299   6.240
  119OSM    C1212428   3.743   7.299   6.507
  119OSM   H12A12429   3.818   0.010   6.584
  119OSM   H12B12430   3.657   7.256   6.556
  119OSM    C1112431   3.702   0.136   6.454
  119OSM   H11A12432   3.683   0.202   6.541
  119OSM   H11B12433   3.606   0.125   6.401
  119OSM      P12434   3.827   0.342   6.348
  119OSM    O1312435   3.839   0.402   6.483
  119OSM    O1412436   3.944   0.356   6.257
  119OSM    O1112437   3.696   0.393   6.277
  119OSM    O1212438   3.802   0.188   6.367
  119OSM    C1S12439   3.617   0.315   6.186
  119OSM    H1S12440   3.512   0.350   6.194
  119OSM    H1T12441   3.615   0.207   6.212
  119OSM     NF12442   3.781   0.253   6.012
  119OSM    HNF12443   3.866   0.302   6.026
  119OSM    C2S12444   3.660   0.330   6.037
  119OSM    H2S12445   3.579   0.288   5.974
  119OSM    C3S12446   3.676   0.481   6.001
  119OSM    H3S12447   3.761   0.523   6.059
  119OSM     O312448   3.561   0.560   6.035
  119OSM    HO312449   3.515   0.507   6.101
  119OSM    C4S12450   3.705   0.496   5.854
  119OSM    H4S12451   3.636   0.439   5.789
  119OSM    C5S12452   3.802   0.570   5.798
  119OSM    H5S12453   3.868   0.630   5.863
  119OSM    C6S12454   3.830   0.583   5.650
  119OSM    H6S12455   3.939   0.571   5.632
  119OSM    H6T12456   3.805   0.686   5.618
  119OSM    C7S12457   3.755   0.486   5.558
  119OSM    H7S12458   3.646   0.502   5.569
  119OSM    H7T12459   3.777   0.381   5.587
  119OSM    C8S12460   3.790   0.504   5.409
  119OSM    H8S12461   3.896   0.479   5.392
  119OSM    H8T12462   3.775   0.611   5.383
  119OSM    C9S12463   3.699   0.417   5.322
  119OSM    H9S12464   3.595   0.433   5.358
  119OSM    H9T12465   3.725   0.311   5.342
  119OSM   C10S12466   3.705   0.445   5.172
  119OSM   H10S12467   3.669   0.548   5.150
  119OSM   H10T12468   3.634   0.377   5.120
  119OSM   C11S12469   3.844   0.427   5.111
  119OSM   H11S12470   3.890   0.334   5.150
  119OSM   H11T12471   3.908   0.511   5.145
  119OSM   C12S12472   3.841   0.421   4.958
  119OSM   H12S12473   3.764   0.491   4.918
  119OSM   H12T12474   3.814   0.319   4.925
  119OSM   C13S12475   3.978   0.461   4.901
  119OSM   H13S12476   4.055   0.408   4.961
  119OSM   H13T12477   3.993   0.570   4.917
  119OSM   C14S12478   3.999   0.427   4.753
  119OSM   H14S12479   3.905   0.448   4.697
  119OSM   H14T12480   4.020   0.319   4.744
  119OSM   C15S12481   4.116   0.509   4.693
  119OSM   H15S12482   4.184   0.531   4.777
  119OSM   H15T12483   4.079   0.606   4.654
  119OSM   C16S12484   4.200   0.435   4.587
  119OSM   H16S12485   4.209   0.328   4.615
  119OSM   H16T12486   4.303   0.477   4.592
  119OSM   C17S12487   4.155   0.450   4.440
  119OSM   H17S12488   4.215   0.382   4.377
  119OSM   H17T12489   4.183   0.553   4.409
  119OSM   C18S12490   4.006   0.429   4.410
  119OSM   H18S12491   3.980   0.483   4.316
  119OSM   H18T12492   3.941   0.469   4.490
  119OSM   H18U12493   3.981   0.322   4.393
  119OSM    C1F12494   3.778   0.119   6.015
  119OSM     OF12495   3.673   0.058   6.027
  119OSM    C2F12496   3.909   0.047   6.013
  119OSM    H2F12497   3.893   7.249   6.056
  119OSM    H2G12498   3.982   0.102   6.076
  119OSM    C3F12499   3.963   0.032   5.870
  119OSM    H3F12500   4.056   7.274   5.872
  119OSM    H3G12501   3.988   0.132   5.831
  119OSM    C4F12502   3.864   7.271   5.771
  119OSM    H4F12503   3.780   0.038   5.755
  119OSM    H4G12504   3.820   7.178   5.815
  119OSM    C5F12505   3.929   7.238   5.637
  119OSM    H5F12506   3.956   7.130   5.636
  119OSM    H5G12507   4.023   7.295   5.625
  119OSM    C6F12508   3.839   7.268   5.516
  119OSM    H6F12509   3.890   7.232   5.424
  119OSM    H6G12510   3.824   0.074   5.506
  119OSM    C7F12511   3.701   7.203   5.525
  119OSM    H7F12512   3.639   7.248   5.606
  119OSM    H7G12513   3.716   7.096   5.552
  119OSM    C8F12514   3.626   7.208   5.391
  119OSM    H8F12515   3.545   7.133   5.403
  119OSM    H8G12516   3.696   7.170   5.314
  119OSM    C9F12517   3.562   0.034   5.350
  119OSM    H9F12518   3.489   0.069   5.425
  119OSM   C10F12519   3.578   0.111   5.240
  119OSM   H10F12520   3.516   0.202   5.238
  119OSM   C11F12521   3.664   0.103   5.114
  119OSM   H11F12522   3.745   0.178   5.125
  119OSM   H11G12523   3.601   0.138   5.029
  119OSM   C12F12524   3.735   7.279   5.064
  119OSM   H12F12525   3.657   7.204   5.040
  119OSM   H12G12526   3.801   7.240   5.144
  119OSM   C13F12527   3.819   7.299   4.937
  119OSM   H13F12528   3.879   7.206   4.922
  119OSM   H13G12529   3.891   0.078   4.952
  119OSM   C14F12530   3.738   0.020   4.807
  119OSM   H14F12531   3.752   0.126   4.779
  119OSM   H14G12532   3.630   0.003   4.826
  119OSM   C15F12533   3.783   7.232   4.691
  119OSM   H15F12534   3.773   7.127   4.724
  119OSM   H15G12535   3.892   7.248   4.676
  119OSM   C16F12536   3.718   7.249   4.552
  119OSM   H16F12537   3.631   7.181   4.542
  119OSM   H16G12538   3.789   7.212   4.475
  119OSM   C17F12539   3.671   0.086   4.513
  119OSM   H17F12540   3.756   0.142   4.467
  119OSM   H17G12541   3.637   0.143   4.602
  119OSM   C18F12542   3.553   0.080   4.415
  119OSM   H18F12543   3.460   0.056   4.470
  119OSM   H18G12544   3.569   7.303   4.341
  119OSM   H18H12545   3.540   0.177   4.362
  120OSM      N12546   6.493   5.915   6.487
  120OSM    C1512547   6.403   6.035   6.497
  120OSM   H15A12548   6.315   6.023   6.435
  120OSM   H15B12549   6.457   6.121   6.463
  120OSM   H15C12550   6.372   6.053   6.599
  120OSM    C1412551   6.613   5.939   6.574
  120OSM   H14A12552   6.586   5.950   6.678
  120OSM   H14B12553   6.660   6.031   6.542
  120OSM   H14C12554   6.684   5.859   6.560
  120OSM    C1312555   6.422   5.792   6.531
  120OSM   H13A12556   6.334   5.775   6.471
  120OSM   H13B12557   6.396   5.794   6.636
  120OSM   H13C12558   6.484   5.706   6.510
  120OSM    C1212559   6.541   5.902   6.342
  120OSM   H12A12560   6.577   5.999   6.312
  120OSM   H12B12561   6.457   5.877   6.279
  120OSM    C1112562   6.653   5.800   6.312
  120OSM   H11A12563   6.746   5.829   6.366
  120OSM   H11B12564   6.679   5.803   6.204
  120OSM      P12565   6.519   5.576   6.271
  120OSM    O1312566   6.593   5.453   6.238
  120OSM    O1412567   6.400   5.560   6.356
  120OSM    O1112568   6.480   5.659   6.143
  120OSM    O1212569   6.618   5.669   6.353
  120OSM    C1S12570   6.548   5.652   6.017
  120OSM    H1S12571   6.635   5.583   6.018
  120OSM    H1T12572   6.586   5.753   5.993
  120OSM     NF12573   6.519   5.646   5.774
  120OSM    HNF12574   6.476   5.720   5.722
  120OSM    C2S12575   6.454   5.611   5.900
  120OSM    H2S12576   6.438   5.501   5.903
  120OSM    C3S12577   6.314   5.681   5.918
  120OSM    H3S12578   6.328   5.783   5.961
  120OSM     O312579   6.225   5.609   6.003
  120OSM    HO312580   6.281   5.545   6.048
  120OSM    C4S12581   6.250   5.692   5.783
  120OSM    H4S12582   6.213   5.597   5.743
  120OSM    C5S12583   6.236   5.805   5.711
  120OSM    H5S12584   6.271   5.901   5.751
  120OSM    C6S12585   6.174   5.808   5.575
  120OSM    H6S12586   6.130   5.906   5.551
  120OSM    H6T12587   6.092   5.733   5.567
  120OSM    C7S12588   6.282   5.771   5.471
  120OSM    H7S12589   6.229   5.743   5.377
  120OSM    H7T12590   6.341   5.682   5.501
  120OSM    C8S12591   6.377   5.882   5.429
  120OSM    H8S12592   6.452   5.901   5.508
  120OSM    H8T12593   6.318   5.976   5.416
  120OSM    C9S12594   6.445   5.848   5.295
  120OSM    H9S12595   6.370   5.818   5.220
  120OSM    H9T12596   6.514   5.762   5.310
  120OSM   C10S12597   6.521   5.970   5.244
  120OSM   H10S12598   6.576   6.010   5.331
  120OSM   H10T12599   6.447   6.046   5.211
  120OSM   C11S12600   6.622   5.946   5.131
  120OSM   H11S12601   6.702   5.877   5.167
  120OSM   H11T12602   6.670   6.043   5.109
  120OSM   C12S12603   6.564   5.891   5.001
  120OSM   H12S12604   6.468   5.942   4.977
  120OSM   H12T12605   6.541   5.782   5.012
  120OSM   C13S12606   6.662   5.913   4.885
  120OSM   H13S12607   6.757   5.859   4.908
  120OSM   H13T12608   6.686   6.021   4.878
  120OSM   C14S12609   6.610   5.866   4.749
  120OSM   H14S12610   6.514   5.916   4.724
  120OSM   H14T12611   6.591   5.757   4.755
  120OSM   C15S12612   6.713   5.893   4.638
  120OSM   H15S12613   6.727   5.799   4.581
  120OSM   H15T12614   6.812   5.918   4.684
  120OSM   C16S12615   6.673   6.002   4.538
  120OSM   H16S12616   6.652   6.097   4.592
  120OSM   H16T12617   6.581   5.969   4.487
  120OSM   C17S12618   6.783   6.027   4.433
  120OSM   H17S12619   6.848   5.937   4.427
  120OSM   H17T12620   6.849   6.109   4.467
  120OSM   C18S12621   6.732   6.056   4.291
  120OSM   H18S12622   6.680   6.154   4.288
  120OSM   H18T12623   6.660   5.978   4.258
  120OSM   H18U12624   6.816   6.058   4.219
  120OSM    C1F12625   6.626   5.585   5.723
  120OSM     OF12626   6.672   5.483   5.772
  120OSM    C2F12627   6.688   5.651   5.603
  120OSM    H2F12628   6.795   5.670   5.627
  120OSM    H2G12629   6.639   5.749   5.586
  120OSM    C3F12630   6.680   5.567   5.474
  120OSM    H3F12631   6.574   5.555   5.443
  120OSM    H3G12632   6.722   5.465   5.492
  120OSM    C4F12633   6.760   5.635   5.361
  120OSM    H4F12634   6.867   5.632   5.390
  120OSM    H4G12635   6.731   5.742   5.355
  120OSM    C5F12636   6.746   5.572   5.221
  120OSM    H5F12637   6.648   5.599   5.177
  120OSM    H5G12638   6.750   5.461   5.230
  120OSM    C6F12639   6.861   5.618   5.130
  120OSM    H6F12640   6.956   5.590   5.181
  120OSM    H6G12641   6.860   5.729   5.121
  120OSM    C7F12642   6.863   5.555   4.990
  120OSM    H7F12643   6.775   5.588   4.932
  120OSM    H7G12644   6.856   5.445   5.004
  120OSM    C8F12645   6.993   5.589   4.914
  120OSM    H8F12646   7.076   5.590   4.988
  120OSM    H8G12647   6.985   5.693   4.876
  120OSM    C9F12648   7.032   5.493   4.803
  120OSM    H9F12649   7.097   5.410   4.834
  120OSM   C10F12650   6.991   5.498   4.674
  120OSM   H10F12651   7.026   5.419   4.605
  120OSM   C11F12652   6.898   5.600   4.613
  120OSM   H11F12653   6.889   5.687   4.681
  120OSM   H11G12654   6.796   5.558   4.605
  120OSM   C12F12655   6.941   5.653   4.474
  120OSM   H12F12656   7.045   5.621   4.453
  120OSM   H12G12657   6.945   5.764   4.479
  120OSM   C13F12658   6.855   5.612   4.352
  120OSM   H13F12659   6.846   5.502   4.344
  120OSM   H13G12660   6.914   5.643   4.264
  120OSM   C14F12661   6.716   5.679   4.333
  120OSM   H14F12662   6.693   5.670   4.225
  120OSM   H14G12663   6.724   5.788   4.353
  120OSM   C15F12664   6.595   5.624   4.411
  120OSM   H15F12665   6.564   5.699   4.487
  120OSM   H15G12666   6.621   5.531   4.465
  120OSM   C16F12667   6.474   5.598   4.319
  120OSM   H16F12668   6.483   5.497   4.273
  120OSM   H16G12669   6.474   5.671   4.235
  120OSM   C17F12670   6.337   5.602   4.386
  120OSM   H17F12671   6.293   5.703   4.372
  120OSM   H17G12672   6.346   5.584   4.495
  120OSM   C18F12673   6.244   5.496   4.326
  120OSM   H18F12674   6.138   5.531   4.327
  120OSM   H18G12675   6.252   5.402   4.384
  120OSM   H18H12676   6.271   5.475   4.221
  121OSM      N12677   5.890   0.319   6.544
  121OSM    C1512678   6.034   0.292   6.574
  121OSM   H15A12679   6.094   0.372   6.533
  121OSM   H15B12680   6.068   0.201   6.527
  121OSM   H15C12681   6.053   0.285   6.680
  121OSM    C1412682   5.801   0.211   6.597
  121OSM   H14A12683   5.698   0.234   6.573
  121OSM   H14B12684   5.809   0.205   6.705
  121OSM   H14C12685   5.826   0.115   6.555
  121OSM    C1312686   5.851   0.447   6.609
  121OSM   H13A12687   5.849   0.443   6.717
  121OSM   H13B12688   5.755   0.480   6.572
  121OSM   H13C12689   5.918   0.525   6.576
  121OSM    C1212690   5.870   0.334   6.392
  121OSM   H12A12691   5.770   0.373   6.376
  121OSM   H12B12692   5.877   0.238   6.344
  121OSM    C1112693   5.964   0.431   6.316
  121OSM   H11A12694   5.938   0.428   6.208
  121OSM   H11B12695   6.069   0.395   6.323
  121OSM      P12696   5.828   0.653   6.341
  121OSM    O1312697   5.713   0.580   6.398
  121OSM    O1412698   5.864   0.784   6.397
  121OSM    O1112699   5.824   0.654   6.183
  121OSM    O1212700   5.957   0.564   6.368
  121OSM    C1S12701   5.939   0.702   6.112
  121OSM    H1S12702   6.034   0.666   6.157
  121OSM    H1T12703   5.940   0.813   6.112
  121OSM     NF12704   6.059   0.686   5.897
  121OSM    HNF12705   6.053   0.766   5.838
  121OSM    C2S12706   5.934   0.653   5.965
  121OSM    H2S12707   5.922   0.543   5.964
  121OSM    C3S12708   5.809   0.716   5.897
  121OSM    H3S12709   5.814   0.826   5.910
  121OSM     O312710   5.684   0.674   5.952
  121OSM    HO312711   5.704   0.658   6.045
  121OSM    C4S12712   5.808   0.682   5.752
  121OSM    H4S12713   5.833   0.578   5.728
  121OSM    C5S12714   5.779   0.767   5.653
  121OSM    H5S12715   5.749   0.871   5.676
  121OSM    C6S12716   5.780   0.728   5.508
  121OSM    H6S12717   5.747   0.622   5.497
  121OSM    H6T12718   5.883   0.728   5.466
  121OSM    C7S12719   5.694   0.825   5.426
  121OSM    H7S12720   5.727   0.930   5.441
  121OSM    H7T12721   5.591   0.822   5.467
  121OSM    C8S12722   5.690   0.797   5.274
  121OSM    H8S12723   5.734   0.882   5.218
  121OSM    H8T12724   5.584   0.794   5.242
  121OSM    C9S12725   5.754   0.666   5.227
  121OSM    H9S12726   5.711   0.580   5.283
  121OSM    H9T12727   5.863   0.669   5.247
  121OSM   C10S12728   5.732   0.642   5.077
  121OSM   H10S12729   5.830   0.643   5.025
  121OSM   H10T12730   5.672   0.726   5.034
  121OSM   C11S12731   5.659   0.511   5.046
  121OSM   H11S12732   5.552   0.521   5.073
  121OSM   H11T12733   5.702   0.430   5.109
  121OSM   C12S12734   5.673   0.470   4.899
  121OSM   H12S12735   5.780   0.455   4.875
  121OSM   H12T12736   5.635   0.552   4.834
  121OSM   C13S12737   5.596   0.341   4.868
  121OSM   H13S12738   5.487   0.362   4.875
  121OSM   H13T12739   5.620   0.267   4.947
  121OSM   C14S12740   5.629   0.278   4.732
  121OSM   H14S12741   5.571   0.184   4.725
  121OSM   H14T12742   5.737   0.251   4.728
  121OSM   C15S12743   5.594   0.365   4.610
  121OSM   H15S12744   5.510   0.433   4.635
  121OSM   H15T12745   5.558   0.297   4.529
  121OSM   C16S12746   5.713   0.445   4.554
  121OSM   H16S12747   5.800   0.377   4.547
  121OSM   H16T12748   5.739   0.527   4.624
  121OSM   C17S12749   5.686   0.503   4.414
  121OSM   H17S12750   5.658   0.419   4.345
  121OSM   H17T12751   5.780   0.546   4.375
  121OSM   C18S12752   5.576   0.610   4.410
  121OSM   H18S12753   5.566   0.650   4.307
  121OSM   H18T12754   5.601   0.693   4.478
  121OSM   H18U12755   5.478   0.567   4.441
  121OSM    C1F12756   6.177   0.632   5.925
  121OSM     OF12757   6.192   0.551   6.016
  121OSM    C2F12758   6.298   0.690   5.857
  121OSM    H2F12759   6.386   0.660   5.917
  121OSM    H2G12760   6.290   0.801   5.858
  121OSM    C3F12761   6.331   0.643   5.714
  121OSM    H3F12762   6.390   0.549   5.718
  121OSM    H3G12763   6.398   0.722   5.673
  121OSM    C4F12764   6.215   0.627   5.616
  121OSM    H4F12765   6.146   0.713   5.628
  121OSM    H4G12766   6.157   0.535   5.637
  121OSM    C5F12767   6.267   0.626   5.472
  121OSM    H5F12768   6.289   0.521   5.443
  121OSM    H5G12769   6.362   0.683   5.467
  121OSM    C6F12770   6.169   0.693   5.375
  121OSM    H6F12771   6.165   0.801   5.400
  121OSM    H6G12772   6.068   0.651   5.390
  121OSM    C7F12773   6.209   0.681   5.227
  121OSM    H7F12774   6.310   0.725   5.212
  121OSM    H7G12775   6.139   0.739   5.164
  121OSM    C8F12776   6.216   0.539   5.174
  121OSM    H8F12777   6.283   0.479   5.239
  121OSM    H8G12778   6.266   0.542   5.074
  121OSM    C9F12779   6.076   0.485   5.167
  121OSM    H9F12780   6.023   0.478   5.263
  121OSM   C10F12781   6.014   0.446   5.055
  121OSM   H10F12782   5.912   0.406   5.061
  121OSM   C11F12783   6.075   0.447   4.917
  121OSM   H11F12784   6.026   0.367   4.857
  121OSM   H11G12785   6.183   0.423   4.921
  121OSM   C12F12786   6.075   0.576   4.834
  121OSM   H12F12787   6.132   0.656   4.885
  121OSM   H12G12788   5.970   0.611   4.820
  121OSM   C13F12789   6.140   0.543   4.699
  121OSM   H13F12790   6.138   0.433   4.687
  121OSM   H13G12791   6.248   0.572   4.700
  121OSM   C14F12792   6.070   0.601   4.577
  121OSM   H14F12793   5.961   0.579   4.583
  121OSM   H14G12794   6.109   0.551   4.486
  121OSM   C15F12795   6.095   0.751   4.564
  121OSM   H15F12796   6.123   0.775   4.459
  121OSM   H15G12797   6.181   0.777   4.628
  121OSM   C16F12798   5.974   0.834   4.608
  121OSM   H16F12799   6.006   0.938   4.629
  121OSM   H16G12800   5.938   0.791   4.704
  121OSM   C17F12801   5.858   0.836   4.508
  121OSM   H17F12802   5.772   0.888   4.554
  121OSM   H17G12803   5.827   0.732   4.487
  121OSM   C18F12804   5.892   0.905   4.376
  121OSM   H18F12805   5.923   1.010   4.395
  121OSM   H18G12806   5.804   0.906   4.308
  121OSM   H18H12807   5.975   0.852   4.325
  122OSM      N12808   0.437   6.635   6.516
  122OSM    C1512809   0.374   6.505   6.477
  122OSM   H15A12810   0.287   6.481   6.537
  122OSM   H15B12811   0.446   6.425   6.479
  122OSM   H15C12812   0.347   6.511   6.373
  122OSM    C1412813   0.337   6.744   6.506
  122OSM   H14A12814   0.250   6.730   6.569
  122OSM   H14B12815   0.306   6.757   6.403
  122OSM   H14C12816   0.383   6.839   6.528
  122OSM    C1312817   0.490   6.628   6.655
  122OSM   H13A12818   0.563   6.548   6.663
  122OSM   H13B12819   0.410   6.610   6.725
  122OSM   H13C12820   0.538   6.721   6.680
  122OSM    C1212821   0.551   6.670   6.421
  122OSM   H12A12822   0.634   6.602   6.436
  122OSM   H12B12823   0.587   6.769   6.447
  122OSM    C1112824   0.521   6.668   6.269
  122OSM   H11A12825   0.607   6.712   6.213
  122OSM   H11B12826   0.433   6.732   6.246
  122OSM      P12827   0.613   6.428   6.236
  122OSM    O1312828   0.740   6.498   6.269
  122OSM    O1412829   0.566   6.327   6.333
  122OSM    O1112830   0.617   6.370   6.087
  122OSM    O1212831   0.497   6.535   6.225
  122OSM    C1S12832   0.538   6.436   5.986
  122OSM    H1S12833   0.577   6.538   5.966
  122OSM    H1T12834   0.432   6.444   6.016
  122OSM     NF12835   0.445   6.428   5.759
  122OSM    HNF12836   0.350   6.398   5.761
  122OSM    C2S12837   0.537   6.360   5.851
  122OSM    H2S12838   0.640   6.362   5.809
  122OSM    C3S12839   0.499   6.210   5.873
  122OSM    H3S12840   0.400   6.203   5.923
  122OSM     O312841   0.593   6.137   5.952
  122OSM    HO312842   0.632   6.204   6.008
  122OSM    C4S12843   0.495   6.147   5.738
  122OSM    H4S12844   0.595   6.131   5.695
  122OSM    C5S12845   0.386   6.110   5.668
  122OSM    H5S12846   0.286   6.127   5.710
  122OSM    C6S12847   0.394   6.051   5.530
  122OSM    H6S12848   0.297   6.058   5.478
  122OSM    H6T12849   0.414   5.942   5.538
  122OSM    C7S12850   0.502   6.117   5.442
  122OSM    H7S12851   0.503   6.070   5.342
  122OSM    H7T12852   0.604   6.102   5.485
  122OSM    C8S12853   0.478   6.266   5.424
  122OSM    H8S12854   0.489   6.312   5.525
  122OSM    H8T12855   0.375   6.285   5.388
  122OSM    C9S12856   0.576   6.338   5.332
  122OSM    H9S12857   0.681   6.306   5.350
  122OSM    H9T12858   0.571   6.446   5.357
  122OSM   C10S12859   0.537   6.321   5.186
  122OSM   H10S12860   0.427   6.307   5.177
  122OSM   H10T12861   0.586   6.231   5.143
  122OSM   C11S12862   0.572   6.445   5.105
  122OSM   H11S12863   0.682   6.465   5.113
  122OSM   H11T12864   0.519   6.534   5.145
  122OSM   C12S12865   0.533   6.427   4.959
  122OSM   H12S12866   0.423   6.425   4.949
  122OSM   H12T12867   0.573   6.330   4.924
  122OSM   C13S12868   0.592   6.539   4.875
  122OSM   H13S12869   0.699   6.554   4.900
  122OSM   H13T12870   0.538   6.633   4.897
  122OSM   C14S12871   0.579   6.505   4.727
  122OSM   H14S12872   0.583   6.598   4.667
  122OSM   H14T12873   0.477   6.462   4.716
  122OSM   C15S12874   0.681   6.402   4.675
  122OSM   H15S12875   0.628   6.335   4.604
  122OSM   H15T12876   0.720   6.338   4.757
  122OSM   C16S12877   0.798   6.466   4.599
  122OSM   H16S12878   0.887   6.477   4.665
  122OSM   H16T12879   0.766   6.569   4.571
  122OSM   C17S12880   0.835   6.395   4.468
  122OSM   H17S12881   0.741   6.368   4.414
  122OSM   H17T12882   0.887   6.301   4.491
  122OSM   C18S12883   0.919   6.481   4.373
  122OSM   H18S12884   0.865   6.575   4.347
  122OSM   H18T12885   0.941   6.427   4.279
  122OSM   H18U12886   1.016   6.509   4.421
  122OSM    C1F12887   0.483   6.519   5.669
  122OSM     OF12888   0.601   6.550   5.659
  122OSM    C2F12889   0.377   6.563   5.571
  122OSM    H2F12890   0.279   6.554   5.622
  122OSM    H2G12891   0.373   6.488   5.488
  122OSM    C3F12892   0.393   6.702   5.502
  122OSM    H3F12893   0.484   6.754   5.540
  122OSM    H3G12894   0.307   6.766   5.532
  122OSM    C4F12895   0.397   6.690   5.348
  122OSM    H4F12896   0.316   6.621   5.315
  122OSM    H4G12897   0.494   6.643   5.322
  122OSM    C5F12898   0.382   6.821   5.266
  122OSM    H5F12899   0.388   6.795   5.158
  122OSM    H5G12900   0.470   6.885   5.289
  122OSM    C6F12901   0.252   6.897   5.296
  122OSM    H6F12902   0.256   6.939   5.399
  122OSM    H6G12903   0.177   6.815   5.294
  122OSM    C7F12904   0.194   7.000   5.198
  122OSM    H7F12905   0.235   7.101   5.216
  122OSM    H7G12906   0.086   7.009   5.225
  122OSM    C8F12907   0.205   6.962   5.049
  122OSM    H8F12908   0.182   6.854   5.039
  122OSM    H8G12909   0.311   6.974   5.016
  122OSM    C9F12910   0.110   7.042   4.963
  122OSM    H9F12911   0.017   7.072   5.015
  122OSM   C10F12912   0.126   7.076   4.834
  122OSM   H10F12913   0.047   7.137   4.787
  122OSM   C11F12914   0.243   7.042   4.746
  122OSM   H11F12915   0.337   7.060   4.802
  122OSM   H11G12916   0.246   7.110   4.658
  122OSM   C12F12917   0.247   6.896   4.696
  122OSM   H12F12918   0.226   6.827   4.780
  122OSM   H12G12919   0.350   6.872   4.662
  122OSM   C13F12920   0.151   6.868   4.579
  122OSM   H13F12921   0.180   6.929   4.490
  122OSM   H13G12922   0.050   6.901   4.610
  122OSM   C14F12923   0.143   6.720   4.540
  122OSM   H14F12924   0.134   6.656   4.631
  122OSM   H14G12925   0.241   6.694   4.494
  122OSM   C15F12926   0.028   6.686   4.443
  122OSM   H15F12927   0.029   6.761   4.361
  122OSM   H15G12928   7.235   6.692   4.497
  122OSM   C16F12929   0.033   6.545   4.384
  122OSM   H16F12930   7.265   6.477   4.436
  122OSM   H16G12931   0.135   6.506   4.407
  122OSM   C17F12932   0.019   6.539   4.233
  122OSM   H17F12933   0.061   6.632   4.190
  122OSM   H17G12934   7.215   6.533   4.206
  122OSM   C18F12935   0.095   6.423   4.169
  122OSM   H18F12936   0.077   6.424   4.059
  122OSM   H18G12937   0.063   6.325   4.211
  122OSM   H18H12938   0.205   6.432   4.185
  123OSM      N12939   2.971   3.751   2.062
  123OSM    C1512940   2.862   3.665   2.007
  123OSM   H15A12941   2.900   3.580   1.953
  123OSM   H15B12942   2.795   3.722   1.945
  123OSM   H15C12943   2.803   3.630   2.091
  123OSM    C1412944   2.906   3.856   2.147
  123OSM   H14A12945   2.850   3.808   2.226
  123OSM   H14B12946   2.835   3.916   2.091
  123OSM   H14C12947   2.980   3.919   2.194
  123OSM    C1312948   3.054   3.668   2.156
  123OSM   H13A12949   2.993   3.637   2.240
  123OSM   H13B12950   3.136   3.728   2.194
  123OSM   H13C12951   3.095   3.579   2.110
  123OSM    C1212952   3.058   3.809   1.952
  123OSM   H12A12953   2.995   3.836   1.869
  123OSM   H12B12954   3.125   3.731   1.919
  123OSM    C1112955   3.146   3.931   1.989
  123OSM   H11A12956   3.078   4.017   2.009
  123OSM   H11B12957   3.209   3.957   1.901
  123OSM      P12958   3.292   4.024   2.179
  123OSM    O1312959   3.380   3.975   2.287
  123OSM    O1412960   3.348   4.119   2.081
  123OSM    O1112961   3.161   4.091   2.242
  123OSM    O1212962   3.230   3.902   2.100
  123OSM    C1S12963   3.175   4.177   2.355
  123OSM    H1S12964   3.111   4.267   2.339
  123OSM    H1T12965   3.278   4.216   2.371
  123OSM     NF12966   3.240   4.058   2.559
  123OSM    HNF12967   3.276   3.969   2.532
  123OSM    C2S12968   3.127   4.111   2.488
  123OSM    H2S12969   3.080   4.192   2.549
  123OSM    C3S12970   3.017   4.004   2.466
  123OSM    H3S12971   3.059   3.918   2.410
  123OSM     O312972   2.909   4.057   2.389
  123OSM    HO312973   2.950   4.129   2.341
  123OSM    C4S12974   2.970   3.960   2.602
  123OSM    H4S12975   2.924   4.041   2.661
  123OSM    C5S12976   2.979   3.836   2.656
  123OSM    H5S12977   3.019   3.754   2.596
  123OSM    C6S12978   2.931   3.798   2.795
  123OSM    H6S12979   3.014   3.750   2.850
  123OSM    H6T12980   2.851   3.721   2.786
  123OSM    C7S12981   2.877   3.912   2.884
  123OSM    H7S12982   2.786   3.956   2.838
  123OSM    H7T12983   2.954   3.992   2.891
  123OSM    C8S12984   2.844   3.866   3.026
  123OSM    H8S12985   2.933   3.813   3.066
  123OSM    H8T12986   2.760   3.794   3.023
  123OSM    C9S12987   2.809   3.983   3.118
  123OSM    H9S12988   2.711   4.025   3.086
  123OSM    H9T12989   2.884   4.064   3.106
  123OSM   C10S12990   2.802   3.944   3.266
  123OSM   H10S12991   2.732   3.858   3.276
  123OSM   H10T12992   2.763   4.030   3.324
  123OSM   C11S12993   2.938   3.902   3.324
  123OSM   H11S12994   3.014   3.976   3.290
  123OSM   H11T12995   2.966   3.803   3.283
  123OSM   C12S12996   2.940   3.896   3.477
  123OSM   H12S12997   2.848   3.844   3.513
  123OSM   H12T12998   2.937   4.000   3.518
  123OSM   C13S12999   3.063   3.823   3.532
  123OSM   H13S13000   3.154   3.880   3.501
  123OSM   H13T13001   3.070   3.722   3.488
  123OSM   C14S13002   3.062   3.812   3.685
  123OSM   H14S13003   2.988   3.736   3.716
  123OSM   H14T13004   3.031   3.910   3.727
  123OSM   C15S13005   3.201   3.777   3.742
  123OSM   H15S13006   3.274   3.850   3.701
  123OSM   H15T13007   3.232   3.676   3.708
  123OSM   C16S13008   3.206   3.785   3.895
  123OSM   H16S13009   3.155   3.878   3.928
  123OSM   H16T13010   3.313   3.792   3.925
  123OSM   C17S13011   3.144   3.664   3.966
  123OSM   H17S13012   3.201   3.573   3.937
  123OSM   H17T13013   3.040   3.650   3.930
  123OSM   C18S13014   3.143   3.678   4.118
  123OSM   H18S13015   3.099   3.587   4.166
  123OSM   H18T13016   3.082   3.766   4.148
  123OSM   H18U13017   3.246   3.691   4.157
  123OSM    C1F13018   3.304   4.136   2.645
  123OSM     OF13019   3.287   4.258   2.641
  123OSM    C2F13020   3.382   4.067   2.751
  123OSM    H2F13021   3.488   4.102   2.752
  123OSM    H2G13022   3.382   3.957   2.732
  123OSM    C3F13023   3.310   4.099   2.883
  123OSM    H3F13024   3.200   4.091   2.869
  123OSM    H3G13025   3.333   4.204   2.912
  123OSM    C4F13026   3.345   4.005   2.998
  123OSM    H4F13027   3.451   4.022   3.025
  123OSM    H4G13028   3.335   3.899   2.967
  123OSM    C5F13029   3.248   4.032   3.114
  123OSM    H5F13030   3.150   3.987   3.090
  123OSM    H5G13031   3.232   4.142   3.123
  123OSM    C6F13032   3.299   3.981   3.248
  123OSM    H6F13033   3.325   3.873   3.240
  123OSM    H6G13034   3.219   3.991   3.325
  123OSM    C7F13035   3.418   4.062   3.296
  123OSM    H7F13036   3.388   4.169   3.309
  123OSM    H7G13037   3.498   4.059   3.219
  123OSM    C8F13038   3.473   4.007   3.427
  123OSM    H8F13039   3.490   3.898   3.413
  123OSM    H8G13040   3.398   4.020   3.508
  123OSM    C9F13041   3.602   4.077   3.454
  123OSM    H9F13042   3.661   4.104   3.365
  123OSM   C10F13043   3.654   4.096   3.574
  123OSM   H10F13044   3.755   4.139   3.583
  123OSM   C11F13045   3.595   4.049   3.702
  123OSM   H11F13046   3.688   4.014   3.752
  123OSM   H11G13047   3.529   3.961   3.686
  123OSM   C12F13048   3.531   4.139   3.809
  123OSM   H12F13049   3.448   4.080   3.855
  123OSM   H12G13050   3.483   4.226   3.761
  123OSM   C13F13051   3.633   4.172   3.920
  123OSM   H13F13052   3.718   4.230   3.878
  123OSM   H13G13053   3.676   4.077   3.958
  123OSM   C14F13054   3.581   4.244   4.045
  123OSM   H14F13055   3.571   4.352   4.022
  123OSM   H14G13056   3.658   4.235   4.124
  123OSM   C15F13057   3.448   4.190   4.099
  123OSM   H15F13058   3.435   4.084   4.069
  123OSM   H15G13059   3.365   4.248   4.053
  123OSM   C16F13060   3.440   4.195   4.252
  123OSM   H16F13061   3.464   4.298   4.288
  123OSM   H16G13062   3.518   4.127   4.292
  123OSM   C17F13063   3.303   4.154   4.306
  123OSM   H17F13064   3.313   4.143   4.416
  123OSM   H17G13065   3.278   4.054   4.264
  123OSM   C18F13066   3.190   4.252   4.275
  123OSM   H18F13067   3.095   4.218   4.322
  123OSM   H18G13068   3.174   4.262   4.166
  123OSM   H18H13069   3.215   4.352   4.316
  124OSM      N13070   2.861   4.455   2.078
  124OSM    C1513071   2.749   4.450   1.978
  124OSM   H15A13072   2.660   4.406   2.021
  124OSM   H15B13073   2.776   4.392   1.891
  124OSM   H15C13074   2.724   4.550   1.945
  124OSM    C1413075   2.899   4.315   2.115
  124OSM   H14A13076   2.984   4.314   2.182
  124OSM   H14B13077   2.928   4.259   2.027
  124OSM   H14C13078   2.817   4.262   2.162
  124OSM    C1313079   2.979   4.523   2.016
  124OSM   H13A13080   3.064   4.522   2.083
  124OSM   H13B13081   2.954   4.627   2.002
  124OSM   H13C13082   3.008   4.479   1.922
  124OSM    C1213083   2.815   4.535   2.199
  124OSM   H12A13084   2.898   4.547   2.268
  124OSM   H12B13085   2.740   4.480   2.253
  124OSM    C1113086   2.758   4.677   2.171
  124OSM   H11A13087   2.713   4.715   2.265
  124OSM   H11B13088   2.673   4.671   2.100
  124OSM      P13089   2.923   4.874   2.210
  124OSM    O1313090   3.061   4.899   2.162
  124OSM    O1413091   2.833   4.990   2.218
  124OSM    O1113092   2.932   4.798   2.349
  124OSM    O1213093   2.858   4.764   2.116
  124OSM    C1S13094   3.051   4.818   2.428
  124OSM    H1S13095   3.074   4.926   2.433
  124OSM    H1T13096   3.138   4.765   2.384
  124OSM     NF13097   3.153   4.796   2.654
  124OSM    HNF13098   3.186   4.719   2.708
  124OSM    C2S13099   3.035   4.769   2.574
  124OSM    H2S13100   2.950   4.826   2.619
  124OSM    C3S13101   3.000   4.617   2.580
  124OSM    H3S13102   3.085   4.560   2.537
  124OSM     O313103   2.884   4.581   2.504
  124OSM    HO313104   2.867   4.660   2.452
  124OSM    C4S13105   2.982   4.581   2.725
  124OSM    H4S13106   2.889   4.619   2.769
  124OSM    C5S13107   3.065   4.506   2.801
  124OSM    H5S13108   3.155   4.461   2.756
  124OSM    C6S13109   3.043   4.476   2.947
  124OSM    H6S13110   3.139   4.443   2.992
  124OSM    H6T13111   2.971   4.391   2.959
  124OSM    C7S13112   2.991   4.598   3.027
  124OSM    H7S13113   2.891   4.627   2.989
  124OSM    H7T13114   3.059   4.684   3.012
  124OSM    C8S13115   2.978   4.573   3.179
  124OSM    H8S13116   2.917   4.482   3.196
  124OSM    H8T13117   2.924   4.659   3.223
  124OSM    C9S13118   3.113   4.560   3.251
  124OSM    H9S13119   3.172   4.652   3.231
  124OSM    H9T13120   3.170   4.474   3.211
  124OSM   C10S13121   3.096   4.541   3.403
  124OSM   H10S13122   3.068   4.435   3.422
  124OSM   H10T13123   3.012   4.605   3.439
  124OSM   C11S13124   3.222   4.577   3.485
  124OSM   H11S13125   3.312   4.527   3.443
  124OSM   H11T13126   3.207   4.536   3.587
  124OSM   C12S13127   3.243   4.730   3.492
  124OSM   H12S13128   3.146   4.779   3.472
  124OSM   H12T13129   3.314   4.761   3.413
  124OSM   C13S13130   3.290   4.784   3.628
  124OSM   H13S13131   3.288   4.895   3.624
  124OSM   H13T13132   3.395   4.754   3.648
  124OSM   C14S13133   3.201   4.738   3.745
  124OSM   H14S13134   3.255   4.654   3.794
  124OSM   H14T13135   3.105   4.696   3.705
  124OSM   C15S13136   3.165   4.848   3.846
  124OSM   H15S13137   3.078   4.904   3.804
  124OSM   H15T13138   3.249   4.919   3.854
  124OSM   C16S13139   3.131   4.797   3.988
  124OSM   H16S13140   3.062   4.870   4.036
  124OSM   H16T13141   3.224   4.800   4.048
  124OSM   C17S13142   3.072   4.655   3.997
  124OSM   H17S13143   3.136   4.581   3.945
  124OSM   H17T13144   2.973   4.652   3.946
  124OSM   C18S13145   3.058   4.607   4.142
  124OSM   H18S13146   3.158   4.609   4.191
  124OSM   H18T13147   3.018   4.504   4.146
  124OSM   H18U13148   2.991   4.674   4.201
  124OSM    C1F13149   3.215   4.913   2.672
  124OSM     OF13150   3.186   5.015   2.612
  124OSM    C2F13151   3.333   4.907   2.764
  124OSM    H2F13152   3.422   4.942   2.707
  124OSM    H2G13153   3.350   4.802   2.796
  124OSM    C3F13154   3.317   4.988   2.893
  124OSM    H3F13155   3.273   5.088   2.872
  124OSM    H3G13156   3.420   5.004   2.932
  124OSM    C4F13157   3.239   4.917   3.004
  124OSM    H4F13158   3.265   4.809   3.009
  124OSM    H4G13159   3.131   4.927   2.984
  124OSM    C5F13160   3.278   4.981   3.138
  124OSM    H5F13161   3.291   5.090   3.119
  124OSM    H5G13162   3.376   4.941   3.171
  124OSM    C6F13163   3.176   4.967   3.251
  124OSM    H6F13164   3.220   5.008   3.344
  124OSM    H6G13165   3.155   4.859   3.268
  124OSM    C7F13166   3.044   5.039   3.223
  124OSM    H7F13167   2.993   4.988   3.139
  124OSM    H7G13168   3.062   5.144   3.193
  124OSM    C8F13169   2.954   5.037   3.348
  124OSM    H8F13170   2.989   5.113   3.420
  124OSM    H8G13171   2.969   4.938   3.398
  124OSM    C9F13172   2.810   5.059   3.312
  124OSM    H9F13173   2.791   5.146   3.246
  124OSM   C10F13174   2.707   4.981   3.349
  124OSM   H10F13175   2.605   5.009   3.320
  124OSM   C11F13176   2.721   4.858   3.434
  124OSM   H11F13177   2.813   4.800   3.408
  124OSM   H11G13178   2.636   4.788   3.418
  124OSM   C12F13179   2.726   4.896   3.583
  124OSM   H12F13180   2.624   4.926   3.614
  124OSM   H12G13181   2.793   4.983   3.599
  124OSM   C13F13182   2.775   4.782   3.672
  124OSM   H13F13183   2.886   4.776   3.666
  124OSM   H13G13184   2.734   4.685   3.635
  124OSM   C14F13185   2.732   4.800   3.819
  124OSM   H14F13186   2.776   4.716   3.877
  124OSM   H14G13187   2.622   4.790   3.826
  124OSM   C15F13188   2.773   4.935   3.880
  124OSM   H15F13189   2.725   5.017   3.822
  124OSM   H15G13190   2.883   4.948   3.870
  124OSM   C16F13191   2.734   4.953   4.027
  124OSM   H16F13192   2.623   4.948   4.035
  124OSM   H16G13193   2.764   5.055   4.061
  124OSM   C17F13194   2.792   4.848   4.122
  124OSM   H17F13195   2.864   4.896   4.191
  124OSM   H17G13196   2.851   4.775   4.063
  124OSM   C18F13197   2.686   4.770   4.201
  124OSM   H18F13198   2.628   4.705   4.133
  124OSM   H18G13199   2.616   4.840   4.251
  124OSM   H18H13200   2.735   4.707   4.278
  125OSM      N13201   3.748   2.320   1.969
  125OSM    C1513202   3.691   2.340   1.833
  125OSM   H15A13203   3.594   2.387   1.840
  125OSM   H15B13204   3.679   2.246   1.780
  125OSM   H15C13205   3.755   2.405   1.775
  125OSM    C1413206   3.884   2.258   1.952
  125OSM   H14A13207   3.929   2.235   2.048
  125OSM   H14B13208   3.950   2.323   1.898
  125OSM   H14C13209   3.877   2.165   1.897
  125OSM    C1313210   3.758   2.456   2.033
  125OSM   H13A13211   3.814   2.525   1.973
  125OSM   H13B13212   3.801   2.453   2.132
  125OSM   H13C13213   3.658   2.495   2.046
  125OSM    C1213214   3.658   2.231   2.054
  125OSM   H12A13215   3.688   2.237   2.157
  125OSM   H12B13216   3.671   2.127   2.025
  125OSM    C1113217   3.506   2.262   2.050
  125OSM   H11A13218   3.455   2.183   2.109
  125OSM   H11B13219   3.467   2.251   1.946
  125OSM      P13220   3.403   2.419   2.233
  125OSM    O1313221   3.354   2.558   2.236
  125OSM    O1413222   3.303   2.310   2.245
  125OSM    O1113223   3.522   2.400   2.337
  125OSM    O1213224   3.479   2.394   2.096
  125OSM    C1S13225   3.494   2.344   2.466
  125OSM    H1S13226   3.436   2.249   2.457
  125OSM    H1T13227   3.432   2.414   2.528
  125OSM     NF13228   3.590   2.235   2.664
  125OSM    HNF13229   3.583   2.285   2.750
  125OSM    C2S13230   3.623   2.309   2.546
  125OSM    H2S13231   3.684   2.245   2.479
  125OSM    C3S13232   3.708   2.433   2.585
  125OSM    H3S13233   3.644   2.499   2.647
  125OSM     O313234   3.751   2.503   2.469
  125OSM    HO313235   3.684   2.482   2.404
  125OSM    C4S13236   3.830   2.392   2.668
  125OSM    H4S13237   3.917   2.366   2.606
  125OSM    C5S13238   3.843   2.389   2.803
  125OSM    H5S13239   3.759   2.418   2.869
  125OSM    C6S13240   3.968   2.345   2.877
  125OSM    H6S13241   4.051   2.416   2.854
  125OSM    H6T13242   3.999   2.246   2.838
  125OSM    C7S13243   3.963   2.330   3.032
  125OSM    H7S13244   3.949   2.430   3.080
  125OSM    H7T13245   4.062   2.293   3.064
  125OSM    C8S13246   3.856   2.233   3.084
  125OSM    H8S13247   3.837   2.161   3.002
  125OSM    H8T13248   3.762   2.289   3.101
  125OSM    C9S13249   3.893   2.147   3.208
  125OSM    H9S13250   4.002   2.128   3.212
  125OSM    H9T13251   3.842   2.049   3.192
  125OSM   C10S13252   3.841   2.189   3.346
  125OSM   H10S13253   3.734   2.216   3.337
  125OSM   H10T13254   3.898   2.277   3.382
  125OSM   C11S13255   3.847   2.075   3.450
  125OSM   H11S13256   3.954   2.048   3.465
  125OSM   H11T13257   3.793   1.986   3.412
  125OSM   C12S13258   3.787   2.110   3.587
  125OSM   H12S13259   3.802   2.218   3.606
  125OSM   H12T13260   3.843   2.054   3.665
  125OSM   C13S13261   3.638   2.072   3.605
  125OSM   H13S13262   3.626   1.962   3.594
  125OSM   H13T13263   3.578   2.121   3.526
  125OSM   C14S13264   3.586   2.117   3.743
  125OSM   H14S13265   3.596   2.228   3.747
  125OSM   H14T13266   3.652   2.075   3.822
  125OSM   C15S13267   3.439   2.087   3.775
  125OSM   H15S13268   3.428   1.981   3.807
  125OSM   H15T13269   3.379   2.100   3.682
  125OSM   C16S13270   3.384   2.183   3.882
  125OSM   H16S13271   3.274   2.170   3.892
  125OSM   H16T13272   3.401   2.287   3.846
  125OSM   C17S13273   3.448   2.168   4.021
  125OSM   H17S13274   3.448   2.267   4.072
  125OSM   H17T13275   3.555   2.138   4.010
  125OSM   C18S13276   3.374   2.068   4.109
  125OSM   H18S13277   3.277   2.109   4.142
  125OSM   H18T13278   3.435   2.042   4.199
  125OSM   H18U13279   3.352   1.976   4.052
  125OSM    C1F13280   3.569   2.106   2.664
  125OSM     OF13281   3.538   2.045   2.563
  125OSM    C2F13282   3.601   2.042   2.794
  125OSM    H2F13283   3.684   2.097   2.843
  125OSM    H2G13284   3.636   1.938   2.775
  125OSM    C3F13285   3.479   2.039   2.886
  125OSM    H3F13286   3.512   1.997   2.983
  125OSM    H3G13287   3.407   1.970   2.838
  125OSM    C4F13288   3.404   2.171   2.915
  125OSM    H4F13289   3.308   2.143   2.965
  125OSM    H4G13290   3.375   2.222   2.820
  125OSM    C5F13291   3.478   2.268   3.008
  125OSM    H5F13292   3.411   2.356   3.020
  125OSM    H5G13293   3.572   2.303   2.961
  125OSM    C6F13294   3.508   2.208   3.146
  125OSM    H6F13295   3.608   2.159   3.148
  125OSM    H6G13296   3.435   2.127   3.165
  125OSM    C7F13297   3.492   2.308   3.261
  125OSM    H7F13298   3.517   2.262   3.359
  125OSM    H7G13299   3.382   2.324   3.261
  125OSM    C8F13300   3.551   2.450   3.248
  125OSM    H8F13301   3.481   2.519   3.300
  125OSM    H8G13302   3.548   2.481   3.141
  125OSM    C9F13303   3.688   2.472   3.305
  125OSM    H9F13304   3.769   2.481   3.232
  125OSM   C10F13305   3.718   2.478   3.436
  125OSM   H10F13306   3.823   2.493   3.466
  125OSM   C11F13307   3.621   2.464   3.551
  125OSM   H11F13308   3.659   2.388   3.623
  125OSM   H11G13309   3.522   2.428   3.517
  125OSM   C12F13310   3.602   2.597   3.625
  125OSM   H12F13311   3.517   2.589   3.696
  125OSM   H12G13312   3.574   2.672   3.549
  125OSM   C13F13313   3.727   2.644   3.701
  125OSM   H13F13314   3.727   2.755   3.710
  125OSM   H13G13315   3.818   2.617   3.645
  125OSM   C14F13316   3.736   2.595   3.845
  125OSM   H14F13317   3.672   2.505   3.860
  125OSM   H14G13318   3.694   2.674   3.911
  125OSM   C15F13319   3.881   2.568   3.886
  125OSM   H15F13320   3.886   2.568   3.997
  125OSM   H15G13321   3.945   2.651   3.849
  125OSM   C16F13322   3.941   2.438   3.831
  125OSM   H16F13323   4.043   2.424   3.873
  125OSM   H16G13324   3.951   2.446   3.721
  125OSM   C17F13325   3.856   2.314   3.864
  125OSM   H17F13326   3.904   2.226   3.817
  125OSM   H17G13327   3.758   2.326   3.814
  125OSM   C18F13328   3.834   2.288   4.013
  125OSM   H18F13329   3.932   2.281   4.066
  125OSM   H18G13330   3.779   2.192   4.027
  125OSM   H18H13331   3.775   2.370   4.059
  126OSM      N13332   2.233   2.771   2.067
  126OSM    C1513333   2.315   2.875   1.997
  126OSM   H15A13334   2.285   2.974   2.028
  126OSM   H15B13335   2.307   2.869   1.889
  126OSM   H15C13336   2.419   2.868   2.026
  126OSM    C1413337   2.260   2.788   2.214
  126OSM   H14A13338   2.221   2.882   2.251
  126OSM   H14B13339   2.366   2.791   2.234
  126OSM   H14C13340   2.214   2.708   2.271
  126OSM    C1313341   2.087   2.796   2.042
  126OSM   H13A13342   2.064   2.799   1.937
  126OSM   H13B13343   2.056   2.890   2.085
  126OSM   H13C13344   2.026   2.719   2.087
  126OSM    C1213345   2.276   2.631   2.025
  126OSM   H12A13346   2.366   2.606   2.080
  126OSM   H12B13347   2.305   2.633   1.921
  126OSM    C1113348   2.175   2.514   2.042
  126OSM   H11A13349   2.225   2.420   2.009
  126OSM   H11B13350   2.093   2.532   1.970
  126OSM      P13351   1.978   2.461   2.199
  126OSM    O1313352   1.898   2.562   2.129
  126OSM    O1413353   1.959   2.319   2.161
  126OSM    O1113354   1.953   2.473   2.357
  126OSM    O1213355   2.131   2.497   2.177
  126OSM    C1S13356   2.062   2.519   2.437
  126OSM    H1S13357   2.107   2.609   2.390
  126OSM    H1T13358   2.141   2.440   2.443
  126OSM     NF13359   2.151   2.592   2.649
  126OSM    HNF13360   2.182   2.538   2.727
  126OSM    C2S13361   2.026   2.560   2.584
  126OSM    H2S13362   1.963   2.651   2.582
  126OSM    C3S13363   1.945   2.447   2.656
  126OSM    H3S13364   1.993   2.349   2.637
  126OSM     O313365   1.811   2.440   2.606
  126OSM    HO313366   1.814   2.491   2.525
  126OSM    C4S13367   1.939   2.467   2.808
  126OSM    H4S13368   2.000   2.393   2.862
  126OSM    C5S13369   1.865   2.554   2.880
  126OSM    H5S13370   1.801   2.625   2.825
  126OSM    C6S13371   1.858   2.569   3.031
  126OSM    H6S13372   1.753   2.557   3.064
  126OSM    H6T13373   1.887   2.673   3.057
  126OSM    C7S13374   1.937   2.469   3.120
  126OSM    H7S13375   2.045   2.472   3.093
  126OSM    H7T13376   1.898   2.369   3.094
  126OSM    C8S13377   1.922   2.486   3.273
  126OSM    H8S13378   1.818   2.461   3.301
  126OSM    H8T13379   1.938   2.592   3.305
  126OSM    C9S13380   2.020   2.397   3.353
  126OSM    H9S13381   2.125   2.423   3.330
  126OSM    H9T13382   2.002   2.293   3.318
  126OSM   C10S13383   2.000   2.386   3.505
  126OSM   H10S13384   2.039   2.287   3.539
  126OSM   H10T13385   1.891   2.387   3.529
  126OSM   C11S13386   2.064   2.493   3.593
  126OSM   H11S13387   2.022   2.477   3.694
  126OSM   H11T13388   2.033   2.594   3.558
  126OSM   C12S13389   2.217   2.485   3.605
  126OSM   H12S13390   2.265   2.540   3.521
  126OSM   H12T13391   2.248   2.378   3.597
  126OSM   C13S13392   2.266   2.538   3.741
  126OSM   H13S13393   2.334   2.465   3.789
  126OSM   H13T13394   2.179   2.547   3.810
  126OSM   C14S13395   2.335   2.674   3.734
  126OSM   H14S13396   2.277   2.738   3.663
  126OSM   H14T13397   2.438   2.665   3.694
  126OSM   C15S13398   2.342   2.744   3.870
  126OSM   H15S13399   2.237   2.753   3.905
  126OSM   H15T13400   2.383   2.847   3.858
  126OSM   C16S13401   2.427   2.673   3.975
  126OSM   H16S13402   2.409   2.564   3.976
  126OSM   H16T13403   2.398   2.712   4.075
  126OSM   C17S13404   2.577   2.703   3.961
  126OSM   H17S13405   2.592   2.811   3.940
  126OSM   H17T13406   2.617   2.647   3.874
  126OSM   C18S13407   2.652   2.667   4.089
  126OSM   H18S13408   2.626   2.564   4.121
  126OSM   H18T13409   2.624   2.736   4.172
  126OSM   H18U13410   2.762   2.673   4.074
  126OSM    C1F13411   2.224   2.694   2.604
  126OSM     OF13412   2.177   2.778   2.528
  126OSM    C2F13413   2.364   2.703   2.651
  126OSM    H2F13414   2.434   2.700   2.565
  126OSM    H2G13415   2.387   2.615   2.716
  126OSM    C3F13416   2.377   2.836   2.726
  126OSM    H3F13417   2.281   2.886   2.746
  126OSM    H3G13418   2.438   2.904   2.663
  126OSM    C4F13419   2.448   2.821   2.860
  126OSM    H4F13420   2.456   2.923   2.902
  126OSM    H4G13421   2.551   2.783   2.841
  126OSM    C5F13422   2.376   2.729   2.959
  126OSM    H5F13423   2.447   2.719   3.044
  126OSM    H5G13424   2.362   2.626   2.920
  126OSM    C6F13425   2.244   2.784   3.014
  126OSM    H6F13426   2.162   2.769   2.940
  126OSM    H6G13427   2.258   2.894   3.026
  126OSM    C7F13428   2.208   2.720   3.149
  126OSM    H7F13429   2.298   2.718   3.214
  126OSM    H7G13430   2.183   2.613   3.132
  126OSM    C8F13431   2.097   2.788   3.233
  126OSM    H8F13432   2.104   2.748   3.336
  126OSM    H8G13433   1.999   2.755   3.193
  126OSM    C9F13434   2.097   2.937   3.231
  126OSM    H9F13435   2.091   2.980   3.130
  126OSM   C10F13436   2.104   3.021   3.335
  126OSM   H10F13437   2.112   3.129   3.314
  126OSM   C11F13438   2.116   2.990   3.481
  126OSM   H11F13439   2.174   3.076   3.522
  126OSM   H11G13440   2.176   2.899   3.498
  126OSM   C12F13441   1.987   2.984   3.564
  126OSM   H12F13442   1.905   3.043   3.517
  126OSM   H12G13443   2.010   3.031   3.662
  126OSM   C13F13444   1.944   2.840   3.593
  126OSM   H13F13445   2.031   2.788   3.638
  126OSM   H13G13446   1.916   2.788   3.499
  126OSM   C14F13447   1.828   2.837   3.692
  126OSM   H14F13448   1.734   2.867   3.641
  126OSM   H14G13449   1.849   2.912   3.771
  126OSM   C15F13450   1.808   2.704   3.765
  126OSM   H15F13451   1.802   2.620   3.693
  126OSM   H15G13452   1.711   2.713   3.819
  126OSM   C16F13453   1.911   2.675   3.875
  126OSM   H16F13454   1.902   2.755   3.951
  126OSM   H16G13455   2.014   2.680   3.833
  126OSM   C17F13456   1.888   2.541   3.945
  126OSM   H17F13457   1.894   2.460   3.869
  126OSM   H17G13458   1.785   2.539   3.987
  126OSM   C18F13459   1.989   2.512   4.057
  126OSM   H18F13460   1.982   2.589   4.136
  126OSM   H18G13461   2.093   2.512   4.017
  126OSM   H18H13462   1.969   2.412   4.103
  127OSM      N13463   1.963   4.848   2.016
  127OSM    C1513464   2.005   4.805   1.879
  127OSM   H15A13465   1.969   4.874   1.804
  127OSM   H15B13466   1.968   4.707   1.855
  127OSM   H15C13467   2.113   4.803   1.873
  127OSM    C1413468   2.022   4.984   2.041
  127OSM   H14A13469   1.994   5.054   1.963
  127OSM   H14B13470   2.129   4.976   2.045
  127OSM   H14C13471   1.990   5.023   2.137
  127OSM    C1313472   1.813   4.857   2.020
  127OSM   H13A13473   1.773   4.932   1.954
  127OSM   H13B13474   1.778   4.881   2.120
  127OSM   H13C13475   1.767   4.764   1.992
  127OSM    C1213476   2.014   4.752   2.123
  127OSM   H12A13477   1.951   4.664   2.125
  127OSM   H12B13478   2.001   4.797   2.220
  127OSM    C1113479   2.162   4.707   2.113
  127OSM   H11A13480   2.176   4.652   2.018
  127OSM   H11B13481   2.181   4.632   2.194
  127OSM      P13482   2.306   4.868   2.259
  127OSM    O1313483   2.381   4.760   2.324
  127OSM    O1413484   2.374   4.997   2.235
  127OSM    O1113485   2.169   4.892   2.334
  127OSM    O1213486   2.255   4.815   2.118
  127OSM    C1S13487   2.156   4.989   2.440
  127OSM    H1S13488   2.078   5.062   2.409
  127OSM    H1T13489   2.248   5.047   2.459
  127OSM     NF13490   2.220   4.890   2.658
  127OSM    HNF13491   2.260   4.801   2.641
  127OSM    C2S13492   2.106   4.927   2.575
  127OSM    H2S13493   2.050   5.008   2.627
  127OSM    C3S13494   2.008   4.809   2.553
  127OSM    H3S13495   2.068   4.717   2.533
  127OSM     O313496   1.925   4.825   2.437
  127OSM    HO313497   1.977   4.886   2.385
  127OSM    C4S13498   1.930   4.787   2.681
  127OSM    H4S13499   1.977   4.716   2.751
  127OSM    C5S13500   1.814   4.847   2.715
  127OSM    H5S13501   1.771   4.916   2.641
  127OSM    C6S13502   1.733   4.831   2.842
  127OSM    H6S13503   1.650   4.760   2.823
  127OSM    H6T13504   1.687   4.929   2.867
  127OSM    C7S13505   1.808   4.784   2.968
  127OSM    H7S13506   1.856   4.686   2.948
  127OSM    H7T13507   1.733   4.767   3.049
  127OSM    C8S13508   1.913   4.883   3.021
  127OSM    H8S13509   1.863   4.974   3.060
  127OSM    H8T13510   1.979   4.915   2.938
  127OSM    C9S13511   2.001   4.821   3.131
  127OSM    H9S13512   2.052   4.733   3.086
  127OSM    H9T13513   1.938   4.785   3.215
  127OSM   C10S13514   2.109   4.916   3.184
  127OSM   H10S13515   2.143   4.983   3.102
  127OSM   H10T13516   2.197   4.855   3.216
  127OSM   C11S13517   2.064   4.998   3.305
  127OSM   H11S13518   2.046   4.929   3.391
  127OSM   H11T13519   1.967   5.047   3.281
  127OSM   C12S13520   2.165   5.106   3.347
  127OSM   H12S13521   2.132   5.152   3.443
  127OSM   H12T13522   2.163   5.186   3.269
  127OSM   C13S13523   2.310   5.059   3.363
  127OSM   H13S13524   2.371   5.146   3.397
  127OSM   H13T13525   2.350   5.029   3.263
  127OSM   C14S13526   2.330   4.944   3.462
  127OSM   H14S13527   2.439   4.925   3.471
  127OSM   H14T13528   2.283   4.852   3.423
  127OSM   C15S13529   2.274   4.972   3.602
  127OSM   H15S13530   2.167   4.944   3.604
  127OSM   H15T13531   2.280   5.081   3.624
  127OSM   C16S13532   2.351   4.896   3.712
  127OSM   H16S13533   2.450   4.945   3.725
  127OSM   H16T13534   2.368   4.791   3.682
  127OSM   C17S13535   2.276   4.901   3.845
  127OSM   H17S13536   2.191   4.831   3.840
  127OSM   H17T13537   2.237   5.005   3.855
  127OSM   C18S13538   2.360   4.873   3.969
  127OSM   H18S13539   2.296   4.870   4.060
  127OSM   H18T13540   2.433   4.956   3.982
  127OSM   H18U13541   2.416   4.777   3.960
  127OSM    C1F13542   2.287   4.986   2.721
  127OSM     OF13543   2.245   5.101   2.724
  127OSM    C2F13544   2.418   4.950   2.782
  127OSM    H2F13545   2.482   5.041   2.783
  127OSM    H2G13546   2.468   4.873   2.718
  127OSM    C3F13547   2.401   4.897   2.926
  127OSM    H3F13548   2.326   4.816   2.928
  127OSM    H3G13549   2.365   4.979   2.991
  127OSM    C4F13550   2.534   4.843   2.980
  127OSM    H4F13551   2.610   4.925   2.974
  127OSM    H4G13552   2.569   4.760   2.915
  127OSM    C5F13553   2.528   4.795   3.125
  127OSM    H5F13554   2.491   4.878   3.189
  127OSM    H5G13555   2.630   4.768   3.158
  127OSM    C6F13556   2.437   4.673   3.149
  127OSM    H6F13557   2.466   4.590   3.081
  127OSM    H6G13558   2.332   4.701   3.126
  127OSM    C7F13559   2.449   4.626   3.295
  127OSM    H7F13560   2.434   4.714   3.362
  127OSM    H7G13561   2.552   4.590   3.312
  127OSM    C8F13562   2.350   4.517   3.337
  127OSM    H8F13563   2.373   4.488   3.442
  127OSM    H8G13564   2.371   4.426   3.275
  127OSM    C9F13565   2.206   4.557   3.322
  127OSM    H9F13566   2.170   4.557   3.218
  127OSM   C10F13567   2.121   4.597   3.418
  127OSM   H10F13568   2.018   4.623   3.388
  127OSM   C11F13569   2.148   4.611   3.566
  127OSM   H11F13570   2.117   4.713   3.598
  127OSM   H11G13571   2.257   4.604   3.587
  127OSM   C12F13572   2.077   4.509   3.656
  127OSM   H12F13573   2.096   4.538   3.762
  127OSM   H12G13574   2.123   4.409   3.642
  127OSM   C13F13575   1.925   4.493   3.637
  127OSM   H13F13576   1.887   4.433   3.722
  127OSM   H13G13577   1.907   4.431   3.546
  127OSM   C14F13578   1.841   4.622   3.626
  127OSM   H14F13579   1.734   4.593   3.622
  127OSM   H14G13580   1.862   4.673   3.530
  127OSM   C15F13581   1.862   4.721   3.741
  127OSM   H15F13582   1.928   4.802   3.703
  127OSM   H15G13583   1.920   4.673   3.822
  127OSM   C16F13584   1.732   4.780   3.799
  127OSM   H16F13585   1.645   4.715   3.775
  127OSM   H16G13586   1.711   4.878   3.751
  127OSM   C17F13587   1.736   4.796   3.952
  127OSM   H17F13588   1.841   4.814   3.984
  127OSM   H17G13589   1.705   4.699   3.997
  127OSM   C18F13590   1.648   4.907   4.010
  127OSM   H18F13591   1.695   5.006   3.994
  127OSM   H18G13592   1.638   4.893   4.120
  127OSM   H18H13593   1.547   4.907   3.964
  128OSM      N13594   1.599   4.147   1.943
  128OSM    C1513595   1.707   4.057   1.995
  128OSM   H15A13596   1.665   3.966   2.036
  128OSM   H15B13597   1.757   4.106   2.077
  128OSM   H15C13598   1.779   4.031   1.920
  128OSM    C1413599   1.657   4.283   1.918
  128OSM   H14A13600   1.587   4.348   1.867
  128OSM   H14B13601   1.747   4.278   1.859
  128OSM   H14C13602   1.681   4.328   2.013
  128OSM    C1313603   1.545   4.093   1.815
  128OSM   H13A13604   1.455   4.146   1.787
  128OSM   H13B13605   1.522   3.988   1.824
  128OSM   H13C13606   1.616   4.105   1.734
  128OSM    C1213607   1.490   4.158   2.049
  128OSM   H12A13608   1.433   4.066   2.052
  128OSM   H12B13609   1.420   4.236   2.021
  128OSM    C1113610   1.534   4.189   2.195
  128OSM   H11A13611   1.579   4.097   2.238
  128OSM   H11B13612   1.443   4.210   2.254
  128OSM      P13613   1.766   4.300   2.263
  128OSM    O1313614   1.861   4.273   2.152
  128OSM    O1413615   1.794   4.422   2.340
  128OSM    O1113616   1.766   4.172   2.361
  128OSM    O1213617   1.620   4.303   2.203
  128OSM    C1S13618   1.856   4.172   2.472
  128OSM    H1S13619   1.886   4.275   2.501
  128OSM    H1T13620   1.950   4.119   2.443
  128OSM     NF13621   1.875   4.154   2.713
  128OSM    HNF13622   1.956   4.105   2.744
  128OSM    C2S13623   1.799   4.103   2.600
  128OSM    H2S13624   1.692   4.131   2.613
  128OSM    C3S13625   1.808   3.949   2.581
  128OSM    H3S13626   1.907   3.922   2.539
  128OSM     O313627   1.709   3.901   2.490
  128OSM    HO313628   1.675   3.981   2.449
  128OSM    C4S13629   1.789   3.874   2.711
  128OSM    H4S13630   1.684   3.859   2.739
  128OSM    C5S13631   1.888   3.824   2.789
  128OSM    H5S13632   1.993   3.841   2.759
  128OSM    C6S13633   1.870   3.747   2.918
  128OSM    H6S13634   1.938   3.659   2.918
  128OSM    H6T13635   1.768   3.705   2.925
  128OSM    C7S13636   1.896   3.823   3.050
  128OSM    H7S13637   2.005   3.841   3.062
  128OSM    H7T13638   1.865   3.754   3.131
  128OSM    C8S13639   1.821   3.956   3.064
  128OSM    H8S13640   1.715   3.941   3.034
  128OSM    H8T13641   1.862   4.030   2.992
  128OSM    C9S13642   1.823   4.020   3.205
  128OSM    H9S13643   1.721   4.055   3.232
  128OSM    H9T13644   1.886   4.111   3.200
  128OSM   C10S13645   1.878   3.933   3.319
  128OSM   H10S13646   1.982   3.904   3.294
  128OSM   H10T13647   1.821   3.838   3.328
  128OSM   C11S13648   1.879   4.002   3.456
  128OSM   H11S13649   1.900   4.111   3.445
  128OSM   H11T13650   1.962   3.958   3.515
  128OSM   C12S13651   1.752   3.982   3.540
  128OSM   H12S13652   1.732   3.873   3.544
  128OSM   H12T13653   1.665   4.032   3.491
  128OSM   C13S13654   1.771   4.032   3.683
  128OSM   H13S13655   1.800   4.140   3.682
  128OSM   H13T13656   1.859   3.978   3.724
  128OSM   C14S13657   1.653   4.011   3.780
  128OSM   H14S13658   1.618   3.906   3.774
  128OSM   H14T13659   1.566   4.075   3.754
  128OSM   C15S13660   1.704   4.043   3.921
  128OSM   H15S13661   1.750   4.144   3.921
  128OSM   H15T13662   1.786   3.969   3.938
  128OSM   C16S13663   1.608   4.034   4.039
  128OSM   H16S13664   1.544   3.943   4.030
  128OSM   H16T13665   1.540   4.121   4.039
  128OSM   C17S13666   1.687   4.035   4.172
  128OSM   H17S13667   1.614   4.045   4.256
  128OSM   H17T13668   1.749   4.127   4.172
  128OSM   C18S13669   1.779   3.916   4.200
  128OSM   H18S13670   1.845   3.935   4.288
  128OSM   H18T13671   1.847   3.895   4.114
  128OSM   H18U13672   1.722   3.824   4.223
  128OSM    C1F13673   1.856   4.281   2.748
  128OSM     OF13674   1.742   4.325   2.757
  128OSM    C2F13675   1.979   4.366   2.764
  128OSM    H2F13676   1.975   4.444   2.685
  128OSM    H2G13677   2.068   4.303   2.743
  128OSM    C3F13678   1.996   4.435   2.901
  128OSM    H3F13679   2.002   4.545   2.885
  128OSM    H3G13680   2.094   4.405   2.944
  128OSM    C4F13681   1.887   4.406   3.005
  128OSM    H4F13682   1.859   4.298   3.006
  128OSM    H4G13683   1.796   4.462   2.974
  128OSM    C5F13684   1.929   4.444   3.146
  128OSM    H5F13685   1.948   4.554   3.149
  128OSM    H5G13686   2.024   4.392   3.173
  128OSM    C6F13687   1.823   4.411   3.251
  128OSM    H6F13688   1.856   4.452   3.349
  128OSM    H6G13689   1.810   4.301   3.262
  128OSM    C7F13690   1.689   4.474   3.213
  128OSM    H7F13691   1.646   4.424   3.123
  128OSM    H7G13692   1.709   4.579   3.185
  128OSM    C8F13693   1.587   4.474   3.326
  128OSM    H8F13694   1.509   4.546   3.292
  128OSM    H8G13695   1.633   4.518   3.417
  128OSM    C9F13696   1.519   4.342   3.351
  128OSM    H9F13697   1.474   4.296   3.262
  128OSM   C10F13698   1.509   4.278   3.469
  128OSM   H10F13699   1.456   4.182   3.473
  128OSM   C11F13700   1.565   4.325   3.602
  128OSM   H11F13701   1.639   4.406   3.590
  128OSM   H11G13702   1.622   4.240   3.645
  128OSM   C12F13703   1.460   4.369   3.705
  128OSM   H12F13704   1.368   4.307   3.694
  128OSM   H12G13705   1.432   4.474   3.683
  128OSM   C13F13706   1.507   4.359   3.852
  128OSM   H13F13707   1.503   4.252   3.882
  128OSM   H13G13708   1.436   4.414   3.917
  128OSM   C14F13709   1.650   4.410   3.872
  128OSM   H14F13710   1.658   4.509   3.823
  128OSM   H14G13711   1.719   4.341   3.821
  128OSM   C15F13712   1.698   4.425   4.018
  128OSM   H15F13713   1.680   4.330   4.073
  128OSM   H15G13714   1.640   4.505   4.068
  128OSM   C16F13715   1.849   4.458   4.019
  128OSM   H16F13716   1.870   4.517   3.927
  128OSM   H16G13717   1.906   4.364   4.008
  128OSM   C17F13718   1.905   4.539   4.136
  128OSM   H17F13719   1.870   4.498   4.234
  128OSM   H17G13720   1.869   4.644   4.132
  128OSM   C18F13721   2.058   4.539   4.136
  128OSM   H18F13722   2.095   4.435   4.146
  128OSM   H18G13723   2.098   4.599   4.221
  128OSM   H18H13724   2.098   4.582   4.041
  129OSM      N13725   3.813   1.511   1.914
  129OSM    C1513726   3.760   1.494   1.776
  129OSM   H15A13727   3.699   1.405   1.769
  129OSM   H15B13728   3.841   1.480   1.706
  129OSM   H15C13729   3.700   1.578   1.744
  129OSM    C1413730   3.894   1.390   1.953
  129OSM   H14A13731   3.989   1.385   1.901
  129OSM   H14B13732   3.841   1.298   1.936
  129OSM   H14C13733   3.917   1.396   2.058
  129OSM    C1313734   3.907   1.628   1.923
  129OSM   H13A13735   3.858   1.721   1.896
  129OSM   H13B13736   3.996   1.612   1.864
  129OSM   H13C13737   3.938   1.636   2.026
  129OSM    C1213738   3.702   1.525   2.018
  129OSM   H12A13739   3.664   1.426   2.039
  129OSM   H12B13740   3.619   1.581   1.977
  129OSM    C1113741   3.743   1.589   2.153
  129OSM   H11A13742   3.663   1.565   2.227
  129OSM   H11B13743   3.746   1.699   2.143
  129OSM      P13744   3.917   1.519   2.340
  129OSM    O1313745   4.000   1.397   2.342
  129OSM    O1413746   3.976   1.645   2.391
  129OSM    O1113747   3.780   1.494   2.416
  129OSM    O1213748   3.871   1.542   2.193
  129OSM    C1S13749   3.778   1.432   2.544
  129OSM    H1S13750   3.835   1.336   2.543
  129OSM    H1T13751   3.673   1.407   2.571
  129OSM     NF13752   3.855   1.441   2.774
  129OSM    HNF13753   3.774   1.409   2.822
  129OSM    C2S13754   3.837   1.522   2.655
  129OSM    H2S13755   3.936   1.558   2.619
  129OSM    C3S13756   3.751   1.650   2.684
  129OSM    H3S13757   3.649   1.619   2.713
  129OSM     O313758   3.739   1.737   2.572
  129OSM    HO313759   3.786   1.694   2.501
  129OSM    C4S13760   3.813   1.724   2.801
  129OSM    H4S13761   3.745   1.745   2.885
  129OSM    C5S13762   3.942   1.765   2.805
  129OSM    H5S13763   4.005   1.743   2.717
  129OSM    C6S13764   4.016   1.837   2.914
  129OSM    H6S13765   4.048   1.937   2.878
  129OSM    H6T13766   4.109   1.780   2.934
  129OSM    C7S13767   3.952   1.867   3.050
  129OSM    H7S13768   3.847   1.902   3.038
  129OSM    H7T13769   4.012   1.950   3.092
  129OSM    C8S13770   3.961   1.753   3.150
  129OSM    H8S13771   4.062   1.706   3.141
  129OSM    H8T13772   3.884   1.679   3.120
  129OSM    C9S13773   3.943   1.795   3.296
  129OSM    H9S13774   3.834   1.802   3.317
  129OSM    H9T13775   3.989   1.895   3.310
  129OSM   C10S13776   4.009   1.700   3.397
  129OSM   H10S13777   4.119   1.707   3.387
  129OSM   H10T13778   3.981   1.596   3.373
  129OSM   C11S13779   3.968   1.727   3.543
  129OSM   H11S13780   3.857   1.729   3.550
  129OSM   H11T13781   4.005   1.828   3.572
  129OSM   C12S13782   4.023   1.622   3.640
  129OSM   H12S13783   4.003   1.656   3.744
  129OSM   H12T13784   4.133   1.615   3.627
  129OSM   C13S13785   3.961   1.482   3.622
  129OSM   H13S13786   3.965   1.453   3.515
  129OSM   H13T13787   3.854   1.486   3.651
  129OSM   C14S13788   4.034   1.372   3.700
  129OSM   H14S13789   4.142   1.376   3.675
  129OSM   H14T13790   3.996   1.273   3.667
  129OSM   C15S13791   4.017   1.382   3.853
  129OSM   H15S13792   3.911   1.362   3.878
  129OSM   H15T13793   4.041   1.484   3.888
  129OSM   C16S13794   4.107   1.281   3.925
  129OSM   H16S13795   4.214   1.307   3.908
  129OSM   H16T13796   4.091   1.181   3.878
  129OSM   C17S13797   4.080   1.277   4.076
  129OSM   H17S13798   3.970   1.267   4.093
  129OSM   H17T13799   4.112   1.376   4.115
  129OSM   C18S13800   4.153   1.170   4.158
  129OSM   H18S13801   4.261   1.168   4.134
  129OSM   H18T13802   4.111   1.068   4.140
  129OSM   H18U13803   4.140   1.190   4.267
  129OSM    C1F13804   3.975   1.440   2.831
  129OSM     OF13805   4.077   1.447   2.765
  129OSM    C2F13806   3.980   1.440   2.980
  129OSM    H2F13807   4.011   1.543   3.010
  129OSM    H2G13808   4.061   1.373   3.015
  129OSM    C3F13809   3.847   1.403   3.047
  129OSM    H3F13810   3.816   1.301   3.017
  129OSM    H3G13811   3.766   1.474   3.018
  129OSM    C4F13812   3.862   1.410   3.198
  129OSM    H4F13813   3.883   1.516   3.226
  129OSM    H4G13814   3.950   1.354   3.236
  129OSM    C5F13815   3.737   1.369   3.272
  129OSM    H5F13816   3.765   1.298   3.353
  129OSM    H5G13817   3.667   1.316   3.203
  129OSM    C6F13818   3.671   1.493   3.331
  129OSM    H6F13819   3.665   1.572   3.254
  129OSM    H6G13820   3.732   1.531   3.415
  129OSM    C7F13821   3.531   1.461   3.379
  129OSM    H7F13822   3.465   1.447   3.290
  129OSM    H7G13823   3.490   1.547   3.436
  129OSM    C8F13824   3.523   1.336   3.466
  129OSM    H8F13825   3.542   1.245   3.405
  129OSM    H8G13826   3.415   1.335   3.492
  129OSM    C9F13827   3.609   1.336   3.590
  129OSM    H9F13828   3.695   1.268   3.588
  129OSM   C10F13829   3.588   1.412   3.699
  129OSM   H10F13830   3.658   1.406   3.783
  129OSM   C11F13831   3.477   1.512   3.715
  129OSM   H11F13832   3.430   1.501   3.815
  129OSM   H11G13833   3.395   1.494   3.642
  129OSM   C12F13834   3.528   1.655   3.693
  129OSM   H12F13835   3.441   1.723   3.692
  129OSM   H12G13836   3.578   1.664   3.594
  129OSM   C13F13837   3.624   1.706   3.802
  129OSM   H13F13838   3.645   1.813   3.780
  129OSM   H13G13839   3.720   1.652   3.799
  129OSM   C14F13840   3.561   1.695   3.941
  129OSM   H14F13841   3.588   1.598   3.988
  129OSM   H14G13842   3.451   1.693   3.928
  129OSM   C15F13843   3.589   1.813   4.033
  129OSM   H15F13844   3.493   1.838   4.084
  129OSM   H15G13845   3.621   1.902   3.975
  129OSM   C16F13846   3.687   1.783   4.145
  129OSM   H16F13847   3.713   1.877   4.197
  129OSM   H16G13848   3.780   1.742   4.098
  129OSM   C17F13849   3.627   1.685   4.247
  129OSM   H17F13850   3.649   1.581   4.215
  129OSM   H17G13851   3.516   1.696   4.244
  129OSM   C18F13852   3.672   1.708   4.392
  129OSM   H18F13853   3.648   1.812   4.423
  129OSM   H18G13854   3.781   1.692   4.403
  129OSM   H18H13855   3.619   1.638   4.460
  130OSM      N13856   3.979   5.668   2.185
  130OSM    C1513857   4.041   5.728   2.308
  130OSM   H15A13858   4.149   5.722   2.306
  130OSM   H15B13859   4.006   5.679   2.397
  130OSM   H15C13860   4.014   5.832   2.315
  130OSM    C1413861   4.017   5.523   2.180
  130OSM   H14A13862   3.978   5.474   2.092
  130OSM   H14B13863   3.975   5.472   2.265
  130OSM   H14C13864   4.124   5.510   2.183
  130OSM    C1313865   3.830   5.679   2.197
  130OSM   H13A13866   3.781   5.640   2.109
  130OSM   H13B13867   3.802   5.783   2.205
  130OSM   H13C13868   3.793   5.624   2.282
  130OSM    C1213869   4.023   5.742   2.060
  130OSM   H12A13870   3.954   5.715   1.981
  130OSM   H12B13871   4.121   5.708   2.031
  130OSM    C1113872   4.025   5.897   2.066
  130OSM   H11A13873   4.051   5.933   1.964
  130OSM   H11B13874   4.108   5.929   2.134
  130OSM      P13875   3.877   6.107   2.111
  130OSM    O1313876   3.932   6.164   1.985
  130OSM    O1413877   3.735   6.136   2.139
  130OSM    O1113878   3.968   6.155   2.233
  130OSM    O1213879   3.900   5.950   2.108
  130OSM    C1S13880   3.992   6.069   2.345
  130OSM    H1S13881   4.087   6.012   2.328
  130OSM    H1T13882   3.909   5.997   2.361
  130OSM     NF13883   4.010   6.053   2.592
  130OSM    HNF13884   3.945   6.076   2.663
  130OSM    C2S13885   4.009   6.146   2.479
  130OSM    H2S13886   4.106   6.200   2.478
  130OSM    C3S13887   3.895   6.251   2.491
  130OSM    H3S13888   3.800   6.209   2.452
  130OSM     O313889   3.925   6.369   2.418
  130OSM    HO313890   3.974   6.338   2.342
  130OSM    C4S13891   3.877   6.290   2.634
  130OSM    H4S13892   3.936   6.377   2.668
  130OSM    C5S13893   3.791   6.229   2.718
  130OSM    H5S13894   3.728   6.146   2.681
  130OSM    C6S13895   3.772   6.267   2.861
  130OSM    H6S13896   3.669   6.305   2.876
  130OSM    H6T13897   3.842   6.348   2.891
  130OSM    C7S13898   3.791   6.157   2.965
  130OSM    H7S13899   3.898   6.129   2.971
  130OSM    H7T13900   3.731   6.066   2.942
  130OSM    C8S13901   3.745   6.217   3.098
  130OSM    H8S13902   3.634   6.223   3.100
  130OSM    H8T13903   3.783   6.321   3.105
  130OSM    C9S13904   3.796   6.142   3.219
  130OSM    H9S13905   3.906   6.130   3.209
  130OSM    H9T13906   3.751   6.041   3.225
  130OSM   C10S13907   3.764   6.223   3.345
  130OSM   H10S13908   3.655   6.238   3.352
  130OSM   H10T13909   3.812   6.323   3.339
  130OSM   C11S13910   3.813   6.152   3.471
  130OSM   H11S13911   3.767   6.051   3.476
  130OSM   H11T13912   3.781   6.209   3.561
  130OSM   C12S13913   3.964   6.133   3.475
  130OSM   H12S13914   4.016   6.232   3.472
  130OSM   H12T13915   4.000   6.074   3.388
  130OSM   C13S13916   3.999   6.058   3.602
  130OSM   H13S13917   3.941   5.964   3.604
  130OSM   H13T13918   3.970   6.121   3.689
  130OSM   C14S13919   4.146   6.022   3.613
  130OSM   H14S13920   4.205   6.114   3.594
  130OSM   H14T13921   4.175   5.946   3.537
  130OSM   C15S13922   4.178   5.972   3.754
  130OSM   H15S13923   4.141   6.041   3.833
  130OSM   H15T13924   4.289   5.976   3.755
  130OSM   C16S13925   4.147   5.826   3.786
  130OSM   H16S13926   4.143   5.768   3.691
  130OSM   H16T13927   4.049   5.818   3.837
  130OSM   C17S13928   4.255   5.765   3.875
  130OSM   H17S13929   4.257   5.818   3.972
  130OSM   H17T13930   4.354   5.780   3.827
  130OSM   C18S13931   4.237   5.615   3.896
  130OSM   H18S13932   4.232   5.563   3.798
  130OSM   H18T13933   4.142   5.596   3.952
  130OSM   H18U13934   4.322   5.573   3.954
  130OSM    C1F13935   4.097   5.956   2.617
  130OSM     OF13936   4.185   5.926   2.538
  130OSM    C2F13937   4.074   5.884   2.747
  130OSM    H2F13938   4.038   5.781   2.725
  130OSM    H2G13939   3.994   5.937   2.803
  130OSM    C3F13940   4.200   5.876   2.836
  130OSM    H3F13941   4.239   5.978   2.856
  130OSM    H3G13942   4.277   5.819   2.779
  130OSM    C4F13943   4.179   5.803   2.970
  130OSM    H4F13944   4.278   5.788   3.017
  130OSM    H4G13945   4.136   5.702   2.949
  130OSM    C5F13946   4.088   5.877   3.069
  130OSM    H5F13947   3.993   5.904   3.019
  130OSM    H5G13948   4.137   5.970   3.102
  130OSM    C6F13949   4.051   5.792   3.192
  130OSM    H6F13950   4.006   5.696   3.158
  130OSM    H6G13951   3.974   5.845   3.252
  130OSM    C7F13952   4.171   5.762   3.283
  130OSM    H7F13953   4.212   5.859   3.320
  130OSM    H7G13954   4.251   5.712   3.224
  130OSM    C8F13955   4.136   5.675   3.406
  130OSM    H8F13956   4.049   5.721   3.458
  130OSM    H8G13957   4.220   5.679   3.477
  130OSM    C9F13958   4.111   5.530   3.369
  130OSM    H9F13959   4.188   5.485   3.306
  130OSM   C10F13960   4.005   5.456   3.407
  130OSM   H10F13961   4.000   5.351   3.375
  130OSM   C11F13962   3.892   5.503   3.494
  130OSM   H11F13963   3.804   5.435   3.484
  130OSM   H11G13964   3.858   5.604   3.461
  130OSM   C12F13965   3.930   5.509   3.643
  130OSM   H12F13966   4.026   5.563   3.656
  130OSM   H12G13967   3.945   5.405   3.680
  130OSM   C13F13968   3.825   5.579   3.731
  130OSM   H13F13969   3.857   5.567   3.837
  130OSM   H13G13970   3.726   5.530   3.720
  130OSM   C14F13971   3.812   5.729   3.701
  130OSM   H14F13972   3.756   5.746   3.606
  130OSM   H14G13973   3.915   5.769   3.684
  130OSM   C15F13974   3.747   5.809   3.815
  130OSM   H15F13975   3.785   5.771   3.913
  130OSM   H15G13976   3.637   5.790   3.810
  130OSM   C16F13977   3.772   5.960   3.810
  130OSM   H16F13978   3.749   5.995   3.707
  130OSM   H16G13979   3.880   5.980   3.829
  130OSM   C17F13980   3.690   6.044   3.908
  130OSM   H17F13981   3.589   5.998   3.921
  130OSM   H17G13982   3.673   6.145   3.863
  130OSM   C18F13983   3.758   6.065   4.044
  130OSM   H18F13984   3.690   6.117   4.114
  130OSM   H18G13985   3.850   6.126   4.032
  130OSM   H18H13986   3.786   5.967   4.089
  131OSM      N13987   1.116   2.769   2.179
  131OSM    C1513988   0.996   2.763   2.269
  131OSM   H15A13989   0.935   2.851   2.260
  131OSM   H15B13990   1.026   2.757   2.372
  131OSM   H15C13991   0.937   2.675   2.247
  131OSM    C1413992   1.195   2.642   2.195
  131OSM   H14A13993   1.141   2.555   2.162
  131OSM   H14B13994   1.227   2.627   2.297
  131OSM   H14C13995   1.286   2.650   2.137
  131OSM    C1313996   1.082   2.780   2.034
  131OSM   H13A13997   1.029   2.872   2.011
  131OSM   H13B13998   1.028   2.694   1.997
  131OSM   H13C13999   1.175   2.785   1.979
  131OSM    C1214000   1.204   2.887   2.220
  131OSM   H12A14001   1.262   2.858   2.307
  131OSM   H12B14002   1.142   2.969   2.253
  131OSM    C1114003   1.304   2.942   2.115
  131OSM   H11A14004   1.371   3.018   2.161
  131OSM   H11B14005   1.249   2.994   2.034
  131OSM      P14006   1.514   2.783   2.118
  131OSM    O1314007   1.550   2.664   2.038
  131OSM    O1414008   1.610   2.894   2.128
  131OSM    O1114009   1.465   2.735   2.261
  131OSM    O1214010   1.379   2.837   2.056
  131OSM    C1S14011   1.487   2.809   2.381
  131OSM    H1S14012   1.441   2.910   2.375
  131OSM    H1T14013   1.596   2.823   2.400
  131OSM     NF14014   1.418   2.815   2.621
  131OSM    HNF14015   1.483   2.794   2.694
  131OSM    C2S14016   1.425   2.732   2.502
  131OSM    H2S14017   1.321   2.704   2.475
  131OSM    C3S14018   1.505   2.601   2.527
  131OSM    H3S14019   1.613   2.627   2.539
  131OSM     O314020   1.496   2.511   2.417
  131OSM    HO314021   1.486   2.569   2.341
  131OSM    C4S14022   1.454   2.534   2.652
  131OSM    H4S14023   1.363   2.473   2.639
  131OSM    C5S14024   1.514   2.543   2.772
  131OSM    H5S14025   1.608   2.600   2.780
  131OSM    C6S14026   1.469   2.480   2.901
  131OSM    H6S14027   1.536   2.395   2.925
  131OSM    H6T14028   1.366   2.439   2.891
  131OSM    C7S14029   1.471   2.580   3.020
  131OSM    H7S14030   1.394   2.658   3.004
  131OSM    H7T14031   1.570   2.631   3.024
  131OSM    C8S14032   1.446   2.510   3.155
  131OSM    H8S14033   1.497   2.412   3.155
  131OSM    H8T14034   1.337   2.493   3.165
  131OSM    C9S14035   1.498   2.583   3.280
  131OSM    H9S14036   1.490   2.693   3.267
  131OSM    H9T14037   1.605   2.559   3.293
  131OSM   C10S14038   1.420   2.541   3.406
  131OSM   H10S14039   1.401   2.432   3.403
  131OSM   H10T14040   1.320   2.591   3.404
  131OSM   C11S14041   1.493   2.574   3.536
  131OSM   H11S14042   1.537   2.676   3.528
  131OSM   H11T14043   1.580   2.507   3.546
  131OSM   C12S14044   1.404   2.563   3.662
  131OSM   H12S14045   1.380   2.456   3.680
  131OSM   H12T14046   1.308   2.617   3.646
  131OSM   C13S14047   1.472   2.622   3.787
  131OSM   H13S14048   1.485   2.732   3.773
  131OSM   H13T14049   1.572   2.575   3.791
  131OSM   C14S14050   1.408   2.597   3.925
  131OSM   H14S14051   1.465   2.654   4.000
  131OSM   H14T14052   1.421   2.489   3.949
  131OSM   C15S14053   1.259   2.630   3.942
  131OSM   H15S14054   1.231   2.608   4.047
  131OSM   H15T14055   1.202   2.561   3.876
  131OSM   C16S14056   1.213   2.772   3.906
  131OSM   H16S14057   1.221   2.784   3.796
  131OSM   H16T14058   1.280   2.847   3.954
  131OSM   C17S14059   1.066   2.798   3.947
  131OSM   H17S14060   1.002   2.713   3.918
  131OSM   H17T14061   1.027   2.883   3.888
  131OSM   C18S14062   1.045   2.826   4.096
  131OSM   H18S14063   1.067   2.736   4.157
  131OSM   H18T14064   0.940   2.857   4.115
  131OSM   H18U14065   1.112   2.908   4.131
  131OSM    C1F14066   1.326   2.908   2.642
  131OSM     OF14067   1.250   2.943   2.552
  131OSM    C2F14068   1.327   2.968   2.780
  131OSM    H2F14069   1.319   3.078   2.773
  131OSM    H2G14070   1.425   2.943   2.827
  131OSM    C3F14071   1.217   2.917   2.876
  131OSM    H3F14072   1.194   2.810   2.860
  131OSM    H3G14073   1.126   2.977   2.854
  131OSM    C4F14074   1.257   2.939   3.023
  131OSM    H4F14075   1.321   3.029   3.030
  131OSM    H4G14076   1.317   2.852   3.058
  131OSM    C5F14077   1.136   2.959   3.115
  131OSM    H5F14078   1.066   2.874   3.105
  131OSM    H5G14079   1.084   3.052   3.083
  131OSM    C6F14080   1.173   2.977   3.264
  131OSM    H6F14081   1.078   2.999   3.318
  131OSM    H6G14082   1.240   3.064   3.278
  131OSM    C7F14083   1.238   2.853   3.326
  131OSM    H7F14084   1.345   2.846   3.296
  131OSM    H7G14085   1.187   2.764   3.283
  131OSM    C8F14086   1.220   2.847   3.479
  131OSM    H8F14087   1.196   2.743   3.506
  131OSM    H8G14088   1.131   2.907   3.505
  131OSM    C9F14089   1.334   2.889   3.566
  131OSM    H9F14090   1.420   2.821   3.568
  131OSM   C10F14091   1.342   3.001   3.638
  131OSM   H10F14092   1.433   3.015   3.699
  131OSM   C11F14093   1.240   3.110   3.643
  131OSM   H11F14094   1.189   3.117   3.545
  131OSM   H11G14095   1.298   3.204   3.653
  131OSM   C12F14096   1.127   3.123   3.748
  131OSM   H12F14097   1.056   3.039   3.735
  131OSM   H12G14098   1.071   3.215   3.722
  131OSM   C13F14099   1.163   3.135   3.898
  131OSM   H13F14100   1.142   3.035   3.943
  131OSM   H13G14101   1.094   3.206   3.948
  131OSM   C14F14102   1.307   3.164   3.941
  131OSM   H14F14103   1.334   3.271   3.924
  131OSM   H14G14104   1.376   3.099   3.883
  131OSM   C15F14105   1.328   3.123   4.087
  131OSM   H15F14106   1.290   3.019   4.096
  131OSM   H15G14107   1.269   3.187   4.155
  131OSM   C16F14108   1.475   3.118   4.131
  131OSM   H16F14109   1.506   3.219   4.166
  131OSM   H16G14110   1.540   3.091   4.045
  131OSM   C17F14111   1.497   3.014   4.242
  131OSM   H17F14112   1.598   3.029   4.286
  131OSM   H17G14113   1.497   2.912   4.197
  131OSM   C18F14114   1.391   3.017   4.353
  131OSM   H18F14115   1.293   2.980   4.316
  131OSM   H18G14116   1.377   3.121   4.390
  131OSM   H18H14117   1.422   2.953   4.438
  132OSM      N14118   1.083   3.411   2.151
  132OSM    C1514119   1.080   3.287   2.233
  132OSM   H15A14120   0.994   3.227   2.205
  132OSM   H15B14121   1.066   3.311   2.338
  132OSM   H15C14122   1.170   3.229   2.221
  132OSM    C1414123   1.099   3.377   2.006
  132OSM   H14A14124   1.015   3.319   1.971
  132OSM   H14B14125   1.191   3.324   1.988
  132OSM   H14C14126   1.103   3.468   1.949
  132OSM    C1314127   0.950   3.479   2.169
  132OSM   H13A14128   0.869   3.421   2.128
  132OSM   H13B14129   0.952   3.576   2.122
  132OSM   H13C14130   0.929   3.497   2.274
  132OSM    C1214131   1.197   3.505   2.191
  132OSM   H12A14132   1.292   3.455   2.178
  132OSM   H12B14133   1.189   3.530   2.296
  132OSM    C1114134   1.208   3.642   2.119
  132OSM   H11A14135   1.226   3.626   2.011
  132OSM   H11B14136   1.296   3.695   2.162
  132OSM      P14137   1.078   3.872   2.130
  132OSM    O1314138   1.199   3.921   2.058
  132OSM    O1414139   0.947   3.898   2.063
  132OSM    O1114140   1.077   3.917   2.283
  132OSM    O1214141   1.088   3.716   2.140
  132OSM    C1S14142   1.201   3.940   2.353
  132OSM    H1S14143   1.226   4.048   2.347
  132OSM    H1T14144   1.285   3.885   2.308
  132OSM     NF14145   1.141   3.765   2.522
  132OSM    HNF14146   1.044   3.763   2.544
  132OSM    C2S14147   1.201   3.896   2.505
  132OSM    H2S14148   1.308   3.891   2.536
  132OSM    C3S14149   1.132   3.998   2.601
  132OSM    H3S14150   1.025   4.011   2.573
  132OSM     O314151   1.193   4.127   2.599
  132OSM    HO314152   1.236   4.136   2.513
  132OSM    C4S14153   1.142   3.947   2.744
  132OSM    H4S14154   1.230   3.984   2.800
  132OSM    C5S14155   1.053   3.866   2.804
  132OSM    H5S14156   0.965   3.835   2.746
  132OSM    C6S14157   1.054   3.810   2.945
  132OSM    H6S14158   1.081   3.702   2.941
  132OSM    H6T14159   0.949   3.814   2.981
  132OSM    C7S14160   1.142   3.874   3.054
  132OSM    H7S14161   1.126   3.984   3.057
  132OSM    H7T14162   1.249   3.860   3.026
  132OSM    C8S14163   1.120   3.818   3.197
  132OSM    H8S14164   1.167   3.889   3.269
  132OSM    H8T14165   1.173   3.721   3.206
  132OSM    C9S14166   0.973   3.797   3.235
  132OSM    H9S14167   0.936   3.709   3.178
  132OSM    H9T14168   0.915   3.886   3.200
  132OSM   C10S14169   0.942   3.777   3.384
  132OSM   H10S14170   0.849   3.833   3.410
  132OSM   H10T14171   1.025   3.817   3.445
  132OSM   C11S14172   0.919   3.629   3.415
  132OSM   H11S14173   1.011   3.579   3.380
  132OSM   H11T14174   0.835   3.588   3.354
  132OSM   C12S14175   0.896   3.596   3.564
  132OSM   H12S14176   0.949   3.670   3.628
  132OSM   H12T14177   0.942   3.497   3.583
  132OSM   C13S14178   0.749   3.584   3.605
  132OSM   H13S14179   0.693   3.535   3.523
  132OSM   H13T14180   0.706   3.685   3.620
  132OSM   C14S14181   0.730   3.499   3.732
  132OSM   H14S14182   0.770   3.396   3.714
  132OSM   H14T14183   0.621   3.489   3.752
  132OSM   C15S14184   0.799   3.557   3.857
  132OSM   H15S14185   0.768   3.664   3.867
  132OSM   H15T14186   0.909   3.555   3.843
  132OSM   C16S14187   0.763   3.483   3.986
  132OSM   H16S14188   0.805   3.380   3.985
  132OSM   H16T14189   0.652   3.473   3.991
  132OSM   C17S14190   0.810   3.558   4.112
  132OSM   H17S14191   0.777   3.664   4.104
  132OSM   H17T14192   0.921   3.557   4.114
  132OSM   C18S14193   0.760   3.500   4.244
  132OSM   H18S14194   0.650   3.486   4.240
  132OSM   H18T14195   0.781   3.570   4.328
  132OSM   H18U14196   0.807   3.402   4.265
  132OSM    C1F14197   1.206   3.652   2.499
  132OSM     OF14198   1.307   3.649   2.432
  132OSM    C2F14199   1.154   3.526   2.561
  132OSM    H2F14200   1.231   3.495   2.635
  132OSM    H2G14201   1.148   3.447   2.483
  132OSM    C3F14202   1.020   3.533   2.638
  132OSM    H3F14203   0.942   3.584   2.577
  132OSM    H3G14204   1.034   3.592   2.731
  132OSM    C4F14205   0.967   3.393   2.675
  132OSM    H4F14206   0.928   3.344   2.583
  132OSM    H4G14207   0.882   3.404   2.746
  132OSM    C5F14208   1.069   3.298   2.740
  132OSM    H5F14209   1.150   3.276   2.667
  132OSM    H5G14210   1.019   3.201   2.763
  132OSM    C6F14211   1.135   3.351   2.869
  132OSM    H6F14212   1.185   3.448   2.849
  132OSM    H6G14213   1.214   3.278   2.895
  132OSM    C7F14214   1.040   3.371   2.987
  132OSM    H7F14215   0.987   3.276   3.009
  132OSM    H7G14216   0.966   3.448   2.958
  132OSM    C8F14217   1.112   3.418   3.114
  132OSM    H8F14218   1.037   3.430   3.195
  132OSM    H8G14219   1.156   3.518   3.095
  132OSM    C9F14220   1.219   3.321   3.157
  132OSM    H9F14221   1.229   3.230   3.096
  132OSM   C10F14222   1.298   3.338   3.263
  132OSM   H10F14223   1.373   3.261   3.288
  132OSM   C11F14224   1.291   3.456   3.354
  132OSM   H11F14225   1.255   3.548   3.304
  132OSM   H11G14226   1.394   3.478   3.391
  132OSM   C12F14227   1.204   3.427   3.477
  132OSM   H12F14228   1.239   3.330   3.518
  132OSM   H12G14229   1.097   3.411   3.450
  132OSM   C13F14230   1.223   3.533   3.585
  132OSM   H13F14231   1.162   3.624   3.566
  132OSM   H13G14232   1.329   3.566   3.578
  132OSM   C14F14233   1.204   3.480   3.728
  132OSM   H14F14234   1.243   3.376   3.733
  132OSM   H14G14235   1.097   3.476   3.756
  132OSM   C15F14236   1.287   3.560   3.828
  132OSM   H15F14237   1.385   3.580   3.780
  132OSM   H15G14238   1.306   3.499   3.919
  132OSM   C16F14239   1.221   3.692   3.867
  132OSM   H16F14240   1.156   3.727   3.785
  132OSM   H16G14241   1.299   3.769   3.884
  132OSM   C17F14242   1.141   3.673   3.995
  132OSM   H17F14243   1.208   3.644   4.079
  132OSM   H17G14244   1.071   3.588   3.979
  132OSM   C18F14245   1.063   3.799   4.033
  132OSM   H18F14246   1.000   3.781   4.122
  132OSM   H18G14247   0.998   3.831   3.949
  132OSM   H18H14248   1.134   3.881   4.056
  133OSM      N14249   6.340   3.521   2.011
  133OSM    C1514250   6.466   3.580   2.067
  133OSM   H15A14251   6.452   3.681   2.101
  133OSM   H15B14252   6.548   3.579   1.997
  133OSM   H15C14253   6.496   3.524   2.155
  133OSM    C1414254   6.296   3.598   1.892
  133OSM   H14A14255   6.205   3.556   1.851
  133OSM   H14B14256   6.371   3.597   1.814
  133OSM   H14C14257   6.279   3.701   1.918
  133OSM    C1314258   6.364   3.379   1.973
  133OSM   H13A14259   6.387   3.323   2.062
  133OSM   H13B14260   6.446   3.368   1.903
  133OSM   H13C14261   6.275   3.333   1.931
  133OSM    C1214262   6.232   3.530   2.119
  133OSM   H12A14263   6.145   3.475   2.087
  133OSM   H12B14264   6.203   3.633   2.133
  133OSM    C1114265   6.268   3.472   2.257
  133OSM   H11A14266   6.182   3.488   2.326
  133OSM   H11B14267   6.353   3.527   2.302
  133OSM      P14268   6.188   3.227   2.233
  133OSM    O1314269   6.069   3.288   2.171
  133OSM    O1414270   6.242   3.109   2.162
  133OSM    O1114271   6.164   3.197   2.387
  133OSM    O1214272   6.303   3.335   2.244
  133OSM    C1S14273   6.277   3.195   2.479
  133OSM    H1S14274   6.375   3.185   2.428
  133OSM    H1T14275   6.269   3.107   2.545
  133OSM     NF14276   6.380   3.288   2.683
  133OSM    HNF14277   6.337   3.269   2.771
  133OSM    C2S14278   6.288   3.319   2.575
  133OSM    H2S14279   6.329   3.404   2.517
  133OSM    C3S14280   6.150   3.361   2.632
  133OSM    H3S14281   6.107   3.278   2.693
  133OSM     O314282   6.054   3.391   2.532
  133OSM    HO314283   6.081   3.337   2.457
  133OSM    C4S14284   6.157   3.486   2.716
  133OSM    H4S14285   6.175   3.578   2.658
  133OSM    C5S14286   6.140   3.495   2.849
  133OSM    H5S14287   6.118   3.406   2.909
  133OSM    C6S14288   6.146   3.626   2.924
  133OSM    H6S14289   6.069   3.630   3.004
  133OSM    H6T14290   6.123   3.711   2.856
  133OSM    C7S14291   6.283   3.655   2.987
  133OSM    H7S14292   6.286   3.760   3.022
  133OSM    H7T14293   6.359   3.643   2.906
  133OSM    C8S14294   6.320   3.562   3.103
  133OSM    H8S14295   6.426   3.580   3.128
  133OSM    H8T14296   6.309   3.457   3.071
  133OSM    C9S14297   6.237   3.586   3.230
  133OSM    H9S14298   6.128   3.584   3.209
  133OSM    H9T14299   6.262   3.686   3.271
  133OSM   C10S14300   6.270   3.477   3.333
  133OSM   H10S14301   6.379   3.456   3.328
  133OSM   H10T14302   6.218   3.384   3.302
  133OSM   C11S14303   6.236   3.513   3.478
  133OSM   H11S14304   6.263   3.619   3.498
  133OSM   H11T14305   6.301   3.450   3.542
  133OSM   C12S14306   6.091   3.486   3.518
  133OSM   H12S14307   6.055   3.395   3.466
  133OSM   H12T14308   6.026   3.571   3.487
  133OSM   C13S14309   6.079   3.462   3.670
  133OSM   H13S14310   6.143   3.374   3.694
  133OSM   H13T14311   5.975   3.436   3.696
  133OSM   C14S14312   6.125   3.583   3.753
  133OSM   H14S14313   6.053   3.666   3.738
  133OSM   H14T14314   6.224   3.618   3.717
  133OSM   C15S14315   6.138   3.553   3.903
  133OSM   H15S14316   6.039   3.522   3.942
  133OSM   H15T14317   6.167   3.646   3.955
  133OSM   C16S14318   6.241   3.444   3.938
  133OSM   H16S14319   6.206   3.345   3.899
  133OSM   H16T14320   6.243   3.437   4.049
  133OSM   C17S14321   6.384   3.471   3.889
  133OSM   H17S14322   6.402   3.580   3.894
  133OSM   H17T14323   6.391   3.441   3.782
  133OSM   C18S14324   6.494   3.401   3.969
  133OSM   H18S14325   6.472   3.293   3.981
  133OSM   H18T14326   6.504   3.442   4.072
  133OSM   H18U14327   6.593   3.413   3.919
  133OSM    C1F14328   6.509   3.259   2.670
  133OSM     OF14329   6.571   3.273   2.565
  133OSM    C2F14330   6.574   3.205   2.794
  133OSM    H2F14331   6.617   3.289   2.852
  133OSM    H2G14332   6.656   3.137   2.762
  133OSM    C3F14333   6.473   3.126   2.883
  133OSM    H3F14334   6.430   3.045   2.820
  133OSM    H3G14335   6.389   3.190   2.918
  133OSM    C4F14336   6.536   3.062   3.007
  133OSM    H4F14337   6.642   3.033   2.986
  133OSM    H4G14338   6.480   2.968   3.029
  133OSM    C5F14339   6.529   3.149   3.133
  133OSM    H5F14340   6.423   3.178   3.151
  133OSM    H5G14341   6.587   3.242   3.118
  133OSM    C6F14342   6.581   3.072   3.254
  133OSM    H6F14343   6.689   3.051   3.239
  133OSM    H6G14344   6.526   2.976   3.261
  133OSM    C7F14345   6.561   3.145   3.387
  133OSM    H7F14346   6.453   3.143   3.415
  133OSM    H7G14347   6.590   3.251   3.373
  133OSM    C8F14348   6.645   3.082   3.500
  133OSM    H8F14349   6.751   3.076   3.466
  133OSM    H8G14350   6.611   2.977   3.515
  133OSM    C9F14351   6.635   3.163   3.626
  133OSM    H9F14352   6.704   3.249   3.634
  133OSM   C10F14353   6.548   3.139   3.725
  133OSM   H10F14354   6.548   3.204   3.814
  133OSM   C11F14355   6.444   3.030   3.725
  133OSM   H11F14356   6.486   2.936   3.766
  133OSM   H11G14357   6.413   3.007   3.621
  133OSM   C12F14358   6.316   3.068   3.801
  133OSM   H12F14359   6.242   2.989   3.774
  133OSM   H12G14360   6.277   3.165   3.764
  133OSM   C13F14361   6.320   3.072   3.955
  133OSM   H13F14362   6.260   3.160   3.987
  133OSM   H13G14363   6.423   3.088   3.992
  133OSM   C14F14364   6.254   2.949   4.020
  133OSM   H14F14365   6.315   2.858   4.006
  133OSM   H14G14366   6.158   2.933   3.967
  133OSM   C15F14367   6.217   2.970   4.168
  133OSM   H15F14368   6.120   2.921   4.191
  133OSM   H15G14369   6.203   3.080   4.180
  133OSM   C16F14370   6.323   2.920   4.267
  133OSM   H16F14371   6.415   2.979   4.249
  133OSM   H16G14372   6.342   2.814   4.241
  133OSM   C17F14373   6.287   2.923   4.417
  133OSM   H17F14374   6.296   2.820   4.456
  133OSM   H17G14375   6.181   2.953   4.429
  133OSM   C18F14376   6.377   3.011   4.503
  133OSM   H18F14377   6.380   2.973   4.608
  133OSM   H18G14378   6.341   3.116   4.506
  133OSM   H18H14379   6.481   3.013   4.463
  134OSM      N14380   5.277   5.634   2.118
  134OSM    C1514381   5.284   5.488   2.081
  134OSM   H15A14382   5.226   5.467   1.992
  134OSM   H15B14383   5.247   5.426   2.161
  134OSM   H15C14384   5.386   5.460   2.064
  134OSM    C1414385   5.324   5.715   2.002
  134OSM   H14A14386   5.262   5.699   1.915
  134OSM   H14B14387   5.426   5.686   1.979
  134OSM   H14C14388   5.325   5.820   2.025
  134OSM    C1314389   5.135   5.668   2.151
  134OSM   H13A14390   5.124   5.772   2.176
  134OSM   H13B14391   5.099   5.609   2.235
  134OSM   H13C14392   5.069   5.648   2.068
  134OSM    C1214393   5.371   5.660   2.235
  134OSM   H12A14394   5.357   5.585   2.311
  134OSM   H12B14395   5.343   5.752   2.284
  134OSM    C1114396   5.523   5.668   2.202
  134OSM   H11A14397   5.582   5.664   2.296
  134OSM   H11B14398   5.544   5.768   2.158
  134OSM      P14399   5.649   5.442   2.144
  134OSM    O1314400   5.580   5.327   2.083
  134OSM    O1414401   5.788   5.465   2.098
  134OSM    O1114402   5.648   5.428   2.302
  134OSM    O1214403   5.565   5.569   2.109
  134OSM    C1S14404   5.534   5.371   2.369
  134OSM    H1S14405   5.516   5.267   2.335
  134OSM    H1T14406   5.442   5.429   2.344
  134OSM     NF14407   5.596   5.503   2.571
  134OSM    HNF14408   5.690   5.511   2.602
  134OSM    C2S14409   5.547   5.372   2.526
  134OSM    H2S14410   5.447   5.354   2.570
  134OSM    C3S14411   5.638   5.252   2.566
  134OSM    H3S14412   5.733   5.254   2.507
  134OSM     O314413   5.575   5.128   2.534
  134OSM    HO314414   5.598   5.111   2.442
  134OSM    C4S14415   5.673   5.252   2.714
  134OSM    H4S14416   5.625   5.328   2.777
  134OSM    C5S14417   5.759   5.163   2.767
  134OSM    H5S14418   5.801   5.087   2.699
  134OSM    C6S14419   5.808   5.146   2.909
  134OSM    H6S14420   5.913   5.109   2.901
  134OSM    H6T14421   5.751   5.067   2.962
  134OSM    C7S14422   5.819   5.266   3.005
  134OSM    H7S14423   5.830   5.360   2.947
  134OSM    H7T14424   5.912   5.252   3.063
  134OSM    C8S14425   5.702   5.275   3.104
  134OSM    H8S14426   5.610   5.241   3.052
  134OSM    H8T14427   5.686   5.383   3.126
  134OSM    C9S14428   5.724   5.202   3.238
  134OSM    H9S14429   5.822   5.150   3.239
  134OSM    H9T14430   5.644   5.125   3.248
  134OSM   C10S14431   5.717   5.299   3.358
  134OSM   H10S14432   5.627   5.362   3.344
  134OSM   H10T14433   5.808   5.364   3.352
  134OSM   C11S14434   5.710   5.239   3.499
  134OSM   H11S14435   5.812   5.228   3.542
  134OSM   H11T14436   5.664   5.138   3.488
  134OSM   C12S14437   5.618   5.306   3.602
  134OSM   H12S14438   5.520   5.330   3.555
  134OSM   H12T14439   5.661   5.401   3.639
  134OSM   C13S14440   5.591   5.208   3.718
  134OSM   H13S14441   5.687   5.173   3.762
  134OSM   H13T14442   5.540   5.119   3.675
  134OSM   C14S14443   5.500   5.263   3.828
  134OSM   H14S14444   5.440   5.180   3.871
  134OSM   H14T14445   5.429   5.336   3.783
  134OSM   C15S14446   5.577   5.329   3.944
  134OSM   H15S14447   5.506   5.390   4.004
  134OSM   H15T14448   5.652   5.399   3.901
  134OSM   C16S14449   5.644   5.231   4.040
  134OSM   H16S14450   5.730   5.182   3.989
  134OSM   H16T14451   5.571   5.151   4.067
  134OSM   C17S14452   5.692   5.298   4.170
  134OSM   H17S14453   5.742   5.222   4.234
  134OSM   H17T14454   5.603   5.334   4.225
  134OSM   C18S14455   5.787   5.416   4.148
  134OSM   H18S14456   5.824   5.456   4.246
  134OSM   H18T14457   5.736   5.499   4.095
  134OSM   H18U14458   5.875   5.385   4.088
  134OSM    C1F14459   5.523   5.612   2.550
  134OSM     OF14460   5.407   5.603   2.511
  134OSM    C2F14461   5.589   5.746   2.567
  134OSM    H2F14462   5.610   5.790   2.467
  134OSM    H2G14463   5.686   5.734   2.620
  134OSM    C3F14464   5.500   5.843   2.646
  134OSM    H3F14465   5.397   5.844   2.604
  134OSM    H3G14466   5.540   5.946   2.640
  134OSM    C4F14467   5.494   5.801   2.793
  134OSM    H4F14468   5.590   5.826   2.843
  134OSM    H4G14469   5.483   5.690   2.798
  134OSM    C5F14470   5.377   5.862   2.869
  134OSM    H5F14471   5.282   5.828   2.823
  134OSM    H5G14472   5.381   5.973   2.863
  134OSM    C6F14473   5.381   5.820   3.016
  134OSM    H6F14474   5.291   5.860   3.068
  134OSM    H6G14475   5.470   5.865   3.065
  134OSM    C7F14476   5.383   5.668   3.040
  134OSM    H7F14477   5.479   5.627   3.003
  134OSM    H7G14478   5.300   5.619   2.984
  134OSM    C8F14479   5.369   5.643   3.190
  134OSM    H8F14480   5.266   5.672   3.221
  134OSM    H8G14481   5.439   5.712   3.240
  134OSM    C9F14482   5.400   5.502   3.230
  134OSM    H9F14483   5.440   5.435   3.152
  134OSM   C10F14484   5.382   5.456   3.354
  134OSM   H10F14485   5.407   5.352   3.377
  134OSM   C11F14486   5.330   5.540   3.468
  134OSM   H11F14487   5.292   5.474   3.549
  134OSM   H11G14488   5.243   5.600   3.431
  134OSM   C12F14489   5.426   5.644   3.527
  134OSM   H12F14490   5.464   5.710   3.446
  134OSM   H12G14491   5.514   5.593   3.573
  134OSM   C13F14492   5.358   5.736   3.629
  134OSM   H13F14493   5.264   5.774   3.583
  134OSM   H13G14494   5.422   5.824   3.647
  134OSM   C14F14495   5.327   5.665   3.761
  134OSM   H14F14496   5.269   5.572   3.741
  134OSM   H14G14497   5.260   5.731   3.820
  134OSM   C15F14498   5.453   5.628   3.841
  134OSM   H15F14499   5.518   5.563   3.780
  134OSM   H15G14500   5.420   5.570   3.930
  134OSM   C16F14501   5.534   5.748   3.891
  134OSM   H16F14502   5.553   5.820   3.808
  134OSM   H16G14503   5.633   5.714   3.929
  134OSM   C17F14504   5.460   5.818   4.003
  134OSM   H17F14505   5.481   5.765   4.099
  134OSM   H17G14506   5.352   5.808   3.981
  134OSM   C18F14507   5.486   5.966   4.017
  134OSM   H18F14508   5.452   6.002   4.117
  134OSM   H18G14509   5.429   6.023   3.940
  134OSM   H18H14510   5.593   5.990   4.003
  135OSM      N14511   1.151   4.963   2.270
  135OSM    C1514512   1.097   4.912   2.401
  135OSM   H15A14513   1.174   4.911   2.477
  135OSM   H15B14514   1.057   4.813   2.389
  135OSM   H15C14515   1.017   4.976   2.433
  135OSM    C1414516   1.036   4.972   2.175
  135OSM   H14A14517   0.995   4.875   2.153
  135OSM   H14B14518   1.066   5.020   2.083
  135OSM   H14C14519   0.957   5.032   2.219
  135OSM    C1314520   1.202   5.103   2.292
  135OSM   H13A14521   1.125   5.167   2.333
  135OSM   H13B14522   1.236   5.144   2.198
  135OSM   H13C14523   1.289   5.104   2.357
  135OSM    C1214524   1.262   4.874   2.216
  135OSM   H12A14525   1.241   4.771   2.240
  135OSM   H12B14526   1.354   4.900   2.267
  135OSM    C1114527   1.296   4.879   2.064
  135OSM   H11A14528   1.212   4.832   2.009
  135OSM   H11B14529   1.385   4.815   2.045
  135OSM      P14530   1.451   5.090   2.035
  135OSM    O1314531   1.560   5.022   1.961
  135OSM    O1414532   1.421   5.231   2.001
  135OSM    O1114533   1.477   5.076   2.191
  135OSM    O1214534   1.316   5.011   2.015
  135OSM    C1S14535   1.584   4.992   2.236
  135OSM    H1S14536   1.681   5.037   2.205
  135OSM    H1T14537   1.580   4.891   2.190
  135OSM     NF14538   1.489   4.891   2.450
  135OSM    HNF14539   1.437   4.927   2.526
  135OSM    C2S14540   1.590   4.979   2.393
  135OSM    H2S14541   1.689   4.936   2.420
  135OSM    C3S14542   1.582   5.123   2.451
  135OSM    H3S14543   1.494   5.176   2.408
  135OSM     O314544   1.697   5.200   2.418
  135OSM    HO314545   1.733   5.162   2.338
  135OSM    C4S14546   1.569   5.123   2.601
  135OSM    H4S14547   1.652   5.075   2.655
  135OSM    C5S14548   1.470   5.184   2.669
  135OSM    H5S14549   1.395   5.242   2.613
  135OSM    C6S14550   1.454   5.187   2.819
  135OSM    H6S14551   1.462   5.292   2.854
  135OSM    H6T14552   1.533   5.129   2.872
  135OSM    C7S14553   1.315   5.133   2.859
  135OSM    H7S14554   1.315   5.022   2.854
  135OSM    H7T14555   1.239   5.171   2.788
  135OSM    C8S14556   1.268   5.180   2.998
  135OSM    H8S14557   1.162   5.151   3.009
  135OSM    H8T14558   1.272   5.291   3.003
  135OSM    C9S14559   1.345   5.122   3.118
  135OSM    H9S14560   1.446   5.168   3.124
  135OSM    H9T14561   1.358   5.012   3.104
  135OSM   C10S14562   1.266   5.148   3.247
  135OSM   H10S14563   1.169   5.095   3.240
  135OSM   H10T14564   1.244   5.256   3.254
  135OSM   C11S14565   1.336   5.105   3.377
  135OSM   H11S14566   1.424   5.170   3.393
  135OSM   H11T14567   1.371   5.000   3.369
  135OSM   C12S14568   1.240   5.118   3.496
  135OSM   H12S14569   1.174   5.028   3.497
  135OSM   H12T14570   1.174   5.206   3.481
  135OSM   C13S14571   1.309   5.132   3.633
  135OSM   H13S14572   1.409   5.083   3.630
  135OSM   H13T14573   1.247   5.081   3.709
  135OSM   C14S14574   1.323   5.280   3.674
  135OSM   H14S14575   1.220   5.323   3.683
  135OSM   H14T14576   1.374   5.336   3.592
  135OSM   C15S14577   1.399   5.306   3.806
  135OSM   H15S14578   1.386   5.413   3.834
  135OSM   H15T14579   1.507   5.291   3.787
  135OSM   C16S14580   1.359   5.216   3.924
  135OSM   H16S14581   1.426   5.238   4.009
  135OSM   H16T14582   1.377   5.110   3.896
  135OSM   C17S14583   1.214   5.233   3.971
  135OSM   H17S14584   1.193   5.155   4.047
  135OSM   H17T14585   1.145   5.214   3.886
  135OSM   C18S14586   1.183   5.370   4.031
  135OSM   H18S14587   1.079   5.374   4.069
  135OSM   H18T14588   1.197   5.450   3.955
  135OSM   H18U14589   1.252   5.391   4.116
  135OSM    C1F14590   1.479   4.760   2.421
  135OSM     OF14591   1.536   4.712   2.324
  135OSM    C2F14592   1.387   4.680   2.506
  135OSM    H2F14593   1.319   4.622   2.440
  135OSM    H2G14594   1.325   4.749   2.567
  135OSM    C3F14595   1.460   4.581   2.599
  135OSM    H3F14596   1.546   4.629   2.650
  135OSM    H3G14597   1.502   4.498   2.537
  135OSM    C4F14598   1.365   4.522   2.705
  135OSM    H4F14599   1.408   4.427   2.744
  135OSM    H4G14600   1.269   4.496   2.656
  135OSM    C5F14601   1.340   4.617   2.824
  135OSM    H5F14602   1.234   4.608   2.856
  135OSM    H5G14603   1.356   4.722   2.791
  135OSM    C6F14604   1.430   4.586   2.944
  135OSM    H6F14605   1.533   4.570   2.906
  135OSM    H6G14606   1.398   4.491   2.991
  135OSM    C7F14607   1.435   4.698   3.050
  135OSM    H7F14608   1.474   4.790   3.002
  135OSM    H7G14609   1.511   4.669   3.127
  135OSM    C8F14610   1.303   4.733   3.122
  135OSM    H8F14611   1.238   4.785   3.048
  135OSM    H8G14612   1.328   4.809   3.200
  135OSM    C9F14613   1.225   4.619   3.184
  135OSM    H9F14614   1.167   4.560   3.111
  135OSM   C10F14615   1.221   4.582   3.313
  135OSM   H10F14616   1.159   4.495   3.341
  135OSM   C11F14617   1.294   4.645   3.429
  135OSM   H11F14618   1.320   4.752   3.411
  135OSM   H11G14619   1.391   4.592   3.442
  135OSM   C12F14620   1.232   4.629   3.569
  135OSM   H12F14621   1.316   4.645   3.639
  135OSM   H12G14622   1.194   4.526   3.586
  135OSM   C13F14623   1.126   4.734   3.606
  135OSM   H13F14624   1.025   4.694   3.583
  135OSM   H13G14625   1.142   4.824   3.543
  135OSM   C14F14626   1.138   4.774   3.754
  135OSM   H14F14627   1.056   4.846   3.779
  135OSM   H14G14628   1.234   4.827   3.769
  135OSM   C15F14629   1.132   4.654   3.850
  135OSM   H15F14630   1.219   4.587   3.832
  135OSM   H15G14631   1.041   4.595   3.827
  135OSM   C16F14632   1.130   4.693   3.999
  135OSM   H16F14633   1.118   4.600   4.058
  135OSM   H16G14634   1.041   4.757   4.018
  135OSM   C17F14635   1.256   4.765   4.049
  135OSM   H17F14636   1.244   4.783   4.158
  135OSM   H17G14637   1.264   4.865   4.001
  135OSM   C18F14638   1.386   4.687   4.027
  135OSM   H18F14639   1.372   4.580   4.051
  135OSM   H18G14640   1.467   4.727   4.092
  135OSM   H18H14641   1.419   4.695   3.921
  136OSM      N14642   3.179   0.786   2.247
  136OSM    C1514643   3.073   0.685   2.280
  136OSM   H15A14644   3.003   0.672   2.199
  136OSM   H15B14645   3.016   0.716   2.366
  136OSM   H15C14646   3.116   0.590   2.306
  136OSM    C1414647   3.112   0.918   2.225
  136OSM   H14A14648   3.067   0.955   2.317
  136OSM   H14B14649   3.036   0.909   2.149
  136OSM   H14C14650   3.185   0.988   2.190
  136OSM    C1314651   3.277   0.797   2.359
  136OSM   H13A14652   3.228   0.824   2.452
  136OSM   H13B14653   3.350   0.873   2.334
  136OSM   H13C14654   3.329   0.704   2.374
  136OSM    C1214655   3.252   0.750   2.118
  136OSM   H12A14656   3.183   0.760   2.036
  136OSM   H12B14657   3.281   0.646   2.120
  136OSM    C1114658   3.380   0.833   2.083
  136OSM   H11A14659   3.404   0.812   1.976
  136OSM   H11B14660   3.464   0.795   2.144
  136OSM      P14661   3.453   1.083   2.042
  136OSM    O1314662   3.556   1.021   1.956
  136OSM    O1414663   3.366   1.185   1.980
  136OSM    O1114664   3.523   1.144   2.171
  136OSM    O1214665   3.361   0.972   2.106
  136OSM    C1S14666   3.589   1.061   2.267
  136OSM    H1S14667   3.698   1.062   2.246
  136OSM    H1T14668   3.555   0.955   2.263
  136OSM     NF14669   3.605   1.006   2.512
  136OSM    HNF14670   3.538   0.988   2.584
  136OSM    C2S14671   3.568   1.108   2.415
  136OSM    H2S14672   3.633   1.197   2.432
  136OSM    C3S14673   3.421   1.153   2.437
  136OSM    H3S14674   3.353   1.076   2.394
  136OSM     O314675   3.393   1.275   2.371
  136OSM    HO314676   3.451   1.276   2.295
  136OSM    C4S14677   3.388   1.170   2.585
  136OSM    H4S14678   3.442   1.251   2.636
  136OSM    C5S14679   3.295   1.096   2.650
  136OSM    H5S14680   3.240   1.021   2.591
  136OSM    C6S14681   3.249   1.100   2.795
  136OSM    H6S14682   3.246   0.995   2.833
  136OSM    H6T14683   3.144   1.135   2.795
  136OSM    C7S14684   3.320   1.182   2.905
  136OSM    H7S14685   3.328   1.288   2.873
  136OSM    H7T14686   3.423   1.143   2.920
  136OSM    C8S14687   3.243   1.176   3.040
  136OSM    H8S14688   3.232   1.070   3.071
  136OSM    H8T14689   3.141   1.216   3.022
  136OSM    C9S14690   3.307   1.256   3.155
  136OSM    H9S14691   3.325   1.359   3.117
  136OSM    H9T14692   3.406   1.212   3.180
  136OSM   C10S14693   3.221   1.268   3.284
  136OSM   H10S14694   3.117   1.294   3.257
  136OSM   H10T14695   3.261   1.353   3.343
  136OSM   C11S14696   3.222   1.143   3.374
  136OSM   H11S14697   3.322   1.095   3.365
  136OSM   H11T14698   3.149   1.071   3.330
  136OSM   C12S14699   3.190   1.163   3.525
  136OSM   H12S14700   3.117   1.086   3.558
  136OSM   H12T14701   3.140   1.261   3.538
  136OSM   C13S14702   3.313   1.156   3.618
  136OSM   H13S14703   3.329   1.259   3.658
  136OSM   H13T14704   3.402   1.128   3.557
  136OSM   C14S14705   3.318   1.064   3.741
  136OSM   H14S14706   3.321   0.958   3.709
  136OSM   H14T14707   3.230   1.080   3.806
  136OSM   C15S14708   3.449   1.091   3.818
  136OSM   H15S14709   3.456   1.200   3.839
  136OSM   H15T14710   3.535   1.065   3.752
  136OSM   C16S14711   3.466   1.017   3.951
  136OSM   H16S14712   3.566   1.042   3.991
  136OSM   H16T14713   3.463   0.907   3.936
  136OSM   C17S14714   3.363   1.059   4.057
  136OSM   H17S14715   3.267   1.007   4.037
  136OSM   H17T14716   3.345   1.168   4.047
  136OSM   C18S14717   3.410   1.031   4.199
  136OSM   H18S14718   3.499   1.092   4.224
  136OSM   H18T14719   3.438   0.924   4.212
  136OSM   H18U14720   3.329   1.054   4.271
  136OSM    C1F14721   3.726   0.953   2.524
  136OSM     OF14722   3.803   0.945   2.430
  136OSM    C2F14723   3.758   0.901   2.660
  136OSM    H2F14724   3.859   0.855   2.660
  136OSM    H2G14725   3.684   0.822   2.686
  136OSM    C3F14726   3.753   1.014   2.767
  136OSM    H3F14727   3.658   1.072   2.762
  136OSM    H3G14728   3.835   1.085   2.746
  136OSM    C4F14729   3.767   0.958   2.909
  136OSM    H4F14730   3.806   1.035   2.978
  136OSM    H4G14731   3.840   0.874   2.907
  136OSM    C5F14732   3.632   0.909   2.963
  136OSM    H5F14733   3.566   0.880   2.878
  136OSM    H5G14734   3.582   0.992   3.017
  136OSM    C6F14735   3.645   0.786   3.053
  136OSM    H6F14736   3.702   0.812   3.145
  136OSM    H6G14737   3.703   0.709   2.999
  136OSM    C7F14738   3.508   0.725   3.090
  136OSM    H7F14739   3.523   0.628   3.142
  136OSM    H7G14740   3.455   0.701   2.995
  136OSM    C8F14741   3.418   0.816   3.175
  136OSM    H8F14742   3.317   0.769   3.172
  136OSM    H8G14743   3.409   0.915   3.127
  136OSM    C9F14744   3.468   0.830   3.317
  136OSM    H9F14745   3.578   0.836   3.327
  136OSM   C10F14746   3.392   0.833   3.428
  136OSM   H10F14747   3.441   0.846   3.526
  136OSM   C11F14748   3.242   0.824   3.432
  136OSM   H11F14749   3.200   0.827   3.329
  136OSM   H11G14750   3.203   0.916   3.481
  136OSM   C12F14751   3.175   0.710   3.511
  136OSM   H12F14752   3.219   0.611   3.487
  136OSM   H12G14753   3.068   0.709   3.480
  136OSM   C13F14754   3.176   0.739   3.661
  136OSM   H13F14755   3.157   0.848   3.673
  136OSM   H13G14756   3.276   0.716   3.703
  136OSM   C14F14757   3.064   0.674   3.741
  136OSM   H14F14758   3.078   0.564   3.743
  136OSM   H14G14759   2.966   0.695   3.693
  136OSM   C15F14760   3.063   0.730   3.883
  136OSM   H15F14761   2.979   0.685   3.941
  136OSM   H15G14762   3.044   0.840   3.881
  136OSM   C16F14763   3.196   0.703   3.954
  136OSM   H16F14764   3.273   0.774   3.917
  136OSM   H16G14765   3.230   0.601   3.928
  136OSM   C17F14766   3.187   0.714   4.106
  136OSM   H17F14767   3.105   0.648   4.140
  136OSM   H17G14768   3.161   0.818   4.134
  136OSM   C18F14769   3.318   0.673   4.172
  136OSM   H18F14770   3.402   0.731   4.129
  136OSM   H18G14771   3.339   0.565   4.155
  136OSM   H18H14772   3.314   0.692   4.282
  137OSM      N14773   0.676   4.388   2.065
  137OSM    C1514774   0.574   4.298   2.002
  137OSM   H15A14775   0.599   4.196   2.023
  137OSM   H15B14776   0.572   4.312   1.895
  137OSM   H15C14777   0.476   4.319   2.042
  137OSM    C1414778   0.640   4.531   2.046
  137OSM   H14A14779   0.543   4.552   2.088
  137OSM   H14B14780   0.640   4.558   1.941
  137OSM   H14C14781   0.713   4.593   2.096
  137OSM    C1314782   0.680   4.360   2.212
  137OSM   H13A14783   0.583   4.370   2.259
  137OSM   H13B14784   0.749   4.426   2.262
  137OSM   H13C14785   0.720   4.261   2.229
  137OSM    C1214786   0.814   4.362   2.005
  137OSM   H12A14787   0.879   4.445   2.029
  137OSM   H12B14788   0.807   4.359   1.897
  137OSM    C1114789   0.893   4.237   2.051
  137OSM   H11A14790   0.979   4.219   1.983
  137OSM   H11B14791   0.828   4.147   2.047
  137OSM      P14792   1.040   4.366   2.229
  137OSM    O1314793   1.170   4.306   2.264
  137OSM    O1414794   1.039   4.475   2.129
  137OSM    O1114795   0.962   4.415   2.360
  137OSM    O1214796   0.940   4.252   2.184
  137OSM    C1S14797   0.922   4.309   2.450
  137OSM    H1S14798   1.010   4.248   2.480
  137OSM    H1T14799   0.848   4.241   2.404
  137OSM     NF14800   0.838   4.242   2.665
  137OSM    HNF14801   0.823   4.156   2.617
  137OSM    C2S14802   0.860   4.360   2.583
  137OSM    H2S14803   0.937   4.425   2.630
  137OSM    C3S14804   0.731   4.445   2.561
  137OSM    H3S14805   0.652   4.379   2.518
  137OSM     O314806   0.749   4.550   2.467
  137OSM    HO314807   0.837   4.533   2.431
  137OSM    C4S14808   0.683   4.503   2.692
  137OSM    H4S14809   0.739   4.591   2.726
  137OSM    C5S14810   0.583   4.453   2.769
  137OSM    H5S14811   0.532   4.361   2.738
  137OSM    C6S14812   0.538   4.511   2.902
  137OSM    H6S14813   0.433   4.482   2.924
  137OSM    H6T14814   0.541   4.622   2.900
  137OSM    C7S14815   0.628   4.463   3.018
  137OSM    H7S14816   0.733   4.496   3.000
  137OSM    H7T14817   0.631   4.352   3.020
  137OSM    C8S14818   0.584   4.513   3.156
  137OSM    H8S14819   0.490   4.460   3.185
  137OSM    H8T14820   0.560   4.622   3.150
  137OSM    C9S14821   0.689   4.494   3.267
  137OSM    H9S14822   0.763   4.576   3.260
  137OSM    H9T14823   0.744   4.399   3.251
  137OSM   C10S14824   0.627   4.489   3.408
  137OSM   H10S14825   0.571   4.394   3.419
  137OSM   H10T14826   0.554   4.573   3.417
  137OSM   C11S14827   0.729   4.502   3.522
  137OSM   H11S14828   0.782   4.599   3.513
  137OSM   H11T14829   0.806   4.422   3.514
  137OSM   C12S14830   0.662   4.492   3.660
  137OSM   H12S14831   0.629   4.387   3.675
  137OSM   H12T14832   0.572   4.556   3.662
  137OSM   C13S14833   0.755   4.535   3.775
  137OSM   H13S14834   0.779   4.642   3.761
  137OSM   H13T14835   0.851   4.479   3.768
  137OSM   C14S14836   0.694   4.515   3.915
  137OSM   H14S14837   0.601   4.574   3.922
  137OSM   H14T14838   0.766   4.555   3.990
  137OSM   C15S14839   0.664   4.369   3.953
  137OSM   H15S14840   0.757   4.309   3.942
  137OSM   H15T14841   0.588   4.327   3.883
  137OSM   C16S14842   0.614   4.356   4.097
  137OSM   H16S14843   0.530   4.427   4.114
  137OSM   H16T14844   0.696   4.385   4.167
  137OSM   C17S14845   0.566   4.214   4.132
  137OSM   H17S14846   0.478   4.189   4.069
  137OSM   H17T14847   0.532   4.213   4.237
  137OSM   C18S14848   0.672   4.106   4.112
  137OSM   H18S14849   0.765   4.133   4.167
  137OSM   H18T14850   0.698   4.095   4.004
  137OSM   H18U14851   0.636   4.008   4.149
  137OSM    C1F14852   0.850   4.247   2.797
  137OSM     OF14853   0.899   4.345   2.851
  137OSM    C2F14854   0.794   4.130   2.873
  137OSM    H2F14855   0.797   4.041   2.807
  137OSM    H2G14856   0.689   4.151   2.901
  137OSM    C3F14857   0.876   4.099   3.000
  137OSM    H3F14858   0.983   4.093   2.970
  137OSM    H3G14859   0.844   3.999   3.037
  137OSM    C4F14860   0.865   4.199   3.116
  137OSM    H4F14861   0.758   4.217   3.140
  137OSM    H4G14862   0.910   4.296   3.085
  137OSM    C5F14863   0.937   4.149   3.242
  137OSM    H5F14864   1.018   4.080   3.209
  137OSM    H5G14865   0.866   4.091   3.304
  137OSM    C6F14866   1.006   4.259   3.324
  137OSM    H6F14867   0.930   4.325   3.370
  137OSM    H6G14868   1.067   4.320   3.254
  137OSM    C7F14869   1.101   4.201   3.431
  137OSM    H7F14870   1.151   4.284   3.485
  137OSM    H7G14871   1.180   4.143   3.379
  137OSM    C8F14872   1.033   4.106   3.533
  137OSM    H8F14873   1.113   4.052   3.586
  137OSM    H8G14874   0.975   4.029   3.478
  137OSM    C9F14875   0.943   4.176   3.631
  137OSM    H9F14876   0.836   4.181   3.603
  137OSM   C10F14877   0.984   4.234   3.745
  137OSM   H10F14878   0.909   4.281   3.811
  137OSM   C11F14879   1.125   4.241   3.795
  137OSM   H11F14880   1.153   4.347   3.815
  137OSM   H11G14881   1.195   4.204   3.717
  137OSM   C12F14882   1.154   4.159   3.922
  137OSM   H12F14883   1.263   4.167   3.944
  137OSM   H12G14884   1.132   4.052   3.902
  137OSM   C13F14885   1.076   4.205   4.046
  137OSM   H13F14886   0.969   4.183   4.032
  137OSM   H13G14887   1.086   4.315   4.057
  137OSM   C14F14888   1.126   4.137   4.175
  137OSM   H14F14889   1.170   4.213   4.243
  137OSM   H14G14890   1.208   4.067   4.148
  137OSM   C15F14891   1.016   4.059   4.248
  137OSM   H15F14892   0.958   4.002   4.173
  137OSM   H15G14893   0.947   4.132   4.296
  137OSM   C16F14894   1.071   3.962   4.354
  137OSM   H16F14895   1.113   4.020   4.438
  137OSM   H16G14896   1.155   3.904   4.310
  137OSM   C17F14897   0.966   3.862   4.406
  137OSM   H17F14898   1.003   3.821   4.503
  137OSM   H17G14899   0.960   3.777   4.335
  137OSM   C18F14900   0.824   3.916   4.425
  137OSM   H18F14901   0.777   3.936   4.326
  137OSM   H18G14902   0.825   4.011   4.482
  137OSM   H18H14903   0.760   3.843   4.479
  138OSM      N14904   6.078   1.339   2.250
  138OSM    C1514905   6.061   1.197   2.207
  138OSM   H15A14906   6.132   1.130   2.254
  138OSM   H15B14907   6.081   1.188   2.101
  138OSM   H15C14908   5.961   1.161   2.225
  138OSM    C1414909   5.967   1.416   2.189
  138OSM   H14A14910   5.980   1.416   2.082
  138OSM   H14B14911   5.970   1.521   2.217
  138OSM   H14C14912   5.870   1.373   2.211
  138OSM    C1314913   6.069   1.342   2.399
  138OSM   H13A14914   5.979   1.291   2.430
  138OSM   H13B14915   6.066   1.444   2.436
  138OSM   H13C14916   6.153   1.290   2.444
  138OSM    C1214917   6.211   1.395   2.201
  138OSM   H12A14918   6.292   1.342   2.248
  138OSM   H12B14919   6.216   1.499   2.229
  138OSM    C1114920   6.238   1.393   2.048
  138OSM   H11A14921   6.237   1.288   2.011
  138OSM   H11B14922   6.341   1.430   2.029
  138OSM      P14923   6.148   1.626   1.973
  138OSM    O1314924   6.286   1.671   1.949
  138OSM    O1414925   6.042   1.672   1.879
  138OSM    O1114926   6.106   1.663   2.123
  138OSM    O1214927   6.142   1.469   1.975
  138OSM    C1S14928   6.144   1.792   2.175
  138OSM    H1S14929   6.082   1.871   2.128
  138OSM    H1T14930   6.250   1.816   2.152
  138OSM     NF14931   6.224   1.720   2.400
  138OSM    HNF14932   6.189   1.645   2.455
  138OSM    C2S14933   6.126   1.803   2.330
  138OSM    H2S14934   6.146   1.909   2.358
  138OSM    C3S14935   5.981   1.768   2.375
  138OSM    H3S14936   5.955   1.668   2.335
  138OSM     O314937   5.882   1.859   2.328
  138OSM    HO314938   5.922   1.904   2.253
  138OSM    C4S14939   5.979   1.761   2.526
  138OSM    H4S14940   6.030   1.845   2.575
  138OSM    C5S14941   5.925   1.664   2.603
  138OSM    H5S14942   5.867   1.583   2.556
  138OSM    C6S14943   5.929   1.661   2.755
  138OSM    H6S14944   5.950   1.558   2.788
  138OSM    H6T14945   5.828   1.688   2.795
  138OSM    C7S14946   6.033   1.752   2.824
  138OSM    H7S14947   6.001   1.858   2.813
  138OSM    H7T14948   6.132   1.743   2.773
  138OSM    C8S14949   6.055   1.723   2.974
  138OSM    H8S14950   6.106   1.812   3.018
  138OSM    H8T14951   6.123   1.636   2.986
  138OSM    C9S14952   5.926   1.695   3.053
  138OSM    H9S14953   5.892   1.591   3.034
  138OSM    H9T14954   5.846   1.763   3.015
  138OSM   C10S14955   5.938   1.720   3.204
  138OSM   H10S14956   5.837   1.746   3.241
  138OSM   H10T14957   6.004   1.807   3.224
  138OSM   C11S14958   5.986   1.597   3.283
  138OSM   H11S14959   6.087   1.568   3.247
  138OSM   H11T14960   5.918   1.512   3.262
  138OSM   C12S14961   5.992   1.618   3.436
  138OSM   H12S14962   6.074   1.690   3.459
  138OSM   H12T14963   6.019   1.521   3.483
  138OSM   C13S14964   5.863   1.668   3.501
  138OSM   H13S14965   5.782   1.594   3.483
  138OSM   H13T14966   5.832   1.765   3.456
  138OSM   C14S14967   5.879   1.690   3.652
  138OSM   H14S14968   5.953   1.771   3.670
  138OSM   H14T14969   5.919   1.597   3.699
  138OSM   C15S14970   5.746   1.726   3.720
  138OSM   H15S14971   5.676   1.641   3.705
  138OSM   H15T14972   5.702   1.815   3.672
  138OSM   C16S14973   5.758   1.751   3.871
  138OSM   H16S14974   5.821   1.671   3.917
  138OSM   H16T14975   5.657   1.745   3.917
  138OSM   C17S14976   5.817   1.889   3.906
  138OSM   H17S14977   5.754   1.967   3.857
  138OSM   H17T14978   5.919   1.898   3.863
  138OSM   C18S14979   5.823   1.917   4.056
  138OSM   H18S14980   5.722   1.908   4.102
  138OSM   H18T14981   5.861   2.019   4.076
  138OSM   H18U14982   5.890   1.844   4.107
  138OSM    C1F14983   6.353   1.750   2.403
  138OSM     OF14984   6.397   1.849   2.348
  138OSM    C2F14985   6.438   1.660   2.484
  138OSM    H2F14986   6.379   1.626   2.572
  138OSM    H2G14987   6.527   1.715   2.521
  138OSM    C3F14988   6.481   1.540   2.399
  138OSM    H3F14989   6.559   1.574   2.327
  138OSM    H3G14990   6.398   1.497   2.339
  138OSM    C4F14991   6.540   1.428   2.485
  138OSM    H4F14992   6.594   1.476   2.569
  138OSM    H4G14993   6.614   1.373   2.424
  138OSM    C5F14994   6.440   1.325   2.538
  138OSM    H5F14995   6.502   1.253   2.597
  138OSM    H5G14996   6.394   1.269   2.454
  138OSM    C6F14997   6.331   1.374   2.635
  138OSM    H6F14998   6.254   1.433   2.581
  138OSM    H6G14999   6.377   1.439   2.712
  138OSM    C7F15000   6.265   1.256   2.709
  138OSM    H7F15001   6.346   1.208   2.768
  138OSM    H7G15002   6.228   1.180   2.636
  138OSM    C8F15003   6.151   1.296   2.804
  138OSM    H8F15004   6.059   1.319   2.746
  138OSM    H8G15005   6.181   1.390   2.855
  138OSM    C9F15006   6.125   1.187   2.905
  138OSM    H9F15007   6.068   1.100   2.867
  138OSM   C10F15008   6.167   1.184   3.033
  138OSM   H10F15009   6.143   1.097   3.095
  138OSM   C11F15010   6.249   1.290   3.103
  138OSM   H11F15011   6.230   1.392   3.062
  138OSM   H11G15012   6.357   1.269   3.090
  138OSM   C12F15013   6.218   1.292   3.253
  138OSM   H12F15014   6.225   1.188   3.291
  138OSM   H12G15015   6.115   1.328   3.272
  138OSM   C13F15016   6.318   1.375   3.336
  138OSM   H13F15017   6.321   1.479   3.296
  138OSM   H13G15018   6.419   1.330   3.322
  138OSM   C14F15019   6.284   1.375   3.486
  138OSM   H14F15020   6.229   1.282   3.510
  138OSM   H14G15021   6.215   1.458   3.512
  138OSM   C15F15022   6.406   1.379   3.581
  138OSM   H15F15023   6.441   1.484   3.589
  138OSM   H15G15024   6.490   1.320   3.541
  138OSM   C16F15025   6.369   1.325   3.719
  138OSM   H16F15026   6.364   1.214   3.714
  138OSM   H16G15027   6.268   1.362   3.747
  138OSM   C17F15028   6.465   1.363   3.832
  138OSM   H17F15029   6.452   1.471   3.855
  138OSM   H17G15030   6.570   1.349   3.798
  138OSM   C18F15031   6.441   1.280   3.958
  138OSM   H18F15032   6.333   1.281   3.985
  138OSM   H18G15033   6.497   1.321   4.045
  138OSM   H18H15034   6.471   1.175   3.943
  139OSM      N15035   0.201   3.713   1.988
  139OSM    C1515036   0.061   3.767   1.996
  139OSM   H15A15037   0.046   3.850   1.928
  139OSM   H15B15038   0.040   3.803   2.095
  139OSM   H15C15039   7.290   3.692   1.975
  139OSM    C1415040   0.212   3.602   2.089
  139OSM   H14A15041   0.141   3.523   2.073
  139OSM   H14B15042   0.199   3.643   2.188
  139OSM   H14C15043   0.312   3.560   2.093
  139OSM    C1315044   0.225   3.655   1.852
  139OSM   H13A15045   0.152   3.578   1.831
  139OSM   H13B15046   0.322   3.610   1.847
  139OSM   H13C15047   0.215   3.731   1.775
  139OSM    C1215048   0.301   3.823   2.018
  139OSM   H12A15049   0.305   3.890   1.934
  139OSM   H12B15050   0.399   3.779   2.029
  139OSM    C1115051   0.279   3.908   2.146
  139OSM   H11A15052   0.177   3.953   2.145
  139OSM   H11B15053   0.350   3.993   2.147
  139OSM      P15054   0.437   3.769   2.296
  139OSM    O1315055   0.427   3.623   2.284
  139OSM    O1415056   0.538   3.837   2.211
  139OSM    O1115057   0.446   3.813   2.448
  139OSM    O1215058   0.293   3.828   2.262
  139OSM    C1S15059   0.382   3.726   2.543
  139OSM    H1S15060   0.427   3.625   2.540
  139OSM    H1T15061   0.273   3.715   2.521
  139OSM     NF15062   0.461   3.681   2.770
  139OSM    HNF15063   0.402   3.615   2.817
  139OSM    C2S15064   0.400   3.782   2.687
  139OSM    H2S15065   0.467   3.870   2.680
  139OSM    C3S15066   0.265   3.832   2.745
  139OSM    H3S15067   0.195   3.746   2.754
  139OSM     O315068   0.201   3.928   2.661
  139OSM    HO315069   0.245   3.918   2.577
  139OSM    C4S15070   0.289   3.888   2.884
  139OSM    H4S15071   0.232   3.838   2.963
  139OSM    C5S15072   0.373   3.989   2.914
  139OSM    H5S15073   0.432   4.035   2.833
  139OSM    C6S15074   0.402   4.047   3.050
  139OSM    H6S15075   0.401   4.158   3.045
  139OSM    H6T15076   0.507   4.019   3.077
  139OSM    C7S15077   0.315   4.006   3.170
  139OSM    H7S15078   0.307   3.895   3.177
  139OSM    H7T15079   0.212   4.047   3.158
  139OSM    C8S15080   0.377   4.058   3.300
  139OSM    H8S15081   0.391   4.168   3.293
  139OSM    H8T15082   0.477   4.013   3.312
  139OSM    C9S15083   0.296   4.028   3.427
  139OSM    H9S15084   0.269   3.920   3.428
  139OSM    H9T15085   0.201   4.086   3.426
  139OSM   C10S15086   0.377   4.063   3.553
  139OSM   H10S15087   0.407   4.169   3.546
  139OSM   H10T15088   0.470   4.001   3.554
  139OSM   C11S15089   0.302   4.042   3.685
  139OSM   H11S15090   0.206   4.099   3.683
  139OSM   H11T15091   0.364   4.083   3.767
  139OSM   C12S15092   0.271   3.894   3.714
  139OSM   H12S15093   0.366   3.836   3.716
  139OSM   H12T15094   0.208   3.854   3.632
  139OSM   C13S15095   0.196   3.873   3.845
  139OSM   H13S15096   0.168   3.765   3.853
  139OSM   H13T15097   0.102   3.931   3.843
  139OSM   C14S15098   0.276   3.910   3.971
  139OSM   H14S15099   0.308   4.016   3.965
  139OSM   H14T15100   0.367   3.847   3.978
  139OSM   C15S15101   0.189   3.892   4.095
  139OSM   H15S15102   0.160   3.785   4.104
  139OSM   H15T15103   0.096   3.952   4.080
  139OSM   C16S15104   0.254   3.936   4.226
  139OSM   H16S15105   0.292   4.040   4.217
  139OSM   H16T15106   0.340   3.870   4.250
  139OSM   C17S15107   0.150   3.929   4.338
  139OSM   H17S15108   0.096   3.833   4.330
  139OSM   H17T15109   0.077   4.011   4.321
  139OSM   C18S15110   0.206   3.942   4.479
  139OSM   H18S15111   0.272   4.031   4.486
  139OSM   H18T15112   0.265   3.851   4.507
  139OSM   H18U15113   0.124   3.953   4.553
  139OSM    C1F15114   0.592   3.664   2.767
  139OSM     OF15115   0.666   3.739   2.704
  139OSM    C2F15116   0.646   3.550   2.845
  139OSM    H2F15117   0.701   3.483   2.776
  139OSM    H2G15118   0.563   3.492   2.891
  139OSM    C3F15119   0.740   3.606   2.954
  139OSM    H3F15120   0.823   3.661   2.905
  139OSM    H3G15121   0.784   3.521   3.010
  139OSM    C4F15122   0.670   3.698   3.056
  139OSM    H4F15123   0.611   3.778   3.007
  139OSM    H4G15124   0.746   3.749   3.119
  139OSM    C5F15125   0.581   3.615   3.149
  139OSM    H5F15126   0.638   3.525   3.179
  139OSM    H5G15127   0.491   3.582   3.093
  139OSM    C6F15128   0.537   3.685   3.278
  139OSM    H6F15129   0.498   3.786   3.255
  139OSM    H6G15130   0.624   3.696   3.346
  139OSM    C7F15131   0.427   3.602   3.346
  139OSM    H7F15132   0.461   3.496   3.353
  139OSM    H7G15133   0.338   3.604   3.279
  139OSM    C8F15134   0.391   3.650   3.487
  139OSM    H8F15135   0.399   3.761   3.489
  139OSM    H8G15136   0.467   3.613   3.558
  139OSM    C9F15137   0.251   3.609   3.525
  139OSM    H9F15138   0.171   3.668   3.477
  139OSM   C10F15139   0.215   3.510   3.608
  139OSM   H10F15140   0.108   3.491   3.625
  139OSM   C11F15141   0.307   3.415   3.681
  139OSM   H11F15142   0.414   3.440   3.667
  139OSM   H11G15143   0.292   3.314   3.638
  139OSM   C12F15144   0.278   3.403   3.832
  139OSM   H12F15145   0.321   3.306   3.864
  139OSM   H12G15146   0.168   3.399   3.850
  139OSM   C13F15147   0.343   3.511   3.920
  139OSM   H13F15148   0.312   3.612   3.886
  139OSM   H13G15149   0.453   3.504   3.908
  139OSM   C14F15150   0.308   3.492   4.068
  139OSM   H14F15151   0.327   3.387   4.097
  139OSM   H14G15152   0.199   3.511   4.084
  139OSM   C15F15153   0.389   3.583   4.162
  139OSM   H15F15154   0.365   3.689   4.140
  139OSM   H15G15155   0.497   3.569   4.138
  139OSM   C16F15156   0.364   3.553   4.310
  139OSM   H16F15157   0.382   3.444   4.327
  139OSM   H16G15158   0.258   3.572   4.335
  139OSM   C17F15159   0.453   3.633   4.406
  139OSM   H17F15160   0.420   3.739   4.408
  139OSM   H17G15161   0.558   3.633   4.368
  139OSM   C18F15162   0.454   3.577   4.549
  139OSM   H18F15163   0.351   3.575   4.591
  139OSM   H18G15164   0.518   3.640   4.615
  139OSM   H18H15165   0.494   3.473   4.550
  140OSM      N15166   6.729   1.795   2.072
  140OSM    C1515167   6.871   1.774   2.118
  140OSM   H15A15168   6.936   1.749   2.036
  140OSM   H15B15169   6.877   1.695   2.192
  140OSM   H15C15170   6.907   1.865   2.165
  140OSM    C1415171   6.677   1.673   2.003
  140OSM   H14A15172   6.739   1.646   1.919
  140OSM   H14B15173   6.577   1.689   1.967
  140OSM   H14C15174   6.676   1.588   2.070
  140OSM    C1315175   6.643   1.826   2.190
  140OSM   H13A15176   6.539   1.833   2.163
  140OSM   H13B15177   6.668   1.924   2.227
  140OSM   H13C15178   6.653   1.754   2.270
  140OSM    C1215179   6.723   1.915   1.978
  140OSM   H12A15180   6.620   1.934   1.952
  140OSM   H12B15181   6.773   1.891   1.885
  140OSM    C1115182   6.778   2.051   2.029
  140OSM   H11A15183   6.764   2.123   1.946
  140OSM   H11B15184   6.886   2.043   2.052
  140OSM      P15185   6.697   2.247   2.186
  140OSM    O1315186   6.814   2.316   2.128
  140OSM    O1415187   6.563   2.295   2.146
  140OSM    O1115188   6.708   2.239   2.346
  140OSM    O1215189   6.707   2.094   2.145
  140OSM    C1S15190   6.733   2.111   2.405
  140OSM    H1S15191   6.829   2.069   2.366
  140OSM    H1T15192   6.651   2.040   2.381
  140OSM     NF15193   6.785   1.986   2.613
  140OSM    HNF15194   6.725   1.945   2.681
  140OSM    C2S15195   6.743   2.115   2.561
  140OSM    H2S15196   6.819   2.191   2.589
  140OSM    C3S15197   6.606   2.158   2.621
  140OSM    H3S15198   6.526   2.096   2.575
  140OSM     O315199   6.574   2.294   2.594
  140OSM    HO315200   6.626   2.316   2.517
  140OSM    C4S15201   6.605   2.137   2.771
  140OSM    H4S15202   6.662   2.211   2.829
  140OSM    C5S15203   6.539   2.036   2.831
  140OSM    H5S15204   6.479   1.969   2.768
  140OSM    C6S15205   6.531   2.004   2.978
  140OSM    H6S15206   6.584   1.909   2.999
  140OSM    H6T15207   6.424   1.987   3.005
  140OSM    C7S15208   6.585   2.108   3.078
  140OSM    H7S15209   6.535   2.206   3.059
  140OSM    H7T15210   6.694   2.123   3.066
  140OSM    C8S15211   6.554   2.067   3.223
  140OSM    H8S15212   6.606   1.972   3.249
  140OSM    H8T15213   6.445   2.048   3.230
  140OSM    C9S15214   6.591   2.175   3.325
  140OSM    H9S15215   6.567   2.272   3.276
  140OSM    H9T15216   6.699   2.178   3.349
  140OSM   C10S15217   6.506   2.170   3.452
  140OSM   H10S15218   6.415   2.108   3.435
  140OSM   H10T15219   6.468   2.273   3.470
  140OSM   C11S15220   6.570   2.128   3.584
  140OSM   H11S15221   6.678   2.154   3.582
  140OSM   H11T15222   6.565   2.018   3.598
  140OSM   C12S15223   6.497   2.199   3.698
  140OSM   H12S15224   6.388   2.197   3.680
  140OSM   H12T15225   6.529   2.306   3.697
  140OSM   C13S15226   6.521   2.144   3.839
  140OSM   H13S15227   6.486   2.222   3.910
  140OSM   H13T15228   6.630   2.125   3.853
  140OSM   C14S15229   6.447   2.016   3.874
  140OSM   H14S15230   6.472   1.941   3.796
  140OSM   H14T15231   6.337   2.034   3.872
  140OSM   C15S15232   6.486   1.951   4.008
  140OSM   H15S15233   6.593   1.923   4.008
  140OSM   H15T15234   6.426   1.858   4.013
  140OSM   C16S15235   6.452   2.035   4.131
  140OSM   H16S15236   6.440   1.965   4.217
  140OSM   H16T15237   6.355   2.086   4.115
  140OSM   C17S15238   6.560   2.138   4.169
  140OSM   H17S15239   6.592   2.191   4.077
  140OSM   H17T15240   6.651   2.086   4.206
  140OSM   C18S15241   6.514   2.245   4.267
  140OSM   H18S15242   6.524   2.208   4.372
  140OSM   H18T15243   6.408   2.273   4.249
  140OSM   H18U15244   6.576   2.336   4.256
  140OSM    C1F15245   6.904   1.932   2.591
  140OSM     OF15246   6.988   1.986   2.520
  140OSM    C2F15247   6.929   1.801   2.657
  140OSM    H2F15248   6.949   1.726   2.577
  140OSM    H2G15249   6.840   1.769   2.714
  140OSM    C3F15250   7.052   1.808   2.750
  140OSM    H3F15251   7.139   1.844   2.691
  140OSM    H3G15252   7.075   1.705   2.784
  140OSM    C4F15253   7.035   1.897   2.874
  140OSM    H4F15254   6.991   1.995   2.845
  140OSM    H4G15255   7.136   1.917   2.915
  140OSM    C5F15256   6.952   1.832   2.985
  140OSM    H5F15257   6.996   1.733   3.010
  140OSM    H5G15258   6.847   1.817   2.952
  140OSM    C6F15259   6.954   1.916   3.113
  140OSM    H6F15260   6.906   2.014   3.093
  140OSM    H6G15261   7.060   1.934   3.141
  140OSM    C7F15262   6.884   1.850   3.232
  140OSM    H7F15263   6.935   1.754   3.255
  140OSM    H7G15264   6.779   1.828   3.204
  140OSM    C8F15265   6.889   1.940   3.357
  140OSM    H8F15266   6.852   2.041   3.328
  140OSM    H8G15267   6.996   1.953   3.386
  140OSM    C9F15268   6.805   1.883   3.468
  140OSM    H9F15269   6.701   1.862   3.440
  140OSM   C10F15270   6.843   1.857   3.594
  140OSM   H10F15271   6.770   1.813   3.663
  140OSM   C11F15272   6.979   1.879   3.656
  140OSM   H11F15273   7.046   1.936   3.589
  140OSM   H11G15274   7.029   1.781   3.675
  140OSM   C12F15275   6.967   1.956   3.789
  140OSM   H12F15276   6.918   2.054   3.770
  140OSM   H12G15277   7.070   1.978   3.826
  140OSM   C13F15278   6.891   1.882   3.901
  140OSM   H13F15279   6.784   1.868   3.874
  140OSM   H13G15280   6.894   1.947   3.991
  140OSM   C14F15281   6.952   1.746   3.938
  140OSM   H14F15282   7.062   1.752   3.924
  140OSM   H14G15283   6.914   1.668   3.869
  140OSM   C15F15284   6.930   1.705   4.084
  140OSM   H15F15285   6.959   1.598   4.096
  140OSM   H15G15286   6.822   1.714   4.107
  140OSM   C16F15287   7.014   1.787   4.183
  140OSM   H16F15288   7.024   1.891   4.146
  140OSM   H16G15289   7.116   1.744   4.191
  140OSM   C17F15290   6.952   1.793   4.322
  140OSM   H17F15291   6.846   1.823   4.306
  140OSM   H17G15292   7.001   1.872   4.383
  140OSM   C18F15293   6.954   1.661   4.398
  140OSM   H18F15294   7.036   1.660   4.473
  140OSM   H18G15295   6.966   1.575   4.329
  140OSM   H18H15296   6.859   1.649   4.453
  141OSM      N15297   0.993   6.740   2.023
  141OSM    C1515298   0.928   6.637   1.936
  141OSM   H15A15299   0.868   6.681   1.858
  141OSM   H15B15300   0.862   6.578   1.997
  141OSM   H15C15301   1.001   6.570   1.892
  141OSM    C1415302   1.083   6.668   2.118
  141OSM   H14A15303   1.130   6.734   2.189
  141OSM   H14B15304   1.160   6.613   2.066
  141OSM   H14C15305   1.026   6.596   2.175
  141OSM    C1315306   1.073   6.833   1.937
  141OSM   H13A15307   1.007   6.889   1.872
  141OSM   H13B15308   1.143   6.776   1.877
  141OSM   H13C15309   1.129   6.903   1.997
  141OSM    C1215310   0.884   6.817   2.099
  141OSM   H12A15311   0.815   6.857   2.027
  141OSM   H12B15312   0.929   6.903   2.148
  141OSM    C1115313   0.801   6.739   2.205
  141OSM   H11A15314   0.723   6.807   2.246
  141OSM   H11B15315   0.869   6.716   2.291
  141OSM      P15316   0.757   6.481   2.219
  141OSM    O1315317   0.692   6.379   2.135
  141OSM    O1415318   0.902   6.465   2.242
  141OSM    O1115319   0.683   6.503   2.357
  141OSM    O1215320   0.738   6.624   2.149
  141OSM    C1S15321   0.699   6.415   2.470
  141OSM    H1S15322   0.796   6.361   2.467
  141OSM    H1T15323   0.618   6.340   2.470
  141OSM     NF15324   0.694   6.397   2.717
  141OSM    HNF15325   0.606   6.356   2.742
  141OSM    C2S15326   0.695   6.492   2.607
  141OSM    H2S15327   0.787   6.554   2.611
  141OSM    C3S15328   0.574   6.589   2.617
  141OSM    H3S15329   0.481   6.528   2.615
  141OSM     O315330   0.566   6.681   2.509
  141OSM    HO315331   0.609   6.635   2.437
  141OSM    C4S15332   0.580   6.669   2.746
  141OSM    H4S15333   0.636   6.763   2.737
  141OSM    C5S15334   0.521   6.636   2.862
  141OSM    H5S15335   0.465   6.541   2.869
  141OSM    C6S15336   0.524   6.713   2.992
  141OSM    H6S15337   0.423   6.757   3.011
  141OSM    H6T15338   0.594   6.799   2.988
  141OSM    C7S15339   0.560   6.624   3.113
  141OSM    H7S15340   0.668   6.640   3.135
  141OSM    H7T15341   0.546   6.516   3.089
  141OSM    C8S15342   0.479   6.652   3.241
  141OSM    H8S15343   0.371   6.647   3.217
  141OSM    H8T15344   0.500   6.756   3.275
  141OSM    C9S15345   0.508   6.552   3.355
  141OSM    H9S15346   0.483   6.448   3.324
  141OSM    H9T15347   0.443   6.577   3.441
  141OSM   C10S15348   0.654   6.546   3.401
  141OSM   H10S15349   0.718   6.509   3.318
  141OSM   H10T15350   0.663   6.471   3.482
  141OSM   C11S15351   0.706   6.681   3.450
  141OSM   H11S15352   0.710   6.752   3.365
  141OSM   H11T15353   0.809   6.665   3.486
  141OSM   C12S15354   0.624   6.743   3.563
  141OSM   H12S15355   0.523   6.774   3.526
  141OSM   H12T15356   0.677   6.835   3.594
  141OSM   C13S15357   0.607   6.647   3.681
  141OSM   H13S15358   0.706   6.603   3.706
  141OSM   H13T15359   0.541   6.562   3.652
  141OSM   C14S15360   0.548   6.713   3.806
  141OSM   H14S15361   0.544   6.636   3.886
  141OSM   H14T15362   0.444   6.745   3.784
  141OSM   C15S15363   0.627   6.835   3.856
  141OSM   H15S15364   0.576   6.878   3.945
  141OSM   H15T15365   0.626   6.914   3.778
  141OSM   C16S15366   0.773   6.805   3.894
  141OSM   H16S15367   0.821   6.742   3.816
  141OSM   H16T15368   0.775   6.747   3.989
  141OSM   C17S15369   0.856   6.932   3.909
  141OSM   H17S15370   0.862   6.984   3.812
  141OSM   H17T15371   0.960   6.902   3.936
  141OSM   C18S15372   0.801   7.028   4.014
  141OSM   H18S15373   0.700   7.067   3.985
  141OSM   H18T15374   0.869   7.115   4.027
  141OSM   H18U15375   0.787   6.978   4.112
  141OSM    C1F15376   0.805   6.356   2.776
  141OSM     OF15377   0.914   6.376   2.725
  141OSM    C2F15378   0.790   6.289   2.909
  141OSM    H2F15379   0.790   6.178   2.896
  141OSM    H2G15380   0.692   6.317   2.954
  141OSM    C3F15381   0.903   6.331   3.005
  141OSM    H3F15382   1.002   6.314   2.958
  141OSM    H3G15383   0.899   6.268   3.097
  141OSM    C4F15384   0.890   6.476   3.052
  141OSM    H4F15385   0.795   6.483   3.110
  141OSM    H4G15386   0.882   6.544   2.964
  141OSM    C5F15387   1.005   6.522   3.141
  141OSM    H5F15388   1.098   6.525   3.081
  141OSM    H5G15389   1.020   6.451   3.225
  141OSM    C6F15390   0.977   6.662   3.198
  141OSM    H6F15391   0.887   6.657   3.263
  141OSM    H6G15392   0.955   6.731   3.114
  141OSM    C7F15393   1.095   6.717   3.279
  141OSM    H7F15394   1.183   6.716   3.211
  141OSM    H7G15395   1.118   6.650   3.364
  141OSM    C8F15396   1.073   6.862   3.325
  141OSM    H8F15397   1.036   6.916   3.236
  141OSM    H8G15398   1.173   6.903   3.349
  141OSM    C9F15399   0.980   6.890   3.440
  141OSM    H9F15400   0.892   6.952   3.414
  141OSM   C10F15401   0.993   6.847   3.567
  141OSM   H10F15402   0.913   6.871   3.639
  141OSM   C11F15403   1.103   6.760   3.621
  141OSM   H11F15404   1.140   6.798   3.719
  141OSM   H11G15405   1.191   6.759   3.552
  141OSM   C12F15406   1.051   6.617   3.637
  141OSM   H12F15407   0.997   6.585   3.546
  141OSM   H12G15408   0.980   6.613   3.722
  141OSM   C13F15409   1.163   6.514   3.659
  141OSM   H13F15410   1.221   6.540   3.750
  141OSM   H13G15411   1.232   6.518   3.572
  141OSM   C14F15412   1.108   6.371   3.672
  141OSM   H14F15413   1.195   6.302   3.675
  141OSM   H14G15414   1.048   6.344   3.582
  141OSM   C15F15415   1.024   6.348   3.799
  141OSM   H15F15416   1.050   6.427   3.873
  141OSM   H15G15417   1.053   6.250   3.844
  141OSM   C16F15418   0.873   6.345   3.773
  141OSM   H16F15419   0.850   6.260   3.706
  141OSM   H16G15420   0.841   6.438   3.721
  141OSM   C17F15421   0.792   6.329   3.903
  141OSM   H17F15422   0.833   6.242   3.958
  141OSM   H17G15423   0.686   6.305   3.877
  141OSM   C18F15424   0.794   6.451   3.996
  141OSM   H18F15425   0.757   6.423   4.097
  141OSM   H18G15426   0.730   6.531   3.955
  141OSM   H18H15427   0.898   6.490   4.008
  142OSM      N15428   0.492   1.051   1.924
  142OSM    C1515429   0.609   1.076   2.015
  142OSM   H15A15430   0.702   1.072   1.961
  142OSM   H15B15431   0.612   1.000   2.092
  142OSM   H15C15432   0.604   1.171   2.067
  142OSM    C1415433   0.486   1.159   1.821
  142OSM   H14A15434   0.405   1.144   1.752
  142OSM   H14B15435   0.579   1.160   1.766
  142OSM   H14C15436   0.476   1.256   1.867
  142OSM    C1315437   0.519   0.919   1.857
  142OSM   H13A15438   0.438   0.888   1.794
  142OSM   H13B15439   0.533   0.844   1.933
  142OSM   H13C15440   0.610   0.923   1.799
  142OSM    C1215441   0.362   1.041   2.003
  142OSM   H12A15442   0.279   1.046   1.934
  142OSM   H12B15443   0.356   1.126   2.069
  142OSM    C1115444   0.341   0.917   2.093
  142OSM   H11A15445   0.328   0.827   2.029
  142OSM   H11B15446   0.247   0.926   2.153
  142OSM      P15447   0.472   0.947   2.322
  142OSM    O1315448   0.414   0.847   2.413
  142OSM    O1415449   0.615   0.981   2.333
  142OSM    O1115450   0.388   1.085   2.330
  142OSM    O1215451   0.453   0.896   2.175
  142OSM    C1S15452   0.424   1.173   2.441
  142OSM    H1S15453   0.400   1.277   2.413
  142OSM    H1T15454   0.533   1.173   2.462
  142OSM     NF15455   0.395   1.025   2.639
  142OSM    HNF15456   0.343   0.943   2.617
  142OSM    C2S15457   0.350   1.148   2.578
  142OSM    H2S15458   0.378   1.232   2.646
  142OSM    C3S15459   0.196   1.149   2.563
  142OSM    H3S15460   0.165   1.066   2.496
  142OSM     O315461   0.142   1.266   2.501
  142OSM    HO315462   0.218   1.323   2.484
  142OSM    C4S15463   0.135   1.124   2.701
  142OSM    H4S15464   0.136   1.019   2.733
  142OSM    C5S15465   0.081   1.214   2.786
  142OSM    H5S15466   0.079   1.318   2.750
  142OSM    C6S15467   0.021   1.193   2.923
  142OSM    H6S15468   7.223   1.238   2.926
  142OSM    H6T15469   0.083   1.250   2.996
  142OSM    C7S15470   0.006   1.051   2.978
  142OSM    H7S15471   0.103   0.997   2.973
  142OSM    H7T15472   7.238   0.995   2.913
  142OSM    C8S15473   7.254   1.047   3.121
  142OSM    H8S15474   7.232   0.941   3.148
  142OSM    H8T15475   7.158   1.104   3.127
  142OSM    C9S15476   0.043   1.106   3.227
  142OSM    H9S15477   7.302   1.088   3.327
  142OSM    H9T15478   0.052   1.216   3.215
  142OSM   C10S15479   0.182   1.042   3.222
  142OSM   H10S15480   0.238   1.079   3.133
  142OSM   H10T15481   0.168   0.933   3.210
  142OSM   C11S15482   0.262   1.068   3.349
  142OSM   H11S15483   0.349   0.999   3.354
  142OSM   H11T15484   0.197   1.046   3.436
  142OSM   C12S15485   0.314   1.212   3.359
  142OSM   H12S15486   0.238   1.285   3.325
  142OSM   H12T15487   0.403   1.224   3.294
  142OSM   C13S15488   0.351   1.240   3.504
  142OSM   H13S15489   0.436   1.311   3.510
  142OSM   H13T15490   0.383   1.144   3.548
  142OSM   C14S15491   0.232   1.298   3.581
  142OSM   H14S15492   0.136   1.275   3.528
  142OSM   H14T15493   0.244   1.408   3.584
  142OSM   C15S15494   0.222   1.246   3.724
  142OSM   H15S15495   0.191   1.139   3.721
  142OSM   H15T15496   0.144   1.302   3.781
  142OSM   C16S15497   0.355   1.255   3.796
  142OSM   H16S15498   0.385   1.362   3.808
  142OSM   H16T15499   0.435   1.204   3.739
  142OSM   C17S15500   0.348   1.187   3.931
  142OSM   H17S15501   0.303   1.086   3.920
  142OSM   H17T15502   0.283   1.246   3.997
  142OSM   C18S15503   0.488   1.173   3.988
  142OSM   H18S15504   0.484   1.138   4.094
  142OSM   H18T15505   0.538   1.272   3.985
  142OSM   H18U15506   0.549   1.101   3.930
  142OSM    C1F15507   0.516   1.011   2.690
  142OSM     OF15508   0.595   1.105   2.692
  142OSM    C2F15509   0.547   0.877   2.746
  142OSM    H2F15510   0.629   0.831   2.687
  142OSM    H2G15511   0.458   0.812   2.740
  142OSM    C3F15512   0.590   0.893   2.893
  142OSM    H3F15513   0.683   0.954   2.895
  142OSM    H3G15514   0.615   0.793   2.935
  142OSM    C4F15515   0.486   0.961   2.984
  142OSM    H4F15516   0.408   0.887   3.013
  142OSM    H4G15517   0.434   1.043   2.930
  142OSM    C5F15518   0.550   1.025   3.108
  142OSM    H5F15519   0.470   1.066   3.174
  142OSM    H5G15520   0.612   1.110   3.074
  142OSM    C6F15521   0.639   0.930   3.188
  142OSM    H6F15522   0.700   0.990   3.259
  142OSM    H6G15523   0.707   0.882   3.114
  142OSM    C7F15524   0.563   0.820   3.263
  142OSM    H7F15525   0.474   0.800   3.199
  142OSM    H7G15526   0.529   0.859   3.361
  142OSM    C8F15527   0.633   0.683   3.280
  142OSM    H8F15528   0.733   0.697   3.327
  142OSM    H8G15529   0.653   0.640   3.180
  142OSM    C9F15530   0.552   0.587   3.364
  142OSM    H9F15531   0.476   0.530   3.308
  142OSM   C10F15532   0.563   0.569   3.497
  142OSM   H10F15533   0.496   0.498   3.547
  142OSM   C11F15534   0.659   0.641   3.588
  142OSM   H11F15535   0.715   0.719   3.531
  142OSM   H11G15536   0.736   0.572   3.628
  142OSM   C12F15537   0.589   0.712   3.704
  142OSM   H12F15538   0.495   0.762   3.672
  142OSM   H12G15539   0.658   0.794   3.736
  142OSM   C13F15540   0.564   0.622   3.826
  142OSM   H13F15541   0.611   0.522   3.810
  142OSM   H13G15542   0.455   0.606   3.840
  142OSM   C14F15543   0.626   0.686   3.950
  142OSM   H14F15544   0.593   0.792   3.953
  142OSM   H14G15545   0.736   0.684   3.938
  142OSM   C15F15546   0.589   0.622   4.085
  142OSM   H15F15547   0.639   0.522   4.094
  142OSM   H15G15548   0.480   0.606   4.089
  142OSM   C16F15549   0.632   0.714   4.199
  142OSM   H16F15550   0.592   0.816   4.179
  142OSM   H16G15551   0.743   0.723   4.200
  142OSM   C17F15552   0.586   0.670   4.338
  142OSM   H17F15553   0.675   0.631   4.392
  142OSM   H17G15554   0.513   0.586   4.328
  142OSM   C18F15555   0.522   0.781   4.422
  142OSM   H18F15556   0.413   0.789   4.400
  142OSM   H18G15557   0.570   0.879   4.400
  142OSM   H18H15558   0.533   0.761   4.531
  143OSM      N15559   7.204   6.369   2.068
  143OSM    C1515560   7.263   6.273   2.167
  143OSM   H15A15561   7.248   6.170   2.138
  143OSM   H15B15562   7.222   6.285   2.267
  143OSM   H15C15563   0.066   6.290   2.173
  143OSM    C1415564   7.268   6.341   1.935
  143OSM   H14A15565   0.071   6.360   1.944
  143OSM   H14B15566   7.230   6.405   1.858
  143OSM   H14C15567   7.254   6.238   1.905
  143OSM    C1315568   7.058   6.347   2.056
  143OSM   H13A15569   7.009   6.357   2.152
  143OSM   H13B15570   7.036   6.247   2.021
  143OSM   H13C15571   7.014   6.415   1.985
  143OSM    C1215572   7.238   6.511   2.109
  143OSM   H12A15573   7.223   6.520   2.216
  143OSM   H12B15574   7.170   6.579   2.059
  143OSM    C1115575   0.078   6.561   2.079
  143OSM   H11A15576   0.101   6.647   2.146
  143OSM   H11B15577   0.082   6.599   1.975
  143OSM      P15578   0.317   6.472   2.143
  143OSM    O1315579   0.378   6.339   2.121
  143OSM    O1415580   0.367   6.588   2.064
  143OSM    O1115581   0.293   6.505   2.298
  143OSM    O1215582   0.169   6.454   2.095
  143OSM    C1S15583   0.190   6.431   2.365
  143OSM    H1S15584   0.189   6.326   2.331
  143OSM    H1T15585   0.090   6.477   2.345
  143OSM     NF15586   0.112   6.327   2.576
  143OSM    HNF15587   0.044   6.361   2.640
  143OSM    C2S15588   0.205   6.424   2.521
  143OSM    H2S15589   0.309   6.389   2.540
  143OSM    C3S15590   0.185   6.561   2.592
  143OSM    H3S15591   0.077   6.587   2.583
  143OSM     O315592   0.255   6.674   2.543
  143OSM    HO315593   0.307   6.643   2.468
  143OSM    C4S15594   0.216   6.536   2.737
  143OSM    H4S15595   0.308   6.478   2.750
  143OSM    C5S15596   0.147   6.571   2.847
  143OSM    H5S15597   0.055   6.630   2.839
  143OSM    C6S15598   0.192   6.535   2.987
  143OSM    H6S15599   0.108   6.555   3.056
  143OSM    H6T15600   0.274   6.602   3.019
  143OSM    C7S15601   0.239   6.387   3.004
  143OSM    H7S15602   0.328   6.370   2.940
  143OSM    H7T15603   0.160   6.318   2.969
  143OSM    C8S15604   0.278   6.348   3.148
  143OSM    H8S15605   0.355   6.421   3.179
  143OSM    H8T15606   0.324   6.246   3.149
  143OSM    C9S15607   0.161   6.350   3.247
  143OSM    H9S15608   0.096   6.262   3.230
  143OSM    H9T15609   0.103   6.442   3.223
  143OSM   C10S15610   0.194   6.360   3.397
  143OSM   H10S15611   0.113   6.417   3.448
  143OSM   H10T15612   0.288   6.417   3.412
  143OSM   C11S15613   0.199   6.226   3.469
  143OSM   H11S15614   0.260   6.156   3.408
  143OSM   H11T15615   0.097   6.183   3.478
  143OSM   C12S15616   0.263   6.240   3.607
  143OSM   H12S15617   0.359   6.296   3.599
  143OSM   H12T15618   0.287   6.138   3.642
  143OSM   C13S15619   0.178   6.306   3.716
  143OSM   H13S15620   0.072   6.275   3.703
  143OSM   H13T15621   0.182   6.417   3.708
  143OSM   C14S15622   0.225   6.261   3.854
  143OSM   H14S15623   0.227   6.150   3.851
  143OSM   H14T15624   0.151   6.287   3.933
  143OSM   C15S15625   0.366   6.304   3.897
  143OSM   H15S15626   0.359   6.405   3.943
  143OSM   H15T15627   0.433   6.312   3.809
  143OSM   C16S15628   0.426   6.204   3.996
  143OSM   H16S15629   0.504   6.142   3.946
  143OSM   H16T15630   0.348   6.134   4.032
  143OSM   C17S15631   0.484   6.272   4.119
  143OSM   H17S15632   0.402   6.329   4.168
  143OSM   H17T15633   0.562   6.344   4.086
  143OSM   C18S15634   0.545   6.178   4.222
  143OSM   H18S15635   0.471   6.102   4.254
  143OSM   H18T15636   0.579   6.234   4.312
  143OSM   H18U15637   0.634   6.126   4.178
  143OSM    C1F15638   0.113   6.197   2.549
  143OSM     OF15639   0.212   6.141   2.506
  143OSM    C2F15640   7.285   6.128   2.565
  143OSM    H2F15641   7.284   6.041   2.497
  143OSM    H2G15642   7.207   6.198   2.529
  143OSM    C3F15643   7.247   6.079   2.707
  143OSM    H3F15644   7.295   5.981   2.727
  143OSM    H3G15645   7.139   6.055   2.703
  143OSM    C4F15646   7.269   6.171   2.829
  143OSM    H4F15647   7.263   6.279   2.802
  143OSM    H4G15648   0.067   6.151   2.871
  143OSM    C5F15649   7.161   6.139   2.933
  143OSM    H5F15650   7.165   6.029   2.948
  143OSM    H5G15651   7.061   6.162   2.890
  143OSM    C6F15652   7.170   6.205   3.072
  143OSM    H6F15653   7.254   6.158   3.129
  143OSM    H6G15654   7.075   6.181   3.124
  143OSM    C7F15655   7.177   6.357   3.079
  143OSM    H7F15656   7.104   6.396   3.006
  143OSM    H7G15657   7.278   6.390   3.045
  143OSM    C8F15658   7.145   6.413   3.220
  143OSM    H8F15659   7.216   6.378   3.298
  143OSM    H8G15660   7.045   6.377   3.250
  143OSM    C9F15661   7.142   6.562   3.205
  143OSM    H9F15662   7.069   6.587   3.127
  143OSM   C10F15663   7.207   6.664   3.267
  143OSM   H10F15664   7.184   6.766   3.233
  143OSM   C11F15665   0.005   6.666   3.377
  143OSM   H11F15666   0.048   6.768   3.384
  143OSM   H11G15667   0.092   6.600   3.355
  143OSM   C12F15668   7.251   6.635   3.516
  143OSM   H12F15669   7.217   6.529   3.522
  143OSM   H12G15670   7.162   6.700   3.534
  143OSM   C13F15671   0.045   6.667   3.629
  143OSM   H13F15672   0.072   6.775   3.622
  143OSM   H13G15673   0.139   6.609   3.615
  143OSM   C14F15674   7.288   6.639   3.767
  143OSM   H14F15675   7.286   6.529   3.782
  143OSM   H14G15676   7.183   6.674   3.769
  143OSM   C15F15677   0.064   6.706   3.880
  143OSM   H15F15678   0.172   6.695   3.858
  143OSM   H15G15679   0.044   6.652   3.975
  143OSM   C16F15680   0.031   6.855   3.898
  143OSM   H16F15681   0.038   6.907   3.800
  143OSM   H16G15682   0.109   6.899   3.964
  143OSM   C17F15683   7.198   6.886   3.962
  143OSM   H17F15684   7.117   6.847   3.898
  143OSM   H17G15685   7.186   6.997   3.966
  143OSM   C18F15686   7.182   6.832   4.104
  143OSM   H18F15687   7.270   6.858   4.166
  143OSM   H18G15688   7.173   6.721   4.100
  143OSM   H18H15689   7.091   6.872   4.153
  144OSM      N15690   6.309   0.109   2.226
  144OSM    C1515691   6.277   0.072   2.084
  144OSM   H15A15692   6.279   7.269   2.068
  144OSM   H15B15693   6.352   0.115   2.019
  144OSM   H15C15694   6.181   0.109   2.052
  144OSM    C1415695   6.311   0.258   2.235
  144OSM   H14A15696   6.326   0.291   2.336
  144OSM   H14B15697   6.222   0.302   2.192
  144OSM   H14C15698   6.395   0.295   2.178
  144OSM    C1315699   6.210   0.045   2.316
  144OSM   H13A15700   6.108   0.067   2.290
  144OSM   H13B15701   6.225   0.071   2.420
  144OSM   H13C15702   6.219   7.241   2.312
  144OSM    C1215703   6.446   0.059   2.265
  144OSM   H12A15704   6.437   7.262   2.303
  144OSM   H12B15705   6.483   0.117   2.348
  144OSM    C1115706   6.554   0.061   2.155
  144OSM   H11A15707   6.528   7.292   2.074
  144OSM   H11B15708   6.649   0.026   2.201
  144OSM      P15709   6.699   0.227   2.026
  144OSM    O1315710   6.731   0.114   1.936
  144OSM    O1415711   6.679   0.358   1.963
  144OSM    O1115712   6.802   0.234   2.146
  144OSM    O1215713   6.565   0.192   2.100
  144OSM    C1S15714   6.780   0.314   2.263
  144OSM    H1S15715   6.687   0.375   2.256
  144OSM    H1T15716   6.866   0.383   2.276
  144OSM     NF15717   6.772   0.319   2.518
  144OSM    HNF15718   6.818   0.279   2.597
  144OSM    C2S15719   6.777   0.234   2.398
  144OSM    H2S15720   6.684   0.174   2.397
  144OSM    C3S15721   6.897   0.136   2.413
  144OSM    H3S15722   6.992   0.194   2.418
  144OSM     O315723   6.906   0.045   2.304
  144OSM    HO315724   6.862   0.092   2.233
  144OSM    C4S15725   6.873   0.061   2.540
  144OSM    H4S15726   6.803   7.280   2.528
  144OSM    C5S15727   6.926   0.081   2.662
  144OSM    H5S15728   7.003   0.158   2.681
  144OSM    C6S15729   6.885   7.296   2.775
  144OSM    H6S15730   6.933   7.197   2.762
  144OSM    H6T15731   6.775   7.281   2.764
  144OSM    C7S15732   6.902   0.038   2.922
  144OSM    H7S15733   7.003   0.080   2.940
  144OSM    H7T15734   6.891   7.252   2.986
  144OSM    C8S15735   6.794   0.139   2.963
  144OSM    H8S15736   6.696   0.107   2.921
  144OSM    H8T15737   6.820   0.238   2.921
  144OSM    C9S15738   6.773   0.152   3.115
  144OSM    H9S15739   6.870   0.176   3.162
  144OSM    H9T15740   6.738   0.056   3.158
  144OSM   C10S15741   6.671   0.263   3.146
  144OSM   H10S15742   6.568   0.224   3.134
  144OSM   H10T15743   6.685   0.345   3.073
  144OSM   C11S15744   6.693   0.323   3.285
  144OSM   H11S15745   6.797   0.361   3.289
  144OSM   H11T15746   6.684   0.245   3.364
  144OSM   C12S15747   6.602   0.441   3.318
  144OSM   H12S15748   6.497   0.405   3.326
  144OSM   H12T15749   6.606   0.516   3.236
  144OSM   C13S15750   6.644   0.508   3.450
  144OSM   H13S15751   6.734   0.570   3.430
  144OSM   H13T15752   6.671   0.431   3.525
  144OSM   C14S15753   6.533   0.597   3.505
  144OSM   H14S15754   6.444   0.535   3.529
  144OSM   H14T15755   6.507   0.665   3.421
  144OSM   C15S15756   6.569   0.678   3.630
  144OSM   H15S15757   6.499   0.764   3.639
  144OSM   H15T15758   6.672   0.719   3.621
  144OSM   C16S15759   6.555   0.594   3.757
  144OSM   H16S15760   6.624   0.507   3.753
  144OSM   H16T15761   6.452   0.553   3.761
  144OSM   C17S15762   6.579   0.674   3.886
  144OSM   H17S15763   6.498   0.748   3.898
  144OSM   H17T15764   6.674   0.731   3.874
  144OSM   C18S15765   6.589   0.585   4.010
  144OSM   H18S15766   6.671   0.511   3.998
  144OSM   H18T15767   6.494   0.529   4.025
  144OSM   H18U15768   6.609   0.646   4.100
  144OSM    C1F15769   6.701   0.429   2.540
  144OSM     OF15770   6.681   0.508   2.449
  144OSM    C2F15771   6.654   0.455   2.680
  144OSM    H2F15772   6.577   0.535   2.677
  144OSM    H2G15773   6.740   0.495   2.738
  144OSM    C3F15774   6.597   0.331   2.756
  144OSM    H3F15775   6.580   0.363   2.860
  144OSM    H3G15776   6.673   0.250   2.758
  144OSM    C4F15777   6.466   0.273   2.701
  144OSM    H4F15778   6.485   0.196   2.624
  144OSM    H4G15779   6.410   0.357   2.653
  144OSM    C5F15780   6.366   0.224   2.807
  144OSM    H5F15781   6.263   0.237   2.766
  144OSM    H5G15782   6.372   0.287   2.898
  144OSM    C6F15783   6.380   0.077   2.843
  144OSM    H6F15784   6.478   0.062   2.895
  144OSM    H6G15785   6.381   0.014   2.751
  144OSM    C7F15786   6.265   0.032   2.934
  144OSM    H7F15787   6.169   0.041   2.878
  144OSM    H7G15788   6.260   0.102   3.020
  144OSM    C8F15789   6.277   7.191   2.987
  144OSM    H8F15790   6.270   7.120   2.902
  144OSM    H8G15791   6.190   7.170   3.053
  144OSM    C9F15792   6.405   7.170   3.062
  144OSM    H9F15793   6.480   7.106   3.012
  144OSM   C10F15794   6.435   7.217   3.184
  144OSM   H10F15795   6.533   7.192   3.228
  144OSM   C11F15796   6.346   7.301   3.272
  144OSM   H11F15797   6.304   7.236   3.352
  144OSM   H11G15798   6.258   0.039   3.219
  144OSM   C12F15799   6.421   0.112   3.342
  144OSM   H12F15800   6.390   0.208   3.295
  144OSM   H12G15801   6.531   0.102   3.330
  144OSM   C13F15802   6.393   0.115   3.493
  144OSM   H13F15803   6.461   0.042   3.543
  144OSM   H13G15804   6.288   0.085   3.511
  144OSM   C14F15805   6.416   0.250   3.560
  144OSM   H14F15806   6.373   0.329   3.495
  144OSM   H14G15807   6.525   0.268   3.570
  144OSM   C15F15808   6.347   0.258   3.697
  144OSM   H15F15809   6.237   0.251   3.681
  144OSM   H15G15810   6.370   0.359   3.738
  144OSM   C16F15811   6.387   0.155   3.802
  144OSM   H16F15812   6.379   0.052   3.761
  144OSM   H16G15813   6.315   0.163   3.886
  144OSM   C17F15814   6.528   0.179   3.858
  144OSM   H17F15815   6.536   0.286   3.886
  144OSM   H17G15816   6.602   0.160   3.778
  144OSM   C18F15817   6.559   0.093   3.980
  144OSM   H18F15818   6.663   0.110   4.015
  144OSM   H18G15819   6.546   7.289   3.956
  144OSM   H18H15820   6.489   0.118   4.064
  145SAPE     N15821   2.150   3.036   6.356
  145SAPE   HN115822   2.234   3.096   6.369
  145SAPE   HN215823   2.181   2.939   6.334
  145SAPE   HN315824   2.096   3.076   6.276
  145SAPE   C1215825   2.056   3.052   6.472
  145SAPE  H12A15826   2.094   3.137   6.533
  145SAPE  H12B15827   2.056   2.959   6.533
  145SAPE   C1115828   1.916   3.088   6.420
  145SAPE  H11A15829   1.861   3.142   6.500
  145SAPE  H11B15830   1.859   2.995   6.399
  145SAPE     P15831   1.797   3.222   6.232
  145SAPE   O1315832   1.725   3.104   6.180
  145SAPE   O1415833   1.726   3.311   6.327
  145SAPE   O1215834   1.928   3.168   6.302
  145SAPE   O1115835   1.859   3.306   6.115
  145SAPE    C115836   1.977   3.264   6.045
  145SAPE    HA15837   2.066   3.282   6.110
  145SAPE    HB15838   1.973   3.157   6.017
  145SAPE    C215839   1.995   3.347   5.915
  145SAPE    HS15840   1.977   3.454   5.938
  145SAPE   O2115841   1.904   3.298   5.815
  145SAPE   C2115842   1.779   3.338   5.828
  145SAPE   O2215843   1.742   3.439   5.886
  145SAPE   C2215844   1.688   3.237   5.761
  145SAPE   H2R15845   1.742   3.188   5.677
  145SAPE   H2S15846   1.665   3.159   5.838
  145SAPE    C315847   2.140   3.336   5.859
  145SAPE    HX15848   2.212   3.352   5.942
  145SAPE    HY15849   2.151   3.420   5.788
  145SAPE   O3115850   2.163   3.206   5.800
  145SAPE   C3115851   2.192   3.210   5.671
  145SAPE   O3215852   2.252   3.300   5.615
  145SAPE   C3215853   2.128   3.094   5.599
  145SAPE   H2X15854   2.073   3.030   5.671
  145SAPE   H2Y15855   2.207   3.033   5.550
  145SAPE   C2315856   1.556   3.299   5.710
  145SAPE   H3R15857   1.576   3.357   5.617
  145SAPE   H3S15858   1.515   3.370   5.784
  145SAPE   C2415859   1.448   3.192   5.683
  145SAPE   H4R15860   1.364   3.243   5.631
  145SAPE   H4S15861   1.408   3.158   5.781
  145SAPE   C2515862   1.491   3.073   5.602
  145SAPE   H5R15863   1.496   2.977   5.657
  145SAPE   C2615864   1.526   3.076   5.473
  145SAPE   H6R15865   1.560   2.983   5.424
  145SAPE   C2715866   1.527   3.201   5.387
  145SAPE   H7R15867   1.625   3.251   5.402
  145SAPE   H7S15868   1.452   3.274   5.424
  145SAPE   C2815869   1.499   3.171   5.242
  145SAPE   H8R15870   1.414   3.104   5.224
  145SAPE   C2915871   1.566   3.221   5.136
  145SAPE   H9R15872   1.533   3.190   5.036
  145SAPE  C21015873   1.683   3.316   5.139
  145SAPE  H10R15874   1.774   3.263   5.105
  145SAPE  H10S15875   1.707   3.348   5.243
  145SAPE  C21115876   1.672   3.439   5.055
  145SAPE  H11R15877   1.683   3.531   5.113
  145SAPE  C21215878   1.658   3.445   4.921
  145SAPE  H12R15879   1.652   3.543   4.871
  145SAPE  C21315880   1.651   3.329   4.827
  145SAPE  H13R15881   1.680   3.236   4.880
  145SAPE  H13S15882   1.728   3.344   4.748
  145SAPE  C21415883   1.514   3.309   4.766
  145SAPE  H14R15884   1.428   3.347   4.823
  145SAPE  C21515885   1.495   3.247   4.649
  145SAPE  H15R15886   1.393   3.237   4.608
  145SAPE  C21615887   1.607   3.192   4.564
  145SAPE  H16R15888   1.579   3.097   4.516
  145SAPE  H16S15889   1.695   3.167   4.627
  145SAPE  C21715890   1.653   3.294   4.458
  145SAPE  H17R15891   1.662   3.395   4.504
  145SAPE  H17S15892   1.577   3.301   4.378
  145SAPE  C21815893   1.791   3.257   4.402
  145SAPE  H18R15894   1.785   3.163   4.343
  145SAPE  H18S15895   1.860   3.242   4.487
  145SAPE  C21915896   1.853   3.369   4.319
  145SAPE  H19R15897   1.959   3.345   4.296
  145SAPE  H19S15898   1.854   3.461   4.380
  145SAPE  C22015899   1.779   3.395   4.189
  145SAPE  H20R15900   1.784   3.503   4.163
  145SAPE  H20S15901   1.672   3.367   4.196
  145SAPE  H20T15902   1.824   3.339   4.105
  145SAPE   C3315903   2.030   3.148   5.493
  145SAPE   H3X15904   2.087   3.196   5.410
  145SAPE   H3Y15905   1.963   3.225   5.536
  145SAPE   C3415906   1.945   3.034   5.439
  145SAPE   H4X15907   1.875   3.001   5.519
  145SAPE   H4Y15908   2.015   2.951   5.417
  145SAPE   C3515909   1.867   3.064   5.311
  145SAPE   H5X15910   1.799   3.150   5.327
  145SAPE   H5Y15911   1.804   2.975   5.289
  145SAPE   C3615912   1.957   3.090   5.191
  145SAPE   H6X15913   2.056   3.041   5.205
  145SAPE   H6Y15914   1.976   3.199   5.183
  145SAPE   C3715915   1.895   3.038   5.061
  145SAPE   H7X15916   1.788   3.063   5.055
  145SAPE   H7Y15917   1.901   2.927   5.060
  145SAPE   C3815918   1.967   3.096   4.939
  145SAPE   H8X15919   2.073   3.063   4.943
  145SAPE   H8Y15920   1.965   3.207   4.946
  145SAPE   C3915921   1.903   3.055   4.806
  145SAPE   H9X15922   1.796   3.082   4.807
  145SAPE   H9Y15923   1.906   2.944   4.795
  145SAPE  C31015924   1.971   3.119   4.685
  145SAPE  H10X15925   1.960   3.229   4.693
  145SAPE  H10Y15926   1.918   3.083   4.595
  145SAPE  C31115927   2.119   3.083   4.669
  145SAPE  H11X15928   2.125   2.977   4.637
  145SAPE  H11Y15929   2.174   3.092   4.766
  145SAPE  C31215930   2.191   3.175   4.569
  145SAPE  H12X15931   2.197   3.277   4.612
  145SAPE  H12Y15932   2.130   3.183   4.476
  145SAPE  C31315933   2.333   3.126   4.535
  145SAPE  H13X15934   2.395   3.128   4.627
  145SAPE  H13Y15935   2.378   3.198   4.463
  145SAPE  C31415936   2.338   2.986   4.473
  145SAPE  H14X15937   2.310   2.910   4.549
  145SAPE  H14Y15938   2.442   2.963   4.442
  145SAPE  C31515939   2.245   2.973   4.352
  145SAPE  H15X15940   2.274   3.049   4.277
  145SAPE  H15Y15941   2.140   2.994   4.383
  145SAPE  C31615942   2.245   2.834   4.288
  145SAPE  H16X15943   2.193   2.762   4.354
  145SAPE  H16Y15944   2.350   2.800   4.276
  145SAPE  C31715945   2.178   2.838   4.150
  145SAPE  H17X15946   2.175   2.734   4.110
  145SAPE  H17Y15947   2.241   2.899   4.083
  145SAPE  C31815948   2.036   2.895   4.148
  145SAPE  H18X15949   2.032   2.996   4.194
  145SAPE  H18Y15950   1.965   2.828   4.200
  145SAPE  H18Z15951   2.004   2.906   4.042
  146SAPE     N15952   5.018   2.510   6.125
  146SAPE   HN115953   4.968   2.453   6.054
  146SAPE   HN215954   5.104   2.461   6.157
  146SAPE   HN315955   4.961   2.518   6.212
  146SAPE   C1215956   5.061   2.645   6.075
  146SAPE  H12A15957   4.985   2.720   6.107
  146SAPE  H12B15958   5.065   2.642   5.964
  146SAPE   C1115959   5.200   2.681   6.131
  146SAPE  H11A15960   5.222   2.788   6.108
  146SAPE  H11B15961   5.276   2.622   6.076
  146SAPE     P15962   5.285   2.540   6.335
  146SAPE   O1315963   5.295   2.554   6.482
  146SAPE   O1415964   5.214   2.421   6.284
  146SAPE   O1215965   5.206   2.663   6.273
  146SAPE   O1115966   5.428   2.545   6.273
  146SAPE    C115967   5.504   2.663   6.250
  146SAPE    HA15968   5.444   2.756   6.250
  146SAPE    HB15969   5.580   2.673   6.331
  146SAPE    C215970   5.581   2.654   6.115
  146SAPE    HS15971   5.669   2.722   6.127
  146SAPE   O2115972   5.493   2.692   6.006
  146SAPE   C2115973   5.532   2.800   5.938
  146SAPE   O2215974   5.630   2.867   5.966
  146SAPE   C2215975   5.437   2.832   5.823
  146SAPE   H2R15976   5.335   2.849   5.862
  146SAPE   H2S15977   5.476   2.928   5.781
  146SAPE    C315978   5.641   2.513   6.088
  146SAPE    HX15979   5.706   2.487   6.175
  146SAPE    HY15980   5.708   2.521   6.000
  146SAPE   O3115981   5.539   2.411   6.074
  146SAPE   C3115982   5.497   2.393   5.951
  146SAPE   O3215983   5.557   2.422   5.849
  146SAPE   C3215984   5.354   2.335   5.956
  146SAPE   H2X15985   5.282   2.418   5.941
  146SAPE   H2Y15986   5.339   2.293   6.058
  146SAPE   C2315987   5.441   2.730   5.706
  146SAPE   H3R15988   5.542   2.684   5.701
  146SAPE   H3S15989   5.427   2.784   5.610
  146SAPE   C2415990   5.335   2.620   5.718
  146SAPE   H4R15991   5.336   2.583   5.822
  146SAPE   H4S15992   5.371   2.537   5.653
  146SAPE   C2515993   5.196   2.663   5.678
  146SAPE   H5R15994   5.145   2.730   5.749
  146SAPE   C2615995   5.135   2.631   5.562
  146SAPE   H6R15996   5.035   2.672   5.541
  146SAPE   C2715997   5.197   2.548   5.453
  146SAPE   H7R15998   5.195   2.441   5.483
  146SAPE   H7S15999   5.305   2.574   5.444
  146SAPE   C2816000   5.128   2.561   5.319
  146SAPE   H8R16001   5.020   2.541   5.320
  146SAPE   C2916002   5.187   2.593   5.202
  146SAPE   H9R16003   5.124   2.599   5.111
  146SAPE  C21016004   5.333   2.624   5.178
  146SAPE  H10R16005   5.362   2.582   5.079
  146SAPE  H10S16006   5.397   2.571   5.252
  146SAPE  C21116007   5.360   2.772   5.186
  146SAPE  H11R16008   5.333   2.819   5.282
  146SAPE  C21216009   5.414   2.849   5.090
  146SAPE  H12R16010   5.430   2.956   5.109
  146SAPE  C21316011   5.459   2.802   4.954
  146SAPE  H13R16012   5.458   2.887   4.882
  146SAPE  H13S16013   5.387   2.728   4.912
  146SAPE  C21416014   5.595   2.736   4.964
  146SAPE  H14R16015   5.599   2.651   5.033
  146SAPE  C21516016   5.707   2.772   4.898
  146SAPE  H15R16017   5.797   2.711   4.909
  146SAPE  C21616018   5.718   2.886   4.800
  146SAPE  H16R16019   5.821   2.927   4.796
  146SAPE  H16S16020   5.651   2.970   4.829
  146SAPE  C21716021   5.677   2.834   4.662
  146SAPE  H17R16022   5.584   2.773   4.672
  146SAPE  H17S16023   5.755   2.767   4.620
  146SAPE  C21816024   5.644   2.946   4.563
  146SAPE  H18R16025   5.737   2.985   4.517
  146SAPE  H18S16026   5.593   3.029   4.615
  146SAPE  C21916027   5.549   2.890   4.457
  146SAPE  H19R16028   5.457   2.855   4.508
  146SAPE  H19S16029   5.597   2.800   4.413
  146SAPE  C22016030   5.511   2.988   4.347
  146SAPE  H20R16031   5.463   3.079   4.390
  146SAPE  H20S16032   5.440   2.941   4.275
  146SAPE  H20T16033   5.602   3.019   4.292
  146SAPE   C3316034   5.329   2.224   5.852
  146SAPE   H3X16035   5.234   2.171   5.875
  146SAPE   H3Y16036   5.411   2.150   5.862
  146SAPE   C3416037   5.324   2.269   5.705
  146SAPE   H4X16038   5.411   2.334   5.683
  146SAPE   H4Y16039   5.232   2.328   5.685
  146SAPE   C3516040   5.332   2.150   5.608
  146SAPE   H5X16041   5.251   2.077   5.629
  146SAPE   H5Y16042   5.430   2.098   5.624
  146SAPE   C3616043   5.335   2.185   5.460
  146SAPE   H6X16044   5.240   2.236   5.430
  146SAPE   H6Y16045   5.341   2.089   5.404
  146SAPE   C3716046   5.457   2.269   5.418
  146SAPE   H7X16047   5.547   2.235   5.474
  146SAPE   H7Y16048   5.439   2.375   5.444
  146SAPE   C3816049   5.486   2.257   5.268
  146SAPE   H8X16050   5.540   2.162   5.247
  146SAPE   H8Y16051   5.551   2.342   5.238
  146SAPE   C3916052   5.359   2.261   5.183
  146SAPE   H9X16053   5.295   2.343   5.220
  146SAPE   H9Y16054   5.302   2.166   5.195
  146SAPE  C31016055   5.386   2.283   5.034
  146SAPE  H10X16056   5.447   2.198   4.995
  146SAPE  H10Y16057   5.444   2.377   5.021
  146SAPE  C31116058   5.254   2.292   4.958
  146SAPE  H11X16059   5.188   2.363   5.013
  146SAPE  H11Y16060   5.208   2.191   4.962
  146SAPE  C31216061   5.264   2.338   4.813
  146SAPE  H12X16062   5.305   2.254   4.753
  146SAPE  H12Y16063   5.334   2.424   4.806
  146SAPE  C31316064   5.129   2.381   4.754
  146SAPE  H13X16065   5.050   2.312   4.790
  146SAPE  H13Y16066   5.132   2.371   4.644
  146SAPE  C31416067   5.091   2.525   4.791
  146SAPE  H14X16068   5.160   2.564   4.869
  146SAPE  H14Y16069   4.988   2.526   4.833
  146SAPE  C31516070   5.094   2.620   4.670
  146SAPE  H15X16071   5.063   2.722   4.702
  146SAPE  H15Y16072   5.020   2.584   4.595
  146SAPE  C31616073   5.232   2.629   4.601
  146SAPE  H16X16074   5.272   2.527   4.584
  146SAPE  H16Y16075   5.303   2.682   4.669
  146SAPE  C31716076   5.226   2.701   4.465
  146SAPE  H17X16077   5.160   2.643   4.398
  146SAPE  H17Y16078   5.328   2.698   4.421
  146SAPE  C31816079   5.178   2.846   4.473
  146SAPE  H18X16080   5.237   2.903   4.548
  146SAPE  H18Y16081   5.071   2.850   4.503
  146SAPE  H18Z16082   5.188   2.895   4.374
  147SAPE     N16083   3.815   6.082   6.444
  147SAPE   HN116084   3.742   6.156   6.440
  147SAPE   HN216085   3.769   5.992   6.464
  147SAPE   HN316086   3.887   6.102   6.516
  147SAPE   C1216087   3.876   6.068   6.308
  147SAPE  H12A16088   3.967   6.005   6.317
  147SAPE  H12B16089   3.904   6.168   6.270
  147SAPE   C1116090   3.773   6.000   6.216
  147SAPE  H11A16091   3.823   5.976   6.120
  147SAPE  H11B16092   3.691   6.071   6.193
  147SAPE     P16093   3.780   5.740   6.264
  147SAPE   O1316094   3.917   5.749   6.318
  147SAPE   O1416095   3.689   5.644   6.330
  147SAPE   O1216096   3.715   5.885   6.280
  147SAPE   O1116097   3.780   5.716   6.108
  147SAPE    C116098   3.679   5.772   6.024
  147SAPE    HA16099   3.588   5.804   6.080
  147SAPE    HB16100   3.720   5.861   5.971
  147SAPE    C216101   3.631   5.675   5.913
  147SAPE    HS16102   3.579   5.589   5.962
  147SAPE   O2116103   3.742   5.635   5.831
  147SAPE   C2116104   3.783   5.510   5.844
  147SAPE   O2216105   3.737   5.428   5.922
  147SAPE   C2216106   3.887   5.478   5.736
  147SAPE   H2R16107   3.967   5.419   5.785
  147SAPE   H2S16108   3.839   5.414   5.660
  147SAPE    C316109   3.529   5.748   5.823
  147SAPE    HX16110   3.580   5.835   5.777
  147SAPE    HY16111   3.446   5.786   5.886
  147SAPE   O3116112   3.476   5.655   5.727
  147SAPE   C3116113   3.502   5.678   5.600
  147SAPE   O3216114   3.550   5.779   5.552
  147SAPE   C3216115   3.460   5.555   5.521
  147SAPE   H2X16116   3.380   5.584   5.450
  147SAPE   H2Y16117   3.421   5.479   5.593
  147SAPE   C2316118   3.948   5.603   5.669
  147SAPE   H3R16119   3.983   5.672   5.748
  147SAPE   H3S16120   3.871   5.657   5.610
  147SAPE   C2416121   4.070   5.572   5.579
  147SAPE   H4R16122   4.141   5.508   5.636
  147SAPE   H4S16123   4.122   5.669   5.564
  147SAPE   C2516124   4.038   5.510   5.445
  147SAPE   H5R16125   4.032   5.400   5.444
  147SAPE   C2616126   4.017   5.578   5.331
  147SAPE   H6R16127   3.996   5.521   5.239
  147SAPE   C2716128   4.020   5.728   5.314
  147SAPE   H7R16129   4.071   5.779   5.399
  147SAPE   H7S16130   3.915   5.766   5.318
  147SAPE   C2816131   4.086   5.773   5.186
  147SAPE   H8R16132   4.196   5.782   5.195
  147SAPE   C2916133   4.029   5.796   5.066
  147SAPE   H9R16134   4.093   5.829   4.983
  147SAPE  C21016135   3.883   5.779   5.032
  147SAPE  H10R16136   3.824   5.764   5.125
  147SAPE  H10S16137   3.874   5.684   4.975
  147SAPE  C21116138   3.821   5.887   4.948
  147SAPE  H11R16139   3.889   5.947   4.886
  147SAPE  C21216140   3.688   5.911   4.944
  147SAPE  H12R16141   3.650   5.990   4.877
  147SAPE  C21316142   3.586   5.832   5.023
  147SAPE  H13R16143   3.607   5.846   5.131
  147SAPE  H13S16144   3.600   5.724   5.003
  147SAPE  C21416145   3.444   5.875   4.996
  147SAPE  H14R16146   3.428   5.984   4.996
  147SAPE  C21516147   3.338   5.795   4.977
  147SAPE  H15R16148   3.240   5.841   4.959
  147SAPE  C21616149   3.335   5.644   4.979
  147SAPE  H16R16150   3.255   5.611   5.048
  147SAPE  H16S16151   3.429   5.599   5.016
  147SAPE  C21716152   3.304   5.583   4.840
  147SAPE  H17R16153   3.213   5.631   4.798
  147SAPE  H17S16154   3.280   5.475   4.854
  147SAPE  C21816155   3.420   5.594   4.741
  147SAPE  H18R16156   3.507   5.539   4.784
  147SAPE  H18S16157   3.450   5.700   4.729
  147SAPE  C21916158   3.386   5.534   4.604
  147SAPE  H19R16159   3.346   5.432   4.617
  147SAPE  H19S16160   3.481   5.525   4.547
  147SAPE  C22016161   3.288   5.619   4.522
  147SAPE  H20R16162   3.328   5.722   4.508
  147SAPE  H20S16163   3.189   5.626   4.573
  147SAPE  H20T16164   3.273   5.574   4.421
  147SAPE   C3316165   3.574   5.484   5.449
  147SAPE   H3X16166   3.541   5.380   5.434
  147SAPE   H3Y16167   3.667   5.480   5.511
  147SAPE   C3416168   3.604   5.543   5.312
  147SAPE   H4X16169   3.677   5.627   5.321
  147SAPE   H4Y16170   3.512   5.583   5.264
  147SAPE   C3516171   3.660   5.429   5.229
  147SAPE   H5X16172   3.577   5.359   5.206
  147SAPE   H5Y16173   3.735   5.377   5.292
  147SAPE   C3616174   3.728   5.468   5.099
  147SAPE   H6X16175   3.803   5.546   5.122
  147SAPE   H6Y16176   3.654   5.509   5.028
  147SAPE   C3716177   3.799   5.346   5.041
  147SAPE   H7X16178   3.725   5.267   5.017
  147SAPE   H7Y16179   3.869   5.307   5.118
  147SAPE   C3816180   3.880   5.378   4.917
  147SAPE   H8X16181   3.942   5.290   4.888
  147SAPE   H8Y16182   3.947   5.463   4.942
  147SAPE   C3916183   3.793   5.419   4.799
  147SAPE   H9X16184   3.738   5.512   4.826
  147SAPE   H9Y16185   3.718   5.340   4.779
  147SAPE  C31016186   3.880   5.446   4.677
  147SAPE  H10X16187   3.921   5.351   4.635
  147SAPE  H10Y16188   3.967   5.504   4.713
  147SAPE  C31116189   3.807   5.528   4.571
  147SAPE  H11X16190   3.706   5.555   4.608
  147SAPE  H11Y16191   3.793   5.468   4.478
  147SAPE  C31216192   3.888   5.654   4.540
  147SAPE  H12X16193   3.983   5.618   4.497
  147SAPE  H12Y16194   3.909   5.709   4.635
  147SAPE  C31316195   3.829   5.751   4.437
  147SAPE  H13X16196   3.820   5.694   4.342
  147SAPE  H13Y16197   3.902   5.832   4.418
  147SAPE  C31416198   3.695   5.812   4.479
  147SAPE  H14X16199   3.714   5.907   4.534
  147SAPE  H14Y16200   3.641   5.745   4.549
  147SAPE  C31516201   3.604   5.836   4.358
  147SAPE  H15X16202   3.659   5.897   4.283
  147SAPE  H15Y16203   3.516   5.894   4.391
  147SAPE  C31616204   3.556   5.705   4.295
  147SAPE  H16X16205   3.507   5.644   4.374
  147SAPE  H16Y16206   3.642   5.644   4.257
  147SAPE  C31716207   3.458   5.726   4.180
  147SAPE  H17X16208   3.394   5.815   4.202
  147SAPE  H17Y16209   3.391   5.637   4.173
  147SAPE  C31816210   3.530   5.743   4.047
  147SAPE  H18X16211   3.585   5.651   4.020
  147SAPE  H18Y16212   3.604   5.826   4.056
  147SAPE  H18Z16213   3.459   5.767   3.965
  148SAPE     N16214   1.968   2.118   6.182
  148SAPE   HN116215   1.940   2.130   6.082
  148SAPE   HN216216   2.026   2.199   6.209
  148SAPE   HN316217   2.027   2.033   6.193
  148SAPE   C1216218   1.849   2.114   6.274
  148SAPE  H12A16219   1.881   2.062   6.367
  148SAPE  H12B16220   1.770   2.053   6.225
  148SAPE   C1116221   1.795   2.254   6.313
  148SAPE  H11A16222   1.700   2.238   6.368
  148SAPE  H11B16223   1.767   2.311   6.222
  148SAPE     P16224   1.995   2.426   6.343
  148SAPE   O1316225   2.047   2.503   6.458
  148SAPE   O1416226   2.089   2.341   6.266
  148SAPE   O1216227   1.884   2.327   6.398
  148SAPE   O1116228   1.919   2.522   6.243
  148SAPE    C116229   1.844   2.634   6.291
  148SAPE    HA16230   1.756   2.598   6.348
  148SAPE    HB16231   1.905   2.697   6.359
  148SAPE    C216232   1.788   2.729   6.177
  148SAPE    HS16233   1.699   2.783   6.217
  148SAPE   O2116234   1.754   2.659   6.057
  148SAPE   C2116235   1.695   2.544   6.064
  148SAPE   O2216236   1.630   2.500   6.158
  148SAPE   C2216237   1.727   2.469   5.935
  148SAPE   H2R16238   1.633   2.443   5.882
  148SAPE   H2S16239   1.785   2.536   5.868
  148SAPE    C316240   1.892   2.835   6.132
  148SAPE    HX16241   1.920   2.896   6.220
  148SAPE    HY16242   1.843   2.905   6.060
  148SAPE   O3116243   2.010   2.772   6.078
  148SAPE   C3116244   2.005   2.747   5.947
  148SAPE   O3216245   1.935   2.805   5.866
  148SAPE   C3216246   2.098   2.630   5.915
  148SAPE   H2X16247   2.056   2.539   5.961
  148SAPE   H2Y16248   2.196   2.652   5.962
  148SAPE   C2316249   1.809   2.341   5.963
  148SAPE   H3R16250   1.743   2.261   6.004
  148SAPE   H3S16251   1.886   2.366   6.039
  148SAPE   C2416252   1.885   2.294   5.839
  148SAPE   H4R16253   1.966   2.225   5.869
  148SAPE   H4S16254   1.934   2.384   5.796
  148SAPE   C2516255   1.799   2.226   5.736
  148SAPE   H5R16256   1.780   2.119   5.755
  148SAPE   C2616257   1.748   2.281   5.625
  148SAPE   H6R16258   1.691   2.215   5.558
  148SAPE   C2716259   1.762   2.424   5.576
  148SAPE   H7R16260   1.866   2.461   5.591
  148SAPE   H7S16261   1.698   2.490   5.637
  148SAPE   C2816262   1.724   2.439   5.430
  148SAPE   H8R16263   1.719   2.346   5.372
  148SAPE   C2916264   1.707   2.554   5.363
  148SAPE   H9R16265   1.681   2.549   5.256
  148SAPE  C21016266   1.723   2.694   5.417
  148SAPE  H10R16267   1.637   2.717   5.484
  148SAPE  H10S16268   1.715   2.766   5.333
  148SAPE  C21116269   1.852   2.720   5.491
  148SAPE  H11R16270   1.840   2.756   5.594
  148SAPE  C21216271   1.978   2.702   5.444
  148SAPE  H12R16272   2.062   2.726   5.510
  148SAPE  C21316273   2.017   2.653   5.306
  148SAPE  H13R16274   1.927   2.623   5.248
  148SAPE  H13S16275   2.078   2.560   5.316
  148SAPE  C21416276   2.093   2.754   5.226
  148SAPE  H14R16277   2.135   2.839   5.282
  148SAPE  C21516278   2.112   2.749   5.093
  148SAPE  H15R16279   2.157   2.837   5.045
  148SAPE  C21616280   2.065   2.645   4.996
  148SAPE  H16R16281   2.004   2.566   5.045
  148SAPE  H16S16282   2.151   2.595   4.948
  148SAPE  C21716283   1.981   2.715   4.887
  148SAPE  H17R16284   2.042   2.797   4.844
  148SAPE  H17S16285   1.890   2.759   4.933
  148SAPE  C21816286   1.936   2.626   4.771
  148SAPE  H18R16287   1.862   2.553   4.810
  148SAPE  H18S16288   2.023   2.569   4.731
  148SAPE  C21916289   1.872   2.708   4.659
  148SAPE  H19R16290   1.950   2.773   4.612
  148SAPE  H19S16291   1.795   2.775   4.703
  148SAPE  C22016292   1.805   2.623   4.552
  148SAPE  H20R16293   1.878   2.552   4.507
  148SAPE  H20S16294   1.762   2.686   4.471
  148SAPE  H20T16295   1.722   2.565   4.598
  148SAPE   C3316296   2.116   2.610   5.762
  148SAPE   H3X16297   2.138   2.709   5.717
  148SAPE   H3Y16298   2.022   2.573   5.715
  148SAPE   C3416299   2.233   2.517   5.727
  148SAPE   H4X16300   2.314   2.537   5.801
  148SAPE   H4Y16301   2.272   2.543   5.626
  148SAPE   C3516302   2.207   2.367   5.735
  148SAPE   H5X16303   2.153   2.343   5.829
  148SAPE   H5Y16304   2.307   2.319   5.744
  148SAPE   C3616305   2.136   2.304   5.614
  148SAPE   H6X16306   2.030   2.337   5.612
  148SAPE   H6Y16307   2.135   2.193   5.627
  148SAPE   C3716308   2.197   2.337   5.477
  148SAPE   H7X16309   2.308   2.332   5.481
  148SAPE   H7Y16310   2.169   2.441   5.452
  148SAPE   C3816311   2.149   2.243   5.364
  148SAPE   H8X16312   2.198   2.144   5.375
  148SAPE   H8Y16313   2.181   2.286   5.267
  148SAPE   C3916314   1.997   2.222   5.366
  148SAPE   H9X16315   1.952   2.315   5.407
  148SAPE   H9Y16316   1.971   2.139   5.436
  148SAPE  C31016317   1.932   2.198   5.228
  148SAPE  H10X16318   1.824   2.175   5.246
  148SAPE  H10Y16319   1.977   2.110   5.178
  148SAPE  C31116320   1.940   2.323   5.139
  148SAPE  H11X16321   2.037   2.322   5.084
  148SAPE  H11Y16322   1.941   2.411   5.206
  148SAPE  C31216323   1.824   2.342   5.041
  148SAPE  H12X16324   1.838   2.439   4.989
  148SAPE  H12Y16325   1.728   2.350   5.097
  148SAPE  C31316326   1.816   2.231   4.936
  148SAPE  H13X16327   1.769   2.140   4.980
  148SAPE  H13Y16328   1.921   2.204   4.910
  148SAPE  C31416329   1.744   2.270   4.806
  148SAPE  H14X16330   1.781   2.367   4.768
  148SAPE  H14Y16331   1.635   2.278   4.824
  148SAPE  C31516332   1.775   2.162   4.702
  148SAPE  H15X16333   1.744   2.066   4.748
  148SAPE  H15Y16334   1.885   2.159   4.686
  148SAPE  C31616335   1.704   2.169   4.566
  148SAPE  H16X16336   1.595   2.155   4.581
  148SAPE  H16Y16337   1.741   2.083   4.506
  148SAPE  C31716338   1.731   2.294   4.483
  148SAPE  H17X16339   1.838   2.321   4.493
  148SAPE  H17Y16340   1.670   2.377   4.523
  148SAPE  C31816341   1.700   2.272   4.334
  148SAPE  H18X16342   1.593   2.245   4.321
  148SAPE  H18Y16343   1.762   2.190   4.293
  148SAPE  H18Z16344   1.721   2.365   4.276
  149SAPE     N16345   3.095   1.463   6.504
  149SAPE   HN116346   3.048   1.389   6.560
  149SAPE   HN216347   3.122   1.541   6.567
  149SAPE   HN316348   3.027   1.503   6.436
  149SAPE   C1216349   3.214   1.410   6.427
  149SAPE  H12A16350   3.276   1.352   6.498
  149SAPE  H12B16351   3.272   1.498   6.392
  149SAPE   C1116352   3.171   1.323   6.306
  149SAPE  H11A16353   3.118   1.233   6.344
  149SAPE  H11B16354   3.263   1.285   6.255
  149SAPE     P16355   3.146   1.501   6.113
  149SAPE   O1316356   3.086   1.630   6.154
  149SAPE   O1416357   3.293   1.496   6.126
  149SAPE   O1216358   3.086   1.393   6.214
  149SAPE   O1116359   3.100   1.457   5.968
  149SAPE    C116360   2.967   1.463   5.914
  149SAPE    HA16361   2.906   1.381   5.956
  149SAPE    HB16362   2.918   1.560   5.941
  149SAPE    C216363   2.961   1.451   5.755
  149SAPE    HS16364   3.004   1.352   5.729
  149SAPE   O2116365   3.036   1.560   5.699
  149SAPE   C2116366   3.162   1.536   5.670
  149SAPE   O2216367   3.222   1.430   5.680
  149SAPE   C2216368   3.221   1.662   5.606
  149SAPE   H2R16369   3.199   1.750   5.670
  149SAPE   H2S16370   3.331   1.648   5.599
  149SAPE    C316371   2.814   1.455   5.695
  149SAPE    HX16372   2.782   1.561   5.694
  149SAPE    HY16373   2.752   1.402   5.770
  149SAPE   O3116374   2.798   1.394   5.561
  149SAPE   C3116375   2.667   1.377   5.524
  149SAPE   O3216376   2.576   1.426   5.588
  149SAPE   C3216377   2.640   1.291   5.394
  149SAPE   H2X16378   2.632   1.366   5.313
  149SAPE   H2Y16379   2.538   1.249   5.407
  149SAPE   C2316380   3.160   1.679   5.465
  149SAPE   H3R16381   3.051   1.699   5.474
  149SAPE   H3S16382   3.170   1.579   5.417
  149SAPE   C2416383   3.228   1.779   5.371
  149SAPE   H4R16384   3.338   1.761   5.373
  149SAPE   H4S16385   3.211   1.883   5.406
  149SAPE   C2516386   3.170   1.757   5.233
  149SAPE   H5R16387   3.065   1.787   5.220
  149SAPE   C2616388   3.230   1.697   5.129
  149SAPE   H6R16389   3.171   1.680   5.037
  149SAPE   C2716390   3.368   1.638   5.126
  149SAPE   H7R16391   3.441   1.716   5.158
  149SAPE   H7S16392   3.395   1.615   5.021
  149SAPE   C2816393   3.384   1.517   5.215
  149SAPE   H8R16394   3.394   1.541   5.322
  149SAPE   C2916395   3.380   1.387   5.180
  149SAPE   H9R16396   3.385   1.312   5.260
  149SAPE  C21016397   3.358   1.333   5.042
  149SAPE  H10R16398   3.345   1.417   4.971
  149SAPE  H10S16399   3.259   1.282   5.049
  149SAPE  C21116400   3.453   1.231   4.984
  149SAPE  H11R16401   3.491   1.154   5.054
  149SAPE  C21216402   3.489   1.226   4.855
  149SAPE  H12R16403   3.548   1.140   4.819
  149SAPE  C21316404   3.440   1.321   4.748
  149SAPE  H13R16405   3.452   1.426   4.782
  149SAPE  H13S16406   3.330   1.304   4.741
  149SAPE  C21416407   3.493   1.309   4.608
  149SAPE  H14R16408   3.572   1.380   4.581
  149SAPE  C21516409   3.444   1.226   4.514
  149SAPE  H15R16410   3.487   1.228   4.413
  149SAPE  C21616411   3.328   1.131   4.534
  149SAPE  H16R16412   3.312   1.108   4.642
  149SAPE  H16S16413   3.349   1.033   4.486
  149SAPE  C21716414   3.197   1.189   4.479
  149SAPE  H17R16415   3.207   1.215   4.371
  149SAPE  H17S16416   3.175   1.284   4.533
  149SAPE  C21816417   3.078   1.093   4.497
  149SAPE  H18R16418   2.987   1.153   4.519
  149SAPE  H18S16419   3.096   1.027   4.585
  149SAPE  C21916420   3.049   1.008   4.372
  149SAPE  H19R16421   3.138   0.944   4.351
  149SAPE  H19S16422   3.035   1.076   4.286
  149SAPE  C22016423   2.925   0.919   4.388
  149SAPE  H20R16424   2.938   0.849   4.472
  149SAPE  H20S16425   2.908   0.861   4.295
  149SAPE  H20T16426   2.836   0.982   4.408
  149SAPE   C3316427   2.737   1.174   5.348
  149SAPE   H3X16428   2.705   1.078   5.394
  149SAPE   H3Y16429   2.832   1.204   5.396
  149SAPE   C3416430   2.767   1.152   5.194
  149SAPE   H4X16431   2.755   1.253   5.150
  149SAPE   H4Y16432   2.689   1.089   5.146
  149SAPE   C3516433   2.907   1.098   5.146
  149SAPE   H5X16434   2.919   0.998   5.194
  149SAPE   H5Y16435   2.988   1.163   5.186
  149SAPE   C3616436   2.943   1.073   4.994
  149SAPE   H6X16437   2.865   1.003   4.957
  149SAPE   H6Y16438   3.039   1.017   4.991
  149SAPE   C3716439   2.954   1.186   4.885
  149SAPE   H7X16440   2.888   1.272   4.910
  149SAPE   H7Y16441   2.912   1.140   4.793
  149SAPE   C3816442   3.088   1.250   4.839
  149SAPE   H8X16443   3.095   1.233   4.729
  149SAPE   H8Y16444   3.172   1.194   4.884
  149SAPE   C3916445   3.110   1.405   4.856
  149SAPE   H9X16446   3.206   1.434   4.808
  149SAPE   H9Y16447   3.123   1.428   4.964
  149SAPE  C31016448   3.010   1.505   4.795
  149SAPE  H10X16449   2.951   1.553   4.875
  149SAPE  H10Y16450   2.941   1.447   4.730
  149SAPE  C31116451   3.070   1.619   4.708
  149SAPE  H11X16452   2.985   1.674   4.663
  149SAPE  H11Y16453   3.127   1.570   4.625
  149SAPE  C31216454   3.157   1.724   4.777
  149SAPE  H12X16455   3.250   1.678   4.818
  149SAPE  H12Y16456   3.098   1.765   4.862
  149SAPE  C31316457   3.194   1.845   4.687
  149SAPE  H13X16458   3.215   1.930   4.755
  149SAPE  H13Y16459   3.105   1.875   4.627
  149SAPE  C31416460   3.318   1.829   4.597
  149SAPE  H14X16461   3.404   1.798   4.661
  149SAPE  H14Y16462   3.343   1.929   4.555
  149SAPE  C31516463   3.306   1.730   4.480
  149SAPE  H15X16464   3.283   1.629   4.519
  149SAPE  H15Y16465   3.405   1.722   4.430
  149SAPE  C31616466   3.204   1.771   4.373
  149SAPE  H16X16467   3.251   1.839   4.300
  149SAPE  H16Y16468   3.120   1.826   4.421
  149SAPE  C31716469   3.141   1.651   4.300
  149SAPE  H17X16470   3.063   1.688   4.231
  149SAPE  H17Y16471   3.090   1.590   4.377
  149SAPE  C31816472   3.239   1.560   4.225
  149SAPE  H18X16473   3.302   1.618   4.155
  149SAPE  H18Y16474   3.182   1.484   4.167
  149SAPE  H18Z16475   3.305   1.506   4.297
  150SAPE     N16476   6.003   4.041   6.172
  150SAPE   HN116477   5.967   4.104   6.097
  150SAPE   HN216478   6.105   4.059   6.182
  150SAPE   HN316479   5.987   3.941   6.148
  150SAPE   C1216480   5.938   4.068   6.305
  150SAPE  H12A16481   5.830   4.045   6.293
  150SAPE  H12B16482   5.953   4.176   6.327
  150SAPE   C1116483   5.993   3.982   6.421
  150SAPE  H11A16484   5.963   4.032   6.516
  150SAPE  H11B16485   6.104   3.981   6.421
  150SAPE     P16486   5.975   3.746   6.311
  150SAPE   O1316487   5.978   3.607   6.360
  150SAPE   O1416488   5.896   3.784   6.192
  150SAPE   O1216489   5.938   3.849   6.424
  150SAPE   O1116490   6.122   3.794   6.280
  150SAPE    C116491   6.197   3.729   6.178
  150SAPE    HA16492   6.268   3.660   6.228
  150SAPE    HB16493   6.137   3.668   6.107
  150SAPE    C216494   6.277   3.833   6.095
  150SAPE    HS16495   6.305   3.917   6.161
  150SAPE   O2116496   6.194   3.879   5.985
  150SAPE   C2116497   6.255   3.952   5.892
  150SAPE   O2216498   6.367   4.000   5.902
  150SAPE   C2216499   6.170   3.967   5.766
  150SAPE   H2R16500   6.142   3.866   5.729
  150SAPE   H2S16501   6.078   4.023   5.792
  150SAPE    C316502   6.408   3.763   6.051
  150SAPE    HX16503   6.457   3.721   6.142
  150SAPE    HY16504   6.480   3.834   6.007
  150SAPE   O3116505   6.370   3.661   5.958
  150SAPE   C3116506   6.473   3.604   5.901
  150SAPE   O3216507   6.583   3.594   5.953
  150SAPE   C3216508   6.433   3.554   5.764
  150SAPE   H2X16509   6.386   3.454   5.776
  150SAPE   H2Y16510   6.525   3.545   5.703
  150SAPE   C2316511   6.251   4.043   5.656
  150SAPE   H3R16512   6.350   3.995   5.645
  150SAPE   H3S16513   6.268   4.148   5.689
  150SAPE   C2416514   6.189   4.045   5.514
  150SAPE   H4R16515   6.194   3.943   5.471
  150SAPE   H4S16516   6.255   4.109   5.451
  150SAPE   C2516517   6.048   4.095   5.507
  150SAPE   H5R16518   6.000   4.117   5.603
  150SAPE   C2616519   5.979   4.118   5.393
  150SAPE   H6R16520   5.875   4.155   5.402
  150SAPE   C2716521   6.027   4.099   5.252
  150SAPE   H7R16522   5.939   4.108   5.184
  150SAPE   H7S16523   6.061   3.994   5.240
  150SAPE   C2816524   6.133   4.197   5.206
  150SAPE   H8R16525   6.105   4.303   5.211
  150SAPE   C2916526   6.254   4.163   5.158
  150SAPE   H9R16527   6.324   4.243   5.126
  150SAPE  C21016528   6.304   4.022   5.143
  150SAPE  H10R16529   6.224   3.961   5.097
  150SAPE  H10S16530   6.319   3.978   5.244
  150SAPE  C21116531   6.432   4.005   5.065
  150SAPE  H11R16532   6.524   4.022   5.123
  150SAPE  C21216533   6.443   3.971   4.935
  150SAPE  H12R16534   6.543   3.961   4.891
  150SAPE  C21316535   6.328   3.942   4.841
  150SAPE  H13R16536   6.280   4.038   4.811
  150SAPE  H13S16537   6.249   3.887   4.897
  150SAPE  C21416538   6.365   3.857   4.722
  150SAPE  H14R16539   6.438   3.778   4.743
  150SAPE  C21516540   6.316   3.865   4.596
  150SAPE  H15R16541   6.351   3.790   4.524
  150SAPE  C21616542   6.212   3.961   4.541
  150SAPE  H16R16543   6.209   4.054   4.602
  150SAPE  H16S16544   6.115   3.912   4.564
  150SAPE  C21716545   6.193   4.003   4.391
  150SAPE  H17R16546   6.134   4.097   4.392
  150SAPE  H17S16547   6.128   3.926   4.344
  150SAPE  C21816548   6.313   4.026   4.295
  150SAPE  H18R16549   6.369   3.932   4.277
  150SAPE  H18S16550   6.386   4.098   4.337
  150SAPE  C21916551   6.271   4.089   4.160
  150SAPE  H19R16552   6.363   4.107   4.101
  150SAPE  H19S16553   6.227   4.188   4.182
  150SAPE  C22016554   6.172   4.009   4.075
  150SAPE  H20R16555   6.215   3.913   4.042
  150SAPE  H20S16556   6.146   4.066   3.983
  150SAPE  H20T16557   6.078   3.989   4.131
  150SAPE   C3316558   6.334   3.649   5.693
  150SAPE   H3X16559   6.388   3.742   5.664
  150SAPE   H3Y16560   6.249   3.676   5.759
  150SAPE   C3416561   6.277   3.582   5.570
  150SAPE   H4X16562   6.193   3.514   5.598
  150SAPE   H4Y16563   6.356   3.518   5.525
  150SAPE   C3516564   6.231   3.680   5.463
  150SAPE   H5X16565   6.314   3.749   5.438
  150SAPE   H5Y16566   6.146   3.739   5.503
  150SAPE   C3616567   6.187   3.608   5.335
  150SAPE   H6X16568   6.099   3.544   5.359
  150SAPE   H6Y16569   6.267   3.542   5.298
  150SAPE   C3716570   6.150   3.710   5.228
  150SAPE   H7X16571   6.241   3.765   5.197
  150SAPE   H7Y16572   6.079   3.783   5.274
  150SAPE   C3816573   6.082   3.649   5.105
  150SAPE   H8X16574   6.006   3.576   5.140
  150SAPE   H8Y16575   6.157   3.595   5.043
  150SAPE   C3916576   6.011   3.757   5.023
  150SAPE   H9X16577   6.083   3.830   4.981
  150SAPE   H9Y16578   5.945   3.814   5.092
  150SAPE  C31016579   5.924   3.699   4.912
  150SAPE  H10X16580   5.848   3.776   4.885
  150SAPE  H10Y16581   5.869   3.612   4.953
  150SAPE  C31116582   5.997   3.658   4.783
  150SAPE  H11X16583   6.074   3.581   4.805
  150SAPE  H11Y16584   6.049   3.746   4.741
  150SAPE  C31216585   5.893   3.604   4.685
  150SAPE  H12X16586   5.811   3.679   4.685
  150SAPE  H12Y16587   5.851   3.509   4.725
  150SAPE  C31316588   5.929   3.579   4.538
  150SAPE  H13X16589   5.834   3.560   4.483
  150SAPE  H13Y16590   5.989   3.486   4.528
  150SAPE  C31416591   6.003   3.693   4.469
  150SAPE  H14X16592   6.105   3.702   4.513
  150SAPE  H14Y16593   5.950   3.788   4.488
  150SAPE  C31516594   6.014   3.671   4.318
  150SAPE  H15X16595   6.010   3.768   4.264
  150SAPE  H15Y16596   5.927   3.611   4.284
  150SAPE  C31616597   6.144   3.602   4.279
  150SAPE  H16X16598   6.127   3.544   4.186
  150SAPE  H16Y16599   6.173   3.533   4.361
  150SAPE  C31716600   6.258   3.699   4.258
  150SAPE  H17X16601   6.273   3.752   4.355
  150SAPE  H17Y16602   6.226   3.775   4.183
  150SAPE  C31816603   6.389   3.639   4.214
  150SAPE  H18X16604   6.417   3.553   4.279
  150SAPE  H18Y16605   6.470   3.715   4.217
  150SAPE  H18Z16606   6.379   3.604   4.109
  151SAPE     N16607   5.033   1.793   6.197
  151SAPE   HN116608   4.929   1.794   6.198
  151SAPE   HN216609   5.070   1.746   6.112
  151SAPE   HN316610   5.069   1.738   6.278
  151SAPE   C1216611   5.092   1.931   6.211
  151SAPE  H12A16612   5.046   1.979   6.300
  151SAPE  H12B16613   5.065   1.989   6.120
  151SAPE   C1116614   5.244   1.924   6.229
  151SAPE  H11A16615   5.284   2.028   6.235
  151SAPE  H11B16616   5.289   1.878   6.139
  151SAPE     P16617   5.342   1.711   6.353
  151SAPE   O1316618   5.486   1.726   6.325
  151SAPE   O1416619   5.305   1.648   6.481
  151SAPE   O1216620   5.278   1.855   6.349
  151SAPE   O1116621   5.263   1.646   6.231
  151SAPE    C116622   5.319   1.546   6.145
  151SAPE    HA16623   5.342   1.453   6.201
  151SAPE    HB16624   5.242   1.519   6.069
  151SAPE    C216625   5.446   1.590   6.067
  151SAPE    HS16626   5.530   1.580   6.139
  151SAPE   O2116627   5.431   1.727   6.023
  151SAPE   C2116628   5.545   1.797   6.027
  151SAPE   O2216629   5.655   1.752   6.055
  151SAPE   C2216630   5.517   1.944   6.005
  151SAPE   H2R16631   5.424   1.954   5.944
  151SAPE   H2S16632   5.497   1.987   6.106
  151SAPE    C316633   5.480   1.498   5.946
  151SAPE    HX16634   5.539   1.411   5.984
  151SAPE    HY16635   5.546   1.559   5.882
  151SAPE   O3116636   5.364   1.447   5.876
  151SAPE   C3116637   5.396   1.407   5.752
  151SAPE   O3216638   5.493   1.446   5.689
  151SAPE   C3216639   5.295   1.306   5.699
  151SAPE   H2X16640   5.219   1.284   5.777
  151SAPE   H2Y16641   5.353   1.214   5.680
  151SAPE   C2316642   5.635   2.021   5.941
  151SAPE   H3R16643   5.733   1.982   5.975
  151SAPE   H3S16644   5.629   2.126   5.977
  151SAPE   C2416645   5.627   2.028   5.787
  151SAPE   H4R16646   5.645   2.133   5.756
  151SAPE   H4S16647   5.521   2.004   5.763
  151SAPE   C2516648   5.717   1.938   5.709
  151SAPE   H5R16649   5.824   1.957   5.724
  151SAPE   C2616650   5.680   1.852   5.613
  151SAPE   H6R16651   5.758   1.790   5.566
  151SAPE   C2716652   5.539   1.828   5.564
  151SAPE   H7R16653   5.508   1.917   5.506
  151SAPE   H7S16654   5.470   1.822   5.650
  151SAPE   C2816655   5.520   1.704   5.479
  151SAPE   H8R16656   5.498   1.613   5.537
  151SAPE   C2916657   5.527   1.693   5.345
  151SAPE   H9R16658   5.514   1.594   5.301
  151SAPE  C21016659   5.558   1.803   5.247
  151SAPE  H10R16660   5.666   1.798   5.222
  151SAPE  H10S16661   5.543   1.904   5.292
  151SAPE  C21116662   5.477   1.794   5.120
  151SAPE  H11R16663   5.381   1.741   5.126
  151SAPE  C21216664   5.515   1.842   5.000
  151SAPE  H12R16665   5.449   1.832   4.914
  151SAPE  C21316666   5.645   1.914   4.975
  151SAPE  H13R16667   5.728   1.840   4.981
  151SAPE  H13S16668   5.664   1.987   5.056
  151SAPE  C21416669   5.654   1.986   4.843
  151SAPE  H14R16670   5.667   2.094   4.857
  151SAPE  C21516671   5.655   1.938   4.717
  151SAPE  H15R16672   5.666   2.011   4.635
  151SAPE  C21616673   5.649   1.795   4.671
  151SAPE  H16R16674   5.680   1.790   4.565
  151SAPE  H16S16675   5.544   1.758   4.676
  151SAPE  C21716676   5.739   1.699   4.750
  151SAPE  H17R16677   5.688   1.678   4.847
  151SAPE  H17S16678   5.838   1.743   4.775
  151SAPE  C21816679   5.759   1.565   4.679
  151SAPE  H18R16680   5.666   1.545   4.623
  151SAPE  H18S16681   5.770   1.487   4.758
  151SAPE  C21916682   5.879   1.551   4.585
  151SAPE  H19R16683   5.970   1.588   4.636
  151SAPE  H19S16684   5.862   1.613   4.495
  151SAPE  C22016685   5.903   1.405   4.544
  151SAPE  H20R16686   5.813   1.360   4.496
  151SAPE  H20S16687   5.927   1.344   4.633
  151SAPE  H20T16688   5.987   1.397   4.471
  151SAPE   C3316689   5.229   1.353   5.567
  151SAPE   H3X16690   5.226   1.265   5.500
  151SAPE   H3Y16691   5.291   1.429   5.515
  151SAPE   C3416692   5.084   1.401   5.583
  151SAPE   H4X16693   5.023   1.316   5.617
  151SAPE   H4Y16694   5.046   1.430   5.483
  151SAPE   C3516695   5.064   1.518   5.681
  151SAPE   H5X16696   5.092   1.485   5.783
  151SAPE   H5Y16697   4.956   1.543   5.682
  151SAPE   C3616698   5.141   1.647   5.646
  151SAPE   H6X16699   5.250   1.630   5.660
  151SAPE   H6Y16700   5.111   1.727   5.717
  151SAPE   C3716701   5.117   1.694   5.503
  151SAPE   H7X16702   5.008   1.700   5.481
  151SAPE   H7Y16703   5.160   1.618   5.434
  151SAPE   C3816704   5.184   1.828   5.472
  151SAPE   H8X16705   5.281   1.831   5.526
  151SAPE   H8Y16706   5.122   1.913   5.509
  151SAPE   C3916707   5.213   1.843   5.322
  151SAPE   H9X16708   5.247   1.745   5.283
  151SAPE   H9Y16709   5.295   1.916   5.307
  151SAPE  C31016710   5.091   1.890   5.243
  151SAPE  H10X16711   5.061   1.988   5.286
  151SAPE  H10Y16712   5.007   1.819   5.258
  151SAPE  C31116713   5.118   1.909   5.093
  151SAPE  H11X16714   5.216   1.957   5.075
  151SAPE  H11Y16715   5.039   1.977   5.054
  151SAPE  C31216716   5.103   1.779   5.012
  151SAPE  H12X16717   5.013   1.726   5.050
  151SAPE  H12Y16718   5.190   1.712   5.028
  151SAPE  C31316719   5.081   1.805   4.862
  151SAPE  H13X16720   5.014   1.892   4.847
  151SAPE  H13Y16721   5.027   1.716   4.824
  151SAPE  C31416722   5.211   1.824   4.782
  151SAPE  H14X16723   5.285   1.750   4.820
  151SAPE  H14Y16724   5.251   1.926   4.800
  151SAPE  C31516725   5.196   1.799   4.631
  151SAPE  H15X16726   5.294   1.818   4.582
  151SAPE  H15Y16727   5.122   1.869   4.588
  151SAPE  C31616728   5.153   1.654   4.601
  151SAPE  H16X16729   5.048   1.639   4.635
  151SAPE  H16Y16730   5.217   1.585   4.659
  151SAPE  C31716731   5.160   1.615   4.453
  151SAPE  H17X16732   5.266   1.611   4.422
  151SAPE  H17Y16733   5.109   1.693   4.392
  151SAPE  C31816734   5.093   1.480   4.429
  151SAPE  H18X16735   4.983   1.487   4.444
  151SAPE  H18Y16736   5.133   1.405   4.500
  151SAPE  H18Z16737   5.112   1.443   4.325
  152SAPE     N16738   1.258   2.983   6.393
  152SAPE   HN116739   1.287   2.942   6.302
  152SAPE   HN216740   1.202   3.068   6.373
  152SAPE   HN316741   1.343   3.004   6.449
  152SAPE   C1216742   1.173   2.880   6.461
  152SAPE  H12A16743   1.069   2.894   6.423
  152SAPE  H12B16744   1.175   2.900   6.570
  152SAPE   C1116745   1.224   2.740   6.426
  152SAPE  H11A16746   1.156   2.662   6.467
  152SAPE  H11B16747   1.322   2.726   6.475
  152SAPE     P16748   1.121   2.705   6.185
  152SAPE   O1316749   1.017   2.622   6.250
  152SAPE   O1416750   1.081   2.843   6.148
  152SAPE   O1216751   1.243   2.723   6.286
  152SAPE   O1116752   1.186   2.630   6.063
  152SAPE    C116753   1.326   2.603   6.047
  152SAPE    HA16754   1.367   2.672   5.970
  152SAPE    HB16755   1.384   2.623   6.139
  152SAPE    C216756   1.359   2.454   6.010
  152SAPE    HS16757   1.470   2.440   6.009
  152SAPE   O2116758   1.309   2.416   5.881
  152SAPE   C2116759   1.362   2.474   5.775
  152SAPE   O2216760   1.448   2.560   5.777
  152SAPE   C2216761   1.305   2.411   5.648
  152SAPE   H2R16762   1.237   2.327   5.675
  152SAPE   H2S16763   1.248   2.488   5.592
  152SAPE    C316764   1.305   2.356   6.119
  152SAPE    HX16765   1.350   2.386   6.216
  152SAPE    HY16766   1.341   2.253   6.097
  152SAPE   O3116767   1.161   2.364   6.130
  152SAPE   C3116768   1.101   2.299   6.032
  152SAPE   O3216769   1.139   2.193   5.985
  152SAPE   C3216770   0.979   2.374   5.982
  152SAPE   H2X16771   0.941   2.438   6.064
  152SAPE   H2Y16772   0.906   2.295   5.954
  152SAPE   C2316773   1.422   2.358   5.562
  152SAPE   H3R16774   1.480   2.287   5.625
  152SAPE   H3S16775   1.486   2.444   5.536
  152SAPE   C2416776   1.380   2.286   5.433
  152SAPE   H4R16777   1.342   2.365   5.363
  152SAPE   H4S16778   1.295   2.217   5.455
  152SAPE   C2516779   1.494   2.208   5.372
  152SAPE   H5R16780   1.549   2.146   5.444
  152SAPE   C2616781   1.529   2.199   5.242
  152SAPE   H6R16782   1.614   2.135   5.215
  152SAPE   C2716783   1.461   2.264   5.125
  152SAPE   H7R16784   1.529   2.275   5.038
  152SAPE   H7S16785   1.424   2.366   5.150
  152SAPE   C2816786   1.349   2.171   5.090
  152SAPE   H8R16787   1.380   2.077   5.041
  152SAPE   C2916788   1.220   2.187   5.118
  152SAPE   H9R16789   1.155   2.103   5.089
  152SAPE  C21016790   1.151   2.302   5.190
  152SAPE  H10R16791   1.217   2.391   5.194
  152SAPE  H10S16792   1.133   2.273   5.296
  152SAPE  C21116793   1.019   2.343   5.130
  152SAPE  H11R16794   0.931   2.331   5.195
  152SAPE  C21216795   1.003   2.390   5.006
  152SAPE  H12R16796   0.902   2.415   4.969
  152SAPE  C21316797   1.116   2.409   4.907
  152SAPE  H13R16798   1.142   2.310   4.864
  152SAPE  H13S16799   1.208   2.444   4.957
  152SAPE  C21416800   1.077   2.505   4.797
  152SAPE  H14R16801   1.101   2.611   4.818
  152SAPE  C21516802   1.020   2.472   4.680
  152SAPE  H15R16803   1.000   2.551   4.606
  152SAPE  C21616804   0.983   2.332   4.636
  152SAPE  H16R16805   0.881   2.331   4.592
  152SAPE  H16S16806   0.981   2.261   4.721
  152SAPE  C21716807   1.084   2.279   4.533
  152SAPE  H17R16808   1.083   2.344   4.442
  152SAPE  H17S16809   1.052   2.178   4.501
  152SAPE  C21816810   1.227   2.270   4.587
  152SAPE  H18R16811   1.229   2.207   4.678
  152SAPE  H18S16812   1.262   2.371   4.616
  152SAPE  C21916813   1.325   2.212   4.485
  152SAPE  H19R16814   1.427   2.245   4.513
  152SAPE  H19S16815   1.304   2.255   4.384
  152SAPE  C22016816   1.321   2.060   4.480
  152SAPE  H20R16817   1.223   2.026   4.440
  152SAPE  H20S16818   1.333   2.017   4.581
  152SAPE  H20T16819   1.401   2.020   4.414
  152SAPE   C3316820   1.008   2.461   5.857
  152SAPE   H3X16821   1.014   2.397   5.766
  152SAPE   H3Y16822   1.107   2.510   5.871
  152SAPE   C3416823   0.913   2.579   5.834
  152SAPE   H4X16824   0.920   2.648   5.920
  152SAPE   H4Y16825   0.808   2.544   5.828
  152SAPE   C3516826   0.948   2.654   5.705
  152SAPE   H5X16827   0.867   2.728   5.687
  152SAPE   H5Y16828   0.946   2.582   5.620
  152SAPE   C3616829   1.084   2.724   5.710
  152SAPE   H6X16830   1.164   2.647   5.712
  152SAPE   H6Y16831   1.092   2.780   5.806
  152SAPE   C3716832   1.115   2.820   5.594
  152SAPE   H7X16833   1.223   2.849   5.598
  152SAPE   H7Y16834   1.059   2.915   5.609
  152SAPE   C3816835   1.080   2.770   5.454
  152SAPE   H8X16836   1.070   2.860   5.390
  152SAPE   H8Y16837   0.981   2.720   5.451
  152SAPE   C3916838   1.189   2.681   5.394
  152SAPE   H9X16839   1.157   2.575   5.393
  152SAPE   H9Y16840   1.280   2.688   5.458
  152SAPE  C31016841   1.227   2.728   5.254
  152SAPE  H10X16842   1.238   2.838   5.253
  152SAPE  H10Y16843   1.146   2.701   5.183
  152SAPE  C31116844   1.359   2.668   5.207
  152SAPE  H11X16845   1.354   2.557   5.213
  152SAPE  H11Y16846   1.442   2.701   5.274
  152SAPE  C31216847   1.389   2.710   5.063
  152SAPE  H12X16848   1.394   2.821   5.058
  152SAPE  H12Y16849   1.304   2.678   4.999
  152SAPE  C31316850   1.520   2.651   5.008
  152SAPE  H13X16851   1.515   2.540   5.009
  152SAPE  H13Y16852   1.603   2.682   5.075
  152SAPE  C31416853   1.550   2.702   4.866
  152SAPE  H14X16854   1.654   2.676   4.840
  152SAPE  H14Y16855   1.541   2.812   4.866
  152SAPE  C31516856   1.457   2.643   4.759
  152SAPE  H15X16857   1.353   2.633   4.799
  152SAPE  H15Y16858   1.491   2.540   4.734
  152SAPE  C31616859   1.449   2.730   4.633
  152SAPE  H16X16860   1.551   2.749   4.594
  152SAPE  H16Y16861   1.405   2.828   4.662
  152SAPE  C31716862   1.363   2.668   4.522
  152SAPE  H17X16863   1.342   2.746   4.445
  152SAPE  H17Y16864   1.265   2.637   4.565
  152SAPE  C31816865   1.428   2.549   4.453
  152SAPE  H18X16866   1.361   2.507   4.375
  152SAPE  H18Y16867   1.450   2.469   4.527
  152SAPE  H18Z16868   1.524   2.579   4.405
  153SAPE     N16869   6.502   3.444   6.175
  153SAPE   HN116870   6.552   3.514   6.116
  153SAPE   HN216871   6.560   3.358   6.168
  153SAPE   HN316872   6.406   3.426   6.142
  153SAPE   C1216873   6.509   3.482   6.320
  153SAPE  H12A16874   6.479   3.392   6.378
  153SAPE  H12B16875   6.437   3.564   6.340
  153SAPE   C1116876   6.652   3.523   6.361
  153SAPE  H11A16877   6.665   3.510   6.471
  153SAPE  H11B16878   6.665   3.631   6.340
  153SAPE     P16879   6.768   3.295   6.303
  153SAPE   O1316880   6.744   3.258   6.444
  153SAPE   O1416881   6.674   3.241   6.202
  153SAPE   O1216882   6.752   3.451   6.289
  153SAPE   O1116883   6.918   3.275   6.260
  153SAPE    C116884   7.021   3.351   6.326
  153SAPE    HA16885   6.983   3.441   6.378
  153SAPE    HB16886   7.070   3.287   6.402
  153SAPE    C216887   7.132   3.399   6.227
  153SAPE    HS16888   7.200   3.469   6.282
  153SAPE   O2116889   7.078   3.465   6.111
  153SAPE   C2116890   7.012   3.576   6.125
  153SAPE   O2216891   6.992   3.639   6.227
  153SAPE   C2216892   6.973   3.622   5.985
  153SAPE   H2R16893   7.066   3.654   5.932
  153SAPE   H2S16894   6.931   3.535   5.931
  153SAPE    C316895   7.219   3.280   6.177
  153SAPE    HX16896   7.265   3.233   6.266
  153SAPE    HY16897   7.301   3.317   6.113
  153SAPE   O3116898   7.138   3.181   6.111
  153SAPE   C3116899   7.096   3.216   5.991
  153SAPE   O3216900   7.156   3.286   5.911
  153SAPE   C3216901   6.964   3.149   5.962
  153SAPE   H2X16902   6.925   3.098   6.053
  153SAPE   H2Y16903   6.978   3.075   5.881
  153SAPE   C2316904   6.870   3.737   5.985
  153SAPE   H3R16905   6.914   3.829   6.028
  153SAPE   H3S16906   6.786   3.707   6.051
  153SAPE   C2416907   6.813   3.761   5.844
  153SAPE   H4R16908   6.715   3.813   5.854
  153SAPE   H4S16909   6.787   3.662   5.801
  153SAPE   C2516910   6.906   3.841   5.756
  153SAPE   H5R16911   6.909   3.949   5.776
  153SAPE   C2616912   6.981   3.793   5.656
  153SAPE   H6R16913   7.045   3.863   5.600
  153SAPE   C2716914   6.987   3.650   5.612
  153SAPE   H7R16915   6.922   3.583   5.672
  153SAPE   H7S16916   7.090   3.611   5.627
  153SAPE   C2816917   6.941   3.643   5.468
  153SAPE   H8R16918   6.842   3.686   5.447
  153SAPE   C2916919   7.010   3.587   5.368
  153SAPE   H9R16920   6.966   3.585   5.267
  153SAPE  C21016921   7.145   3.521   5.381
  153SAPE  H10R16922   7.203   3.570   5.462
  153SAPE  H10S16923   7.204   3.540   5.289
  153SAPE  C21116924   7.137   3.374   5.410
  153SAPE  H11R16925   7.167   3.343   5.511
  153SAPE  C21216926   7.094   3.282   5.322
  153SAPE  H12R16927   7.090   3.176   5.352
  153SAPE  C21316928   7.047   3.313   5.182
  153SAPE  H13R16929   7.062   3.420   5.156
  153SAPE  H13S16930   6.938   3.294   5.174
  153SAPE  C21416931   7.121   3.229   5.082
  153SAPE  H14R16932   7.163   3.135   5.120
  153SAPE  C21516933   7.139   3.259   4.953
  153SAPE  H15R16934   7.201   3.190   4.893
  153SAPE  C21616935   7.094   3.378   4.873
  153SAPE  H16R16936   7.046   3.457   4.936
  153SAPE  H16S16937   7.017   3.345   4.800
  153SAPE  C21716938   7.213   3.436   4.794
  153SAPE  H17R16939   7.287   3.357   4.771
  153SAPE  H17S16940   7.268   3.510   4.856
  153SAPE  C21816941   7.173   3.497   4.659
  153SAPE  H18R16942   7.110   3.587   4.675
  153SAPE  H18S16943   7.112   3.423   4.603
  153SAPE  C21916944   7.296   3.533   4.575
  153SAPE  H19R16945   0.053   3.441   4.559
  153SAPE  H19S16946   0.055   3.605   4.631
  153SAPE  C22016947   7.260   3.592   4.439
  153SAPE  H20R16948   7.192   3.524   4.383
  153SAPE  H20S16949   0.048   3.608   4.377
  153SAPE  H20T16950   7.209   3.690   4.452
  153SAPE   C3316951   6.866   3.256   5.915
  153SAPE   H3X16952   6.913   3.317   5.835
  153SAPE   H3Y16953   6.841   3.324   5.999
  153SAPE   C3416954   6.738   3.194   5.861
  153SAPE   H4X16955   6.683   3.146   5.945
  153SAPE   H4Y16956   6.759   3.117   5.784
  153SAPE   C3516957   6.656   3.307   5.801
  153SAPE   H5X16958   6.660   3.390   5.874
  153SAPE   H5Y16959   6.549   3.276   5.791
  153SAPE   C3616960   6.712   3.356   5.667
  153SAPE   H6X16961   6.810   3.307   5.645
  153SAPE   H6Y16962   6.732   3.465   5.676
  153SAPE   C3716963   6.619   3.332   5.549
  153SAPE   H7X16964   6.518   3.374   5.573
  153SAPE   H7Y16965   6.606   3.223   5.530
  153SAPE   C3816966   6.669   3.402   5.423
  153SAPE   H8X16967   6.717   3.325   5.359
  153SAPE   H8Y16968   6.749   3.474   5.452
  153SAPE   C3916969   6.559   3.481   5.352
  153SAPE   H9X16970   6.531   3.568   5.415
  153SAPE   H9Y16971   6.469   3.418   5.339
  153SAPE  C31016972   6.602   3.534   5.215
  153SAPE  H10X16973   6.693   3.596   5.227
  153SAPE  H10Y16974   6.522   3.598   5.172
  153SAPE  C31116975   6.632   3.420   5.117
  153SAPE  H11X16976   6.538   3.367   5.089
  153SAPE  H11Y16977   6.698   3.344   5.164
  153SAPE  C31216978   6.705   3.469   4.993
  153SAPE  H12X16979   6.767   3.385   4.955
  153SAPE  H12Y16980   6.776   3.551   5.019
  153SAPE  C31316981   6.609   3.514   4.883
  153SAPE  H13X16982   6.628   3.621   4.860
  153SAPE  H13Y16983   6.504   3.505   4.916
  153SAPE  C31416984   6.629   3.427   4.759
  153SAPE  H14X16985   6.582   3.328   4.778
  153SAPE  H14Y16986   6.738   3.412   4.743
  153SAPE  C31516987   6.573   3.488   4.632
  153SAPE  H15X16988   6.471   3.528   4.651
  153SAPE  H15Y16989   6.565   3.410   4.553
  153SAPE  C31616990   6.665   3.599   4.581
  153SAPE  H16X16991   6.766   3.559   4.560
  153SAPE  H16Y16992   6.676   3.677   4.659
  153SAPE  C31716993   6.607   3.663   4.456
  153SAPE  H17X16994   6.498   3.677   4.471
  153SAPE  H17Y16995   6.619   3.591   4.371
  153SAPE  C31816996   6.672   3.796   4.422
  153SAPE  H18X16997   6.776   3.777   4.386
  153SAPE  H18Y16998   6.678   3.861   4.512
  153SAPE  H18Z16999   6.616   3.849   4.343
  154SAPE     N17000   4.386   7.288   6.202
  154SAPE   HN117001   4.407   7.269   6.303
  154SAPE   HN217002   4.408   0.085   6.187
  154SAPE   HN317003   4.285   7.269   6.188
  154SAPE   C1217004   4.470   7.194   6.118
  154SAPE  H12A17005   4.575   7.205   6.151
  154SAPE  H12B17006   4.460   7.224   6.012
  154SAPE   C1117007   4.424   7.049   6.139
  154SAPE  H11A17008   4.493   6.978   6.088
  154SAPE  H11B17009   4.325   7.037   6.089
  154SAPE     P17010   4.531   6.992   6.372
  154SAPE   O1317011   4.572   7.124   6.425
  154SAPE   O1417012   4.500   6.888   6.472
  154SAPE   O1217013   4.407   7.018   6.277
  154SAPE   O1117014   4.648   6.948   6.275
  154SAPE    C117015   4.735   6.838   6.304
  154SAPE    HA17016   4.840   6.874   6.303
  154SAPE    HB17017   4.719   6.793   6.405
  154SAPE    C217018   4.725   6.721   6.201
  154SAPE    HS17019   4.820   6.662   6.205
  154SAPE   O2117020   4.703   6.772   6.068
  154SAPE   C2117021   4.804   6.841   6.021
  154SAPE   O2217022   4.917   6.846   6.066
  154SAPE   C2217023   4.756   6.931   5.907
  154SAPE   H2R17024   4.679   7.000   5.948
  154SAPE   H2S17025   4.846   6.990   5.880
  154SAPE    C317026   4.611   6.623   6.236
  154SAPE    HX17027   4.630   6.578   6.336
  154SAPE    HY17028   4.619   6.540   6.162
  154SAPE   O3117029   4.483   6.690   6.238
  154SAPE   C3117030   4.392   6.641   6.156
  154SAPE   O3217031   4.405   6.542   6.088
  154SAPE   C3217032   4.269   6.730   6.147
  154SAPE   H2X17033   4.279   6.815   6.218
  154SAPE   H2Y17034   4.183   6.667   6.176
  154SAPE   C2317035   4.703   6.868   5.775
  154SAPE   H3R17036   4.787   6.841   5.708
  154SAPE   H3S17037   4.646   6.949   5.724
  154SAPE   C2417038   4.610   6.746   5.793
  154SAPE   H4R17039   4.543   6.770   5.878
  154SAPE   H4S17040   4.672   6.660   5.826
  154SAPE   C2517041   4.522   6.701   5.679
  154SAPE   H5R17042   4.443   6.634   5.716
  154SAPE   C2617043   4.525   6.724   5.546
  154SAPE   H6R17044   4.447   6.675   5.486
  154SAPE   C2717045   4.619   6.806   5.460
  154SAPE   H7R17046   4.620   6.763   5.358
  154SAPE   H7S17047   4.723   6.794   5.497
  154SAPE   C2817048   4.589   6.954   5.455
  154SAPE   H8R17049   4.552   6.997   5.550
  154SAPE   C2917050   4.599   7.035   5.349
  154SAPE   H9R17051   4.577   7.142   5.365
  154SAPE  C21017052   4.643   6.999   5.209
  154SAPE  H10R17053   4.599   6.902   5.179
  154SAPE  H10S17054   4.753   6.986   5.206
  154SAPE  C21117055   4.598   7.106   5.111
  154SAPE  H11R17056   4.514   7.168   5.145
  154SAPE  C21217057   4.647   7.130   4.989
  154SAPE  H12R17058   4.602   7.212   4.930
  154SAPE  C21317059   4.758   7.058   4.918
  154SAPE  H13R17060   4.717   7.001   4.832
  154SAPE  H13S17061   4.808   6.982   4.983
  154SAPE  C21417062   4.860   7.159   4.871
  154SAPE  H14R17063   4.940   7.180   4.943
  154SAPE  C21517064   4.861   7.225   4.753
  154SAPE  H15R17065   4.942   7.296   4.734
  154SAPE  C21617066   4.761   7.211   4.641
  154SAPE  H16R17067   4.690   7.297   4.645
  154SAPE  H16S17068   4.699   7.120   4.648
  154SAPE  C21717069   4.828   7.216   4.502
  154SAPE  H17R17070   4.915   7.285   4.502
  154SAPE  H17S17071   4.756   7.256   4.429
  154SAPE  C21817072   4.872   7.078   4.452
  154SAPE  H18R17073   4.886   7.009   4.538
  154SAPE  H18S17074   4.970   7.087   4.400
  154SAPE  C21917075   4.770   7.020   4.355
  154SAPE  H19R17076   4.752   7.092   4.272
  154SAPE  H19S17077   4.673   7.005   4.408
  154SAPE  C22017078   4.817   6.888   4.296
  154SAPE  H20R17079   4.905   6.906   4.230
  154SAPE  H20S17080   4.737   6.840   4.237
  154SAPE  H20T17081   4.847   6.820   4.378
  154SAPE   C3317082   4.254   6.776   6.000
  154SAPE   H3X17083   4.263   6.688   5.933
  154SAPE   H3Y17084   4.336   6.845   5.971
  154SAPE   C3417085   4.118   6.842   5.972
  154SAPE   H4X17086   4.116   6.946   6.011
  154SAPE   H4Y17087   4.039   6.784   6.025
  154SAPE   C3517088   4.081   6.839   5.823
  154SAPE   H5X17089   3.978   6.881   5.811
  154SAPE   H5Y17090   4.076   6.733   5.790
  154SAPE   C3617091   4.175   6.914   5.728
  154SAPE   H6X17092   4.278   6.872   5.735
  154SAPE   H6Y17093   4.180   7.022   5.756
  154SAPE   C3717094   4.126   6.901   5.583
  154SAPE   H7X17095   4.023   6.943   5.574
  154SAPE   H7Y17096   4.118   6.793   5.559
  154SAPE   C3817097   4.216   6.967   5.478
  154SAPE   H8X17098   4.314   6.913   5.477
  154SAPE   H8Y17099   4.236   7.073   5.503
  154SAPE   C3917100   4.155   6.959   5.337
  154SAPE   H9X17101   4.074   7.034   5.327
  154SAPE   H9Y17102   4.109   6.859   5.323
  154SAPE  C31017103   4.259   6.978   5.226
  154SAPE  H10X17104   4.337   6.901   5.237
  154SAPE  H10Y17105   4.307   7.077   5.237
  154SAPE  C31117106   4.199   6.966   5.084
  154SAPE  H11X17107   4.131   7.052   5.066
  154SAPE  H11Y17108   4.140   6.873   5.076
  154SAPE  C31217109   4.310   6.964   4.978
  154SAPE  H12X17110   4.373   6.873   4.991
  154SAPE  H12Y17111   4.374   7.053   4.994
  154SAPE  C31317112   4.261   6.973   4.833
  154SAPE  H13X17113   4.206   7.069   4.824
  154SAPE  H13Y17114   4.189   6.891   4.811
  154SAPE  C31417115   4.376   6.972   4.732
  154SAPE  H14X17116   4.464   7.028   4.772
  154SAPE  H14Y17117   4.345   7.023   4.638
  154SAPE  C31517118   4.416   6.829   4.693
  154SAPE  H15X17119   4.324   6.775   4.665
  154SAPE  H15Y17120   4.459   6.777   4.782
  154SAPE  C31617121   4.515   6.820   4.576
  154SAPE  H16X17122   4.615   6.856   4.607
  154SAPE  H16Y17123   4.479   6.884   4.492
  154SAPE  C31717124   4.522   6.674   4.529
  154SAPE  H17X17125   4.421   6.649   4.489
  154SAPE  H17Y17126   4.541   6.612   4.619
  154SAPE  C31817127   4.626   6.639   4.423
  154SAPE  H18X17128   4.728   6.662   4.460
  154SAPE  H18Y17129   4.607   6.696   4.329
  154SAPE  H18Z17130   4.621   6.531   4.399
  155SAPE     N17131   5.469   0.042   6.201
  155SAPE   HN117132   5.523   0.122   6.239
  155SAPE   HN217133   5.416   7.302   6.279
  155SAPE   HN317134   5.534   7.275   6.160
  155SAPE   C1217135   5.368   0.096   6.103
  155SAPE  H12A17136   5.404   0.076   6.000
  155SAPE  H12B17137   5.362   0.206   6.117
  155SAPE   C1117138   5.229   0.034   6.127
  155SAPE  H11A17139   5.233   7.229   6.106
  155SAPE  H11B17140   5.159   0.077   6.052
  155SAPE     P17141   5.087   0.176   6.296
  155SAPE   O1317142   5.036   0.159   6.435
  155SAPE   O1417143   5.162   0.300   6.269
  155SAPE   O1217144   5.184   0.054   6.262
  155SAPE   O1117145   4.968   0.157   6.193
  155SAPE    C117146   4.901   0.030   6.181
  155SAPE    HA17147   4.968   7.249   6.206
  155SAPE    HB17148   4.816   0.028   6.253
  155SAPE    C217149   4.844   7.303   6.039
  155SAPE    HS17150   4.792   7.206   6.048
  155SAPE   O2117151   4.955   7.289   5.946
  155SAPE   C2117152   4.922   7.232   5.830
  155SAPE   O2217153   4.808   7.204   5.797
  155SAPE   C2217154   5.048   7.197   5.750
  155SAPE   H2R17155   5.062   7.278   5.676
  155SAPE   H2S17156   5.136   7.194   5.819
  155SAPE    C317157   4.737   0.106   5.995
  155SAPE    HX17158   4.664   0.113   6.078
  155SAPE    HY17159   4.679   0.069   5.907
  155SAPE   O3117160   4.793   0.236   5.974
  155SAPE   C3117161   4.837   0.259   5.851
  155SAPE   O3217162   4.805   0.195   5.752
  155SAPE   C3217163   4.936   0.373   5.852
  155SAPE   H2X17164   4.925   0.430   5.947
  155SAPE   H2Y17165   4.912   0.440   5.766
  155SAPE   C2317166   5.035   7.061   5.676
  155SAPE   H3R17167   4.941   7.060   5.618
  155SAPE   H3S17168   5.027   6.978   5.750
  155SAPE   C2417169   5.151   7.026   5.580
  155SAPE   H4R17170   5.120   6.938   5.520
  155SAPE   H4S17171   5.237   6.992   5.642
  155SAPE   C2517172   5.199   7.135   5.487
  155SAPE   H5R17173   5.298   7.175   5.513
  155SAPE   C2617174   5.136   7.186   5.379
  155SAPE   H6R17175   5.187   7.264   5.322
  155SAPE   C2717176   5.001   7.149   5.323
  155SAPE   H7R17177   4.989   7.038   5.323
  155SAPE   H7S17178   4.997   7.179   5.216
  155SAPE   C2817179   4.884   7.210   5.398
  155SAPE   H8R17180   4.833   7.142   5.467
  155SAPE   C2917181   4.835   0.031   5.386
  155SAPE   H9R17182   4.750   0.060   5.450
  155SAPE  C21017183   4.888   0.138   5.293
  155SAPE  H10R17184   4.904   0.094   5.193
  155SAPE  H10S17185   4.988   0.172   5.328
  155SAPE  C21117186   4.796   0.257   5.287
  155SAPE  H11R17187   4.802   0.326   5.372
  155SAPE  C21217188   4.710   0.286   5.187
  155SAPE  H12R17189   4.650   0.378   5.193
  155SAPE  C21317190   4.688   0.204   5.062
  155SAPE  H13R17191   4.588   0.226   5.019
  155SAPE  H13S17192   4.685   0.097   5.089
  155SAPE  C21417193   4.798   0.226   4.960
  155SAPE  H14R17194   4.900   0.218   5.001
  155SAPE  C21517195   4.784   0.250   4.829
  155SAPE  H15R17196   4.876   0.262   4.770
  155SAPE  C21617197   4.655   0.261   4.751
  155SAPE  H16R17198   4.580   0.320   4.809
  155SAPE  H16S17199   4.610   0.161   4.735
  155SAPE  C21717200   4.672   0.330   4.614
  155SAPE  H17R17201   4.704   0.435   4.631
  155SAPE  H17S17202   4.574   0.333   4.562
  155SAPE  C21817203   4.774   0.263   4.519
  155SAPE  H18R17204   4.734   0.164   4.487
  155SAPE  H18S17205   4.869   0.244   4.573
  155SAPE  C21917206   4.809   0.347   4.396
  155SAPE  H19R17207   4.821   0.453   4.428
  155SAPE  H19S17208   4.725   0.344   4.324
  155SAPE  C22017209   4.939   0.302   4.329
  155SAPE  H20R17210   4.963   0.366   4.242
  155SAPE  H20S17211   4.931   0.197   4.295
  155SAPE  H20T17212   5.023   0.309   4.401
  155SAPE   C3317213   5.078   0.317   5.839
  155SAPE   H3X17214   5.093   0.233   5.911
  155SAPE   H3Y17215   5.150   0.396   5.867
  155SAPE   C3417216   5.111   0.270   5.697
  155SAPE   H4X17217   5.106   0.359   5.631
  155SAPE   H4Y17218   5.037   0.197   5.658
  155SAPE   C3517219   5.251   0.208   5.687
  155SAPE   H5X17220   5.248   0.097   5.692
  155SAPE   H5Y17221   5.308   0.243   5.776
  155SAPE   C3617222   5.328   0.256   5.564
  155SAPE   H6X17223   5.437   0.243   5.583
  155SAPE   H6Y17224   5.308   0.364   5.553
  155SAPE   C3717225   5.297   0.188   5.431
  155SAPE   H7X17226   5.188   0.187   5.412
  155SAPE   H7Y17227   5.333   0.083   5.437
  155SAPE   C3817228   5.370   0.260   5.317
  155SAPE   H8X17229   5.474   0.280   5.352
  155SAPE   H8Y17230   5.321   0.357   5.295
  155SAPE   C3917231   5.385   0.179   5.189
  155SAPE   H9X17232   5.427   0.080   5.217
  155SAPE   H9Y17233   5.459   0.230   5.123
  155SAPE  C31017234   5.255   0.163   5.109
  155SAPE  H10X17235   5.212   0.263   5.086
  155SAPE  H10Y17236   5.181   0.109   5.171
  155SAPE  C31117237   5.277   0.086   4.978
  155SAPE  H11X17238   5.324   0.152   4.903
  155SAPE  H11Y17239   5.177   0.056   4.940
  155SAPE  C31217240   5.367   7.266   4.999
  155SAPE  H12X17241   5.332   7.212   5.090
  155SAPE  H12Y17242   5.471   7.299   5.016
  155SAPE  C31317243   5.366   7.166   4.883
  155SAPE  H13X17244   5.433   7.082   4.914
  155SAPE  H13Y17245   5.408   7.211   4.791
  155SAPE  C31417246   5.227   7.109   4.858
  155SAPE  H14X17247   5.163   7.186   4.809
  155SAPE  H14Y17248   5.181   7.085   4.956
  155SAPE  C31517249   5.225   6.982   4.773
  155SAPE  H15X17250   5.294   6.907   4.815
  155SAPE  H15Y17251   5.259   7.007   4.670
  155SAPE  C31617252   5.082   6.926   4.771
  155SAPE  H16X17253   5.015   7.006   4.734
  155SAPE  H16Y17254   5.052   6.901   4.875
  155SAPE  C31717255   5.060   6.806   4.681
  155SAPE  H17X17256   5.142   6.733   4.695
  155SAPE  H17Y17257   5.064   6.845   4.576
  155SAPE  C31817258   4.925   6.739   4.701
  155SAPE  H18X17259   4.912   6.655   4.629
  155SAPE  H18Y17260   4.842   6.812   4.686
  155SAPE  H18Z17261   4.917   6.698   4.804
  156SAPE     N17262   7.113   2.233   6.329
  156SAPE   HN117263   7.199   2.286   6.303
  156SAPE   HN217264   7.038   2.300   6.355
  156SAPE   HN317265   7.133   2.169   6.409
  156SAPE   C1217266   7.068   2.146   6.215
  156SAPE  H12A17267   7.055   2.210   6.125
  156SAPE  H12B17268   6.970   2.101   6.242
  156SAPE   C1117269   7.172   2.037   6.192
  156SAPE  H11A17270   7.273   2.082   6.174
  156SAPE  H11B17271   7.144   1.987   6.097
  156SAPE     P17272   7.185   1.794   6.275
  156SAPE   O1317273   7.215   1.713   6.396
  156SAPE   O1417274   7.068   1.751   6.197
  156SAPE   O1217275   7.177   1.950   6.306
  156SAPE   O1117276   0.008   1.788   6.182
  156SAPE    C117277   0.136   1.831   6.228
  156SAPE    HA17278   0.139   1.942   6.230
  156SAPE    HB17279   0.158   1.795   6.331
  156SAPE    C217280   0.250   1.781   6.134
  156SAPE    HS17281   0.339   1.846   6.148
  156SAPE   O2117282   0.210   1.782   5.996
  156SAPE   C2117283   0.168   1.897   5.949
  156SAPE   O2217284   0.186   2.007   5.999
  156SAPE   C2217285   0.089   1.868   5.821
  156SAPE   H2R17286   0.151   1.802   5.757
  156SAPE   H2S17287   7.302   1.811   5.853
  156SAPE    C317288   0.291   1.636   6.170
  156SAPE    HX17289   0.321   1.634   6.278
  156SAPE    HY17290   0.382   1.609   6.112
  156SAPE   O3117291   0.183   1.544   6.152
  156SAPE   C3117292   0.195   1.458   6.052
  156SAPE   O3217293   0.297   1.423   5.997
  156SAPE   C3217294   0.056   1.417   6.007
  156SAPE   H2X17295   0.024   1.331   6.070
  156SAPE   H2Y17296   0.066   1.385   5.901
  156SAPE   C2317297   0.046   1.992   5.741
  156SAPE   H3R17298   0.020   1.961   5.637
  156SAPE   H3S17299   0.134   2.059   5.731
  156SAPE   C2417300   7.232   2.069   5.802
  156SAPE   H4R17301   7.219   2.165   5.747
  156SAPE   H4S17302   7.256   2.098   5.907
  156SAPE   C2517303   7.108   1.985   5.795
  156SAPE   H5R17304   7.080   1.933   5.887
  156SAPE   C2617305   7.034   1.968   5.684
  156SAPE   H6R17306   6.950   1.898   5.690
  156SAPE   C2717307   7.059   2.027   5.547
  156SAPE   H7R17308   7.131   2.111   5.553
  156SAPE   H7S17309   6.964   2.071   5.510
  156SAPE   C2817310   7.104   1.923   5.448
  156SAPE   H8R17311   7.064   1.821   5.462
  156SAPE   C2917312   7.190   1.945   5.348
  156SAPE   H9R17313   7.214   1.861   5.281
  156SAPE  C21017314   7.258   2.075   5.315
  156SAPE  H10R17315   0.030   2.099   5.393
  156SAPE  H10S17316   7.185   2.159   5.318
  156SAPE  C21117317   0.021   2.068   5.180
  156SAPE  H11R17318   0.128   2.041   5.181
  156SAPE  C21217319   7.264   2.081   5.062
  156SAPE  H12R17320   0.019   2.073   4.969
  156SAPE  C21317321   7.117   2.106   5.044
  156SAPE  H13R17322   7.062   2.115   5.140
  156SAPE  H13S17323   7.071   2.019   4.992
  156SAPE  C21417324   7.096   2.231   4.964
  156SAPE  H14R17325   7.087   2.323   5.023
  156SAPE  C21517326   7.094   2.239   4.831
  156SAPE  H15R17327   7.075   2.338   4.788
  156SAPE  C21617328   7.113   2.125   4.733
  156SAPE  H16R17329   7.015   2.093   4.692
  156SAPE  H16S17330   7.158   2.037   4.783
  156SAPE  C21717331   7.205   2.165   4.616
  156SAPE  H17R17332   7.274   2.246   4.648
  156SAPE  H17S17333   7.142   2.205   4.533
  156SAPE  C21817334   7.296   2.054   4.562
  156SAPE  H18R17335   0.020   2.081   4.458
  156SAPE  H18S17336   7.244   1.957   4.559
  156SAPE  C21917337   0.123   2.046   4.642
  156SAPE  H19R17338   0.102   2.014   4.746
  156SAPE  H19S17339   0.163   2.150   4.652
  156SAPE  C22017340   0.231   1.958   4.579
  156SAPE  H20R17341   0.326   2.015   4.563
  156SAPE  H20S17342   0.198   1.919   4.481
  156SAPE  H20T17343   0.254   1.872   4.645
  156SAPE   C3317344   7.261   1.535   6.019
  156SAPE   H3X17345   0.002   1.626   5.974
  156SAPE   H3Y17346   7.246   1.558   6.127
  156SAPE   C3417347   7.123   1.515   5.958
  156SAPE   H4X17348   7.062   1.606   5.975
  156SAPE   H4Y17349   7.071   1.432   6.010
  156SAPE   C3517350   7.127   1.486   5.808
  156SAPE   H5X17351   7.023   1.457   5.782
  156SAPE   H5Y17352   7.192   1.398   5.787
  156SAPE   C3617353   7.176   1.603   5.723
  156SAPE   H6X17354   7.276   1.629   5.762
  156SAPE   H6Y17355   7.110   1.691   5.736
  156SAPE   C3717356   7.196   1.570   5.575
  156SAPE   H7X17357   7.105   1.598   5.517
  156SAPE   H7Y17358   7.211   1.461   5.562
  156SAPE   C3817359   0.016   1.643   5.521
  156SAPE   H8X17360   0.106   1.603   5.572
  156SAPE   H8Y17361   0.008   1.751   5.546
  156SAPE   C3917362   0.034   1.629   5.370
  156SAPE   H9X17363   7.243   1.660   5.320
  156SAPE   H9Y17364   0.053   1.522   5.347
  156SAPE  C31017365   0.148   1.712   5.312
  156SAPE  H10X17366   0.238   1.684   5.371
  156SAPE  H10Y17367   0.132   1.821   5.327
  156SAPE  C31117368   0.175   1.680   5.164
  156SAPE  H11X17369   0.174   1.570   5.150
  156SAPE  H11Y17370   0.278   1.717   5.141
  156SAPE  C31217371   0.084   1.745   5.059
  156SAPE  H12X17372   0.123   1.847   5.038
  156SAPE  H12Y17373   7.285   1.756   5.099
  156SAPE  C31317374   0.079   1.667   4.926
  156SAPE  H13X17375   0.043   1.563   4.944
  156SAPE  H13Y17376   0.181   1.655   4.884
  156SAPE  C31417377   7.292   1.735   4.823
  156SAPE  H14X17378   0.036   1.830   4.790
  156SAPE  H14Y17379   7.198   1.764   4.875
  156SAPE  C31517380   7.255   1.651   4.700
  156SAPE  H15X17381   7.167   1.700   4.654
  156SAPE  H15Y17382   7.227   1.548   4.729
  156SAPE  C31617383   0.058   1.643   4.592
  156SAPE  H16X17384   0.142   1.580   4.627
  156SAPE  H16Y17385   0.095   1.746   4.573
  156SAPE  C31717386   0.003   1.590   4.459
  156SAPE  H17X17387   0.088   1.588   4.388
  156SAPE  H17Y17388   7.234   1.663   4.418
  156SAPE  C31817389   7.242   1.451   4.466
  156SAPE  H18X17390   7.150   1.454   4.528
  156SAPE  H18Y17391   0.009   1.378   4.512
  156SAPE  H18Z17392   7.215   1.416   4.364
  157SAPE     N17393   6.361   0.666   6.209
  157SAPE   HN117394   6.315   0.691   6.299
  157SAPE   HN217395   6.287   0.645   6.139
  157SAPE   HN317396   6.414   0.578   6.222
  157SAPE   C1217397   6.457   0.775   6.167
  157SAPE  H12A17398   6.461   0.779   6.056
  157SAPE  H12B17399   6.558   0.746   6.203
  157SAPE   C1117400   6.415   0.912   6.222
  157SAPE  H11A17401   6.308   0.932   6.199
  157SAPE  H11B17402   6.472   0.992   6.170
  157SAPE     P17403   6.573   0.963   6.424
  157SAPE   O1317404   6.552   0.975   6.570
  157SAPE   O1417405   6.677   0.872   6.373
  157SAPE   O1217406   6.434   0.915   6.363
  157SAPE   O1117407   6.586   1.106   6.360
  157SAPE    C117408   6.660   1.213   6.421
  157SAPE    HA17409   6.611   1.245   6.516
  157SAPE    HB17410   6.763   1.179   6.448
  157SAPE    C217411   6.675   1.339   6.328
  157SAPE    HS17412   6.612   1.420   6.372
  157SAPE   O2117413   6.634   1.313   6.195
  157SAPE   C2117414   6.513   1.286   6.160
  157SAPE   O2217415   6.412   1.288   6.230
  157SAPE   C2217416   6.517   1.250   6.012
  157SAPE   H2R17417   6.612   1.288   5.970
  157SAPE   H2S17418   6.516   1.139   6.004
  157SAPE    C317419   6.821   1.395   6.315
  157SAPE    HX17420   6.850   1.440   6.412
  157SAPE    HY17421   6.822   1.476   6.239
  157SAPE   O3117422   6.916   1.292   6.282
  157SAPE   C3117423   6.894   1.230   6.164
  157SAPE   O3217424   6.878   1.284   6.057
  157SAPE   C3217425   6.879   1.082   6.196
  157SAPE   H2X17426   6.793   1.069   6.265
  157SAPE   H2Y17427   6.971   1.058   6.255
  157SAPE   C2317428   6.400   1.309   5.932
  157SAPE   H3R17429   6.377   1.412   5.967
  157SAPE   H3S17430   6.310   1.245   5.949
  157SAPE   C2417431   6.430   1.319   5.781
  157SAPE   H4R17432   6.505   1.401   5.774
  157SAPE   H4S17433   6.342   1.355   5.723
  157SAPE   C2517434   6.487   1.194   5.722
  157SAPE   H5R17435   6.561   1.146   5.788
  157SAPE   C2617436   6.472   1.135   5.602
  157SAPE   H6R17437   6.529   1.041   5.593
  157SAPE   C2717438   6.391   1.166   5.477
  157SAPE   H7R17439   6.433   1.249   5.416
  157SAPE   H7S17440   6.288   1.198   5.504
  157SAPE   C2817441   6.386   1.036   5.399
  157SAPE   H8R17442   6.383   0.950   5.468
  157SAPE   C2917443   6.365   1.000   5.272
  157SAPE   H9R17444   6.382   0.893   5.251
  157SAPE  C21017445   6.336   1.075   5.146
  157SAPE  H10R17446   6.305   1.180   5.171
  157SAPE  H10S17447   6.249   1.029   5.095
  157SAPE  C21117448   6.440   1.065   5.041
  157SAPE  H11R17449   6.439   0.977   4.976
  157SAPE  C21217450   6.528   1.162   5.021
  157SAPE  H12R17451   6.604   1.151   4.943
  157SAPE  C21317452   6.526   1.287   5.104
  157SAPE  H13R17453   6.491   1.270   5.208
  157SAPE  H13S17454   6.456   1.361   5.059
  157SAPE  C21417455   6.663   1.342   5.111
  157SAPE  H14R17456   6.707   1.342   5.212
  157SAPE  C21517457   6.731   1.392   5.010
  157SAPE  H15R17458   6.828   1.440   5.032
  157SAPE  C21617459   6.679   1.404   4.871
  157SAPE  H16R17460   6.675   1.513   4.851
  157SAPE  H16S17461   6.574   1.369   4.862
  157SAPE  C21717462   6.755   1.339   4.756
  157SAPE  H17R17463   6.763   1.229   4.769
  157SAPE  H17S17464   6.858   1.381   4.750
  157SAPE  C21817465   6.675   1.372   4.630
  157SAPE  H18R17466   6.628   1.472   4.648
  157SAPE  H18S17467   6.591   1.301   4.616
  157SAPE  C21917468   6.756   1.389   4.503
  157SAPE  H19R17469   6.791   1.291   4.464
  157SAPE  H19S17470   6.846   1.449   4.527
  157SAPE  C22017471   6.672   1.461   4.398
  157SAPE  H20R17472   6.734   1.492   4.311
  157SAPE  H20S17473   6.627   1.554   4.440
  157SAPE  H20T17474   6.589   1.395   4.363
  157SAPE   C3317475   6.863   0.978   6.084
  157SAPE   H3X17476   6.859   0.880   6.138
  157SAPE   H3Y17477   6.950   0.977   6.016
  157SAPE   C3417478   6.738   0.978   5.997
  157SAPE   H4X17479   6.723   1.078   5.951
  157SAPE   H4Y17480   6.650   0.951   6.060
  157SAPE   C3517481   6.763   0.874   5.888
  157SAPE   H5X17482   6.813   0.785   5.932
  157SAPE   H5Y17483   6.835   0.918   5.817
  157SAPE   C3617484   6.640   0.825   5.812
  157SAPE   H6X17485   6.568   0.908   5.793
  157SAPE   H6Y17486   6.590   0.747   5.872
  157SAPE   C3717487   6.685   0.765   5.679
  157SAPE   H7X17488   6.603   0.703   5.637
  157SAPE   H7Y17489   6.772   0.698   5.698
  157SAPE   C3817490   6.729   0.869   5.575
  157SAPE   H8X17491   6.838   0.860   5.553
  157SAPE   H8Y17492   6.712   0.969   5.619
  157SAPE   C3917493   6.649   0.855   5.444
  157SAPE   H9X17494   6.658   0.947   5.383
  157SAPE   H9Y17495   6.543   0.841   5.473
  157SAPE  C31017496   6.690   0.733   5.363
  157SAPE  H10X17497   6.691   0.647   5.433
  157SAPE  H10Y17498   6.792   0.749   5.322
  157SAPE  C31117499   6.591   0.691   5.254
  157SAPE  H11X17500   6.488   0.697   5.295
  157SAPE  H11Y17501   6.611   0.585   5.229
  157SAPE  C31217502   6.606   0.769   5.125
  157SAPE  H12X17503   6.710   0.756   5.088
  157SAPE  H12Y17504   6.594   0.878   5.145
  157SAPE  C31317505   6.510   0.723   5.014
  157SAPE  H13X17506   6.409   0.766   5.029
  157SAPE  H13Y17507   6.502   0.612   5.013
  157SAPE  C31417508   6.568   0.769   4.880
  157SAPE  H14X17509   6.649   0.698   4.854
  157SAPE  H14Y17510   6.613   0.869   4.900
  157SAPE  C31517511   6.473   0.783   4.761
  157SAPE  H15X17512   6.386   0.847   4.790
  157SAPE  H15Y17513   6.433   0.682   4.735
  157SAPE  C31617514   6.543   0.843   4.638
  157SAPE  H16X17515   6.469   0.852   4.554
  157SAPE  H16Y17516   6.622   0.773   4.603
  157SAPE  C31717517   6.609   0.980   4.661
  157SAPE  H17X17518   6.689   0.971   4.737
  157SAPE  H17Y17519   6.535   1.052   4.703
  157SAPE  C31817520   6.675   1.038   4.535
  157SAPE  H18X17521   6.711   0.957   4.468
  157SAPE  H18Y17522   6.762   1.101   4.564
  157SAPE  H18Z17523   6.603   1.102   4.480
  158SAPE     N17524   0.366   0.924   6.437
  158SAPE   HN117525   0.271   0.957   6.410
  158SAPE   HN217526   0.402   0.987   6.511
  158SAPE   HN317527   0.427   0.926   6.353
  158SAPE   C1217528   0.357   0.784   6.491
  158SAPE  H12A17529   0.251   0.750   6.481
  158SAPE  H12B17530   0.382   0.788   6.600
  158SAPE   C1117531   0.454   0.687   6.421
  158SAPE  H11A17532   0.418   0.666   6.318
  158SAPE  H11B17533   0.454   0.590   6.474
  158SAPE     P17534   0.647   0.803   6.290
  158SAPE   O1317535   0.529   0.860   6.221
  158SAPE   O1417536   0.754   0.894   6.336
  158SAPE   O1217537   0.587   0.740   6.424
  158SAPE   O1117538   0.703   0.671   6.224
  158SAPE    C117539   0.793   0.593   6.305
  158SAPE    HA17540   0.870   0.658   6.352
  158SAPE    HB17541   0.738   0.540   6.385
  158SAPE    C217542   0.874   0.487   6.224
  158SAPE    HS17543   0.970   0.469   6.277
  158SAPE   O2117544   0.899   0.531   6.090
  158SAPE   C2117545   0.974   0.640   6.080
  158SAPE   O2217546   1.042   0.689   6.169
  158SAPE   C2217547   0.975   0.683   5.934
  158SAPE   H2R17548   1.042   0.770   5.923
  158SAPE   H2S17549   1.017   0.598   5.875
  158SAPE    C317550   0.802   0.349   6.217
  158SAPE    HX17551   0.780   0.314   6.320
  158SAPE    HY17552   0.874   0.278   6.172
  158SAPE   O3117553   0.685   0.354   6.133
  158SAPE   C3117554   0.566   0.342   6.185
  158SAPE   O3217555   0.537   0.314   6.300
  158SAPE   C3217556   0.464   0.372   6.076
  158SAPE   H2X17557   0.363   0.364   6.121
  158SAPE   H2Y17558   0.474   0.293   5.998
  158SAPE   C2317559   0.834   0.715   5.881
  158SAPE   H3R17560   0.755   0.664   5.941
  158SAPE   H3S17561   0.825   0.678   5.777
  158SAPE   C2417562   0.811   0.866   5.881
  158SAPE   H4R17563   0.887   0.914   5.816
  158SAPE   H4S17564   0.826   0.907   5.984
  158SAPE   C2517565   0.671   0.895   5.835
  158SAPE   H5R17566   0.595   0.899   5.915
  158SAPE   C2617567   0.635   0.922   5.709
  158SAPE   H6R17568   0.530   0.951   5.690
  158SAPE   C2717569   0.723   0.929   5.588
  158SAPE   H7R17570   0.821   0.972   5.617
  158SAPE   H7S17571   0.679   1.002   5.518
  158SAPE   C2817572   0.738   0.802   5.510
  158SAPE   H8R17573   0.648   0.738   5.502
  158SAPE   C2917574   0.850   0.761   5.450
  158SAPE   H9R17575   0.846   0.666   5.395
  158SAPE  C21017576   0.984   0.830   5.449
  158SAPE  H10R17577   1.061   0.752   5.471
  158SAPE  H10S17578   0.990   0.896   5.538
  158SAPE  C21117579   1.031   0.911   5.331
  158SAPE  H11R17580   1.097   0.994   5.361
  158SAPE  C21217581   1.005   0.900   5.200
  158SAPE  H12R17582   1.052   0.970   5.130
  158SAPE  C21317583   0.919   0.800   5.130
  158SAPE  H13R17584   0.896   0.713   5.195
  158SAPE  H13S17585   0.970   0.760   5.041
  158SAPE  C21417586   0.794   0.875   5.097
  158SAPE  H14R17587   0.731   0.896   5.185
  158SAPE  C21517588   0.757   0.924   4.978
  158SAPE  H15R17589   0.661   0.976   4.969
  158SAPE  C21617590   0.837   0.915   4.852
  158SAPE  H16R17591   0.936   0.868   4.871
  158SAPE  H16S17592   0.859   1.019   4.819
  158SAPE  C21717593   0.776   0.854   4.725
  158SAPE  H17R17594   0.733   0.935   4.663
  158SAPE  H17S17595   0.691   0.786   4.749
  158SAPE  C21817596   0.881   0.777   4.645
  158SAPE  H18R17597   0.860   0.668   4.657
  158SAPE  H18S17598   0.983   0.792   4.686
  158SAPE  C21917599   0.884   0.817   4.497
  158SAPE  H19R17600   0.922   0.921   4.489
  158SAPE  H19S17601   0.780   0.818   4.458
  158SAPE  C22017602   0.970   0.725   4.412
  158SAPE  H20R17603   1.074   0.724   4.450
  158SAPE  H20S17604   0.971   0.758   4.306
  158SAPE  H20T17605   0.930   0.622   4.416
  158SAPE   C3317606   0.487   0.511   6.014
  158SAPE   H3X17607   0.587   0.514   5.966
  158SAPE   H3Y17608   0.487   0.589   6.093
  158SAPE   C3417609   0.382   0.548   5.907
  158SAPE   H4X17610   0.280   0.541   5.950
  158SAPE   H4Y17611   0.389   0.475   5.824
  158SAPE   C3517612   0.402   0.689   5.849
  158SAPE   H5X17613   0.486   0.684   5.777
  158SAPE   H5Y17614   0.432   0.759   5.931
  158SAPE   C3617615   0.274   0.743   5.784
  158SAPE   H6X17616   0.214   0.793   5.863
  158SAPE   H6Y17617   0.215   0.655   5.749
  158SAPE   C3717618   0.288   0.842   5.666
  158SAPE   H7X17619   0.335   0.935   5.706
  158SAPE   H7Y17620   0.187   0.872   5.632
  158SAPE   C3817621   0.366   0.790   5.544
  158SAPE   H8X17622   0.313   0.704   5.497
  158SAPE   H8Y17623   0.463   0.749   5.581
  158SAPE   C3917624   0.399   0.899   5.438
  158SAPE   H9X17625   0.508   0.900   5.419
  158SAPE   H9Y17626   0.374   0.998   5.482
  158SAPE  C31017627   0.331   0.888   5.301
  158SAPE  H10X17628   0.354   0.981   5.244
  158SAPE  H10Y17629   0.221   0.886   5.317
  158SAPE  C31117630   0.371   0.768   5.211
  158SAPE  H11X17631   0.312   0.775   5.117
  158SAPE  H11Y17632   0.350   0.671   5.261
  158SAPE  C31217633   0.517   0.755   5.172
  158SAPE  H12X17634   0.578   0.758   5.265
  158SAPE  H12Y17635   0.540   0.843   5.109
  158SAPE  C31317636   0.550   0.623   5.098
  158SAPE  H13X17637   0.475   0.545   5.123
  158SAPE  H13Y17638   0.648   0.586   5.133
  158SAPE  C31417639   0.559   0.640   4.945
  158SAPE  H14X17640   0.646   0.706   4.926
  158SAPE  H14Y17641   0.469   0.692   4.907
  158SAPE  C31517642   0.587   0.511   4.866
  158SAPE  H15X17643   0.522   0.429   4.902
  158SAPE  H15Y17644   0.692   0.481   4.885
  158SAPE  C31617645   0.565   0.528   4.713
  158SAPE  H16X17646   0.571   0.636   4.688
  158SAPE  H16Y17647   0.462   0.498   4.688
  158SAPE  C31717648   0.668   0.453   4.626
  158SAPE  H17X17649   0.722   0.380   4.690
  158SAPE  H17Y17650   0.743   0.526   4.590
  158SAPE  C31817651   0.615   0.379   4.503
  158SAPE  H18X17652   0.504   0.381   4.497
  158SAPE  H18Y17653   0.648   0.273   4.506
  158SAPE  H18Z17654   0.656   0.421   4.409
  159SAPE     N17655   5.222   4.265   2.481
  159SAPE   HN117656   5.321   4.243   2.459
  159SAPE   HN217657   5.210   4.288   2.582
  159SAPE   HN317658   5.166   4.182   2.454
  159SAPE   C1217659   5.179   4.376   2.389
  159SAPE  H12A17660   5.210   4.474   2.433
  159SAPE  H12B17661   5.068   4.372   2.380
  159SAPE   C1117662   5.244   4.354   2.253
  159SAPE  H11A17663   5.354   4.368   2.261
  159SAPE  H11B17664   5.209   4.430   2.180
  159SAPE     P17665   5.108   4.190   2.102
  159SAPE   O1317666   4.978   4.239   2.154
  159SAPE   O1417667   5.153   4.250   1.974
  159SAPE   O1217668   5.219   4.220   2.211
  159SAPE   O1117669   5.107   4.033   2.093
  159SAPE    C117670   5.130   3.947   2.205
  159SAPE    HA17671   5.175   3.853   2.167
  159SAPE    HB17672   5.202   3.989   2.277
  159SAPE    C217673   4.998   3.908   2.279
  159SAPE    HS17674   4.929   3.869   2.201
  159SAPE   O2117675   4.949   4.023   2.351
  159SAPE   C2117676   4.820   4.048   2.329
  159SAPE   O2217677   4.747   3.989   2.251
  159SAPE   C2217678   4.774   4.167   2.413
  159SAPE   H2R17679   4.861   4.232   2.438
  159SAPE   H2S17680   4.707   4.225   2.347
  159SAPE    C317681   5.022   3.793   2.380
  159SAPE    HX17682   5.040   3.699   2.324
  159SAPE    HY17683   4.929   3.778   2.439
  159SAPE   O3117684   5.139   3.823   2.461
  159SAPE   C3117685   5.116   3.863   2.585
  159SAPE   O3217686   5.011   3.860   2.645
  159SAPE   C3217687   5.242   3.927   2.640
  159SAPE   H2X17688   5.209   4.015   2.699
  159SAPE   H2Y17689   5.306   3.961   2.555
  159SAPE   C2317690   4.693   4.122   2.537
  159SAPE   H3R17691   4.620   4.044   2.508
  159SAPE   H3S17692   4.631   4.210   2.567
  159SAPE   C2417693   4.773   4.073   2.659
  159SAPE   H4R17694   4.812   3.973   2.632
  159SAPE   H4S17695   4.701   4.055   2.741
  159SAPE   C2517696   4.886   4.163   2.706
  159SAPE   H5R17697   4.940   4.214   2.626
  159SAPE   C2617698   4.925   4.184   2.834
  159SAPE   H6R17699   5.009   4.251   2.854
  159SAPE   C2717700   4.865   4.124   2.959
  159SAPE   H7R17701   4.754   4.133   2.955
  159SAPE   H7S17702   4.896   4.184   3.048
  159SAPE   C2817703   4.901   3.979   2.975
  159SAPE   H8R17704   4.885   3.918   2.885
  159SAPE   C2917705   4.949   3.917   3.084
  159SAPE   H9R17706   4.968   3.809   3.079
  159SAPE  C21017707   4.980   3.978   3.219
  159SAPE  H10R17708   4.889   3.977   3.283
  159SAPE  H10S17709   5.010   4.084   3.205
  159SAPE  C21117710   5.093   3.904   3.286
  159SAPE  H11R17711   5.169   3.864   3.217
  159SAPE  C21217712   5.113   3.885   3.418
  159SAPE  H12R17713   5.209   3.840   3.448
  159SAPE  C21317714   5.028   3.932   3.533
  159SAPE  H13R17715   4.920   3.914   3.512
  159SAPE  H13S17716   5.040   4.042   3.545
  159SAPE  C21417717   5.067   3.864   3.662
  159SAPE  H14R17718   5.076   3.755   3.654
  159SAPE  C21517719   5.095   3.920   3.781
  159SAPE  H15R17720   5.121   3.854   3.865
  159SAPE  C21617721   5.095   4.066   3.818
  159SAPE  H16R17722   5.057   4.079   3.921
  159SAPE  H16S17723   5.026   4.123   3.752
  159SAPE  C21717724   5.235   4.131   3.811
  159SAPE  H17R17725   5.228   4.239   3.838
  159SAPE  H17S17726   5.274   4.125   3.707
  159SAPE  C21817727   5.334   4.063   3.906
  159SAPE  H18R17728   5.339   3.956   3.874
  159SAPE  H18S17729   5.296   4.067   4.010
  159SAPE  C21917730   5.478   4.114   3.900
  159SAPE  H19R17731   5.478   4.224   3.919
  159SAPE  H19S17732   5.517   4.098   3.798
  159SAPE  C22017733   5.567   4.042   4.002
  159SAPE  H20R17734   5.674   4.056   3.979
  159SAPE  H20S17735   5.546   3.933   4.000
  159SAPE  H20T17736   5.547   4.078   4.105
  159SAPE   C3317737   5.320   3.830   2.729
  159SAPE   H3X17738   5.341   3.736   2.673
  159SAPE   H3Y17739   5.259   3.804   2.818
  159SAPE   C3417740   5.452   3.892   2.774
  159SAPE   H4X17741   5.508   3.926   2.684
  159SAPE   H4Y17742   5.514   3.814   2.822
  159SAPE   C3517743   5.436   4.007   2.873
  159SAPE   H5X17744   5.356   4.077   2.841
  159SAPE   H5Y17745   5.531   4.063   2.873
  159SAPE   C3617746   5.411   3.960   3.017
  159SAPE   H6X17747   5.494   3.893   3.047
  159SAPE   H6Y17748   5.316   3.903   3.024
  159SAPE   C3717749   5.406   4.080   3.112
  159SAPE   H7X17750   5.307   4.129   3.103
  159SAPE   H7Y17751   5.483   4.153   3.082
  159SAPE   C3817752   5.433   4.042   3.258
  159SAPE   H8X17753   5.533   3.996   3.269
  159SAPE   H8Y17754   5.360   3.965   3.292
  159SAPE   C3917755   5.422   4.166   3.349
  159SAPE   H9X17756   5.452   4.256   3.292
  159SAPE   H9Y17757   5.489   4.156   3.437
  159SAPE  C31017758   5.278   4.179   3.398
  159SAPE  H10X17759   5.262   4.103   3.477
  159SAPE  H10Y17760   5.209   4.155   3.314
  159SAPE  C31117761   5.239   4.316   3.451
  159SAPE  H11X17762   5.241   4.391   3.368
  159SAPE  H11Y17763   5.313   4.348   3.528
  159SAPE  C31217764   5.100   4.311   3.514
  159SAPE  H12X17765   5.080   4.409   3.564
  159SAPE  H12Y17766   5.102   4.236   3.596
  159SAPE  C31317767   4.984   4.279   3.418
  159SAPE  H13X17768   4.988   4.171   3.393
  159SAPE  H13Y17769   4.997   4.335   3.323
  159SAPE  C31417770   4.844   4.309   3.476
  159SAPE  H14X17771   4.767   4.275   3.404
  159SAPE  H14Y17772   4.833   4.419   3.487
  159SAPE  C31517773   4.818   4.245   3.612
  159SAPE  H15X17774   4.900   4.274   3.681
  159SAPE  H15Y17775   4.819   4.134   3.603
  159SAPE  C31617776   4.686   4.290   3.676
  159SAPE  H16X17777   4.601   4.261   3.610
  159SAPE  H16Y17778   4.687   4.401   3.683
  159SAPE  C31717779   4.662   4.233   3.817
  159SAPE  H17X17780   4.653   4.122   3.810
  159SAPE  H17Y17781   4.564   4.272   3.853
  159SAPE  C31817782   4.771   4.269   3.919
  159SAPE  H18X17783   4.866   4.219   3.894
  159SAPE  H18Y17784   4.741   4.236   4.021
  159SAPE  H18Z17785   4.788   4.378   3.920
  160SAPE     N17786   5.613   2.975   2.419
  160SAPE   HN117787   5.615   3.055   2.486
  160SAPE   HN217788   5.524   2.922   2.430
  160SAPE   HN317789   5.694   2.912   2.432
  160SAPE   C1217790   5.624   3.027   2.278
  160SAPE  H12A17791   5.715   3.090   2.272
  160SAPE  H12B17792   5.535   3.091   2.257
  160SAPE   C1117793   5.632   2.909   2.181
  160SAPE  H11A17794   5.646   2.951   2.079
  160SAPE  H11B17795   5.536   2.853   2.181
  160SAPE     P17796   5.822   2.736   2.120
  160SAPE   O1317797   5.792   2.593   2.147
  160SAPE   O1417798   5.798   2.785   1.982
  160SAPE   O1217799   5.738   2.824   2.221
  160SAPE   O1117800   5.973   2.765   2.160
  160SAPE    C117801   6.010   2.869   2.251
  160SAPE    HA17802   6.111   2.906   2.224
  160SAPE    HB17803   5.942   2.957   2.245
  160SAPE    C217804   6.016   2.819   2.398
  160SAPE    HS17805   6.100   2.746   2.402
  160SAPE   O2117806   5.890   2.758   2.430
  160SAPE   C2117807   5.900   2.647   2.500
  160SAPE   O2217808   6.002   2.595   2.541
  160SAPE   C2217809   5.760   2.592   2.522
  160SAPE   H2R17810   5.694   2.623   2.438
  160SAPE   H2S17811   5.767   2.481   2.519
  160SAPE    C317812   6.046   2.931   2.501
  160SAPE    HX17813   6.001   3.026   2.466
  160SAPE    HY17814   6.157   2.942   2.502
  160SAPE   O3117815   5.991   2.895   2.629
  160SAPE   C3117816   6.061   2.931   2.735
  160SAPE   O3217817   6.157   3.005   2.737
  160SAPE   C3217818   5.999   2.863   2.858
  160SAPE   H2X17819   6.041   2.760   2.863
  160SAPE   H2Y17820   5.889   2.858   2.845
  160SAPE   C2317821   5.702   2.638   2.658
  160SAPE   H3R17822   5.688   2.748   2.655
  160SAPE   H3S17823   5.772   2.617   2.741
  160SAPE   C2417824   5.566   2.572   2.686
  160SAPE   H4R17825   5.511   2.573   2.590
  160SAPE   H4S17826   5.511   2.637   2.757
  160SAPE   C2517827   5.574   2.430   2.736
  160SAPE   H5R17828   5.595   2.355   2.659
  160SAPE   C2617829   5.561   2.389   2.864
  160SAPE   H6R17830   5.571   2.282   2.886
  160SAPE   C2717831   5.536   2.476   2.984
  160SAPE   H7R17832   5.459   2.429   3.049
  160SAPE   H7S17833   5.495   2.575   2.956
  160SAPE   C2817834   5.661   2.498   3.065
  160SAPE   H8R17835   5.756   2.464   3.021
  160SAPE   C2917836   5.666   2.561   3.183
  160SAPE   H9R17837   5.763   2.573   3.234
  160SAPE  C21017838   5.550   2.622   3.256
  160SAPE  H10R17839   5.537   2.572   3.355
  160SAPE  H10S17840   5.453   2.610   3.202
  160SAPE  C21117841   5.583   2.767   3.269
  160SAPE  H11R17842   5.579   2.826   3.176
  160SAPE  C21217843   5.617   2.830   3.383
  160SAPE  H12R17844   5.638   2.938   3.377
  160SAPE  C21317845   5.628   2.765   3.518
  160SAPE  H13R17846   5.690   2.673   3.512
  160SAPE  H13S17847   5.527   2.733   3.553
  160SAPE  C21417848   5.692   2.862   3.614
  160SAPE  H14R17849   5.781   2.912   3.573
  160SAPE  C21517850   5.651   2.898   3.737
  160SAPE  H15R17851   5.710   2.972   3.792
  160SAPE  C21617852   5.531   2.850   3.811
  160SAPE  H16R17853   5.465   2.792   3.744
  160SAPE  H16S17854   5.471   2.936   3.849
  160SAPE  C21717855   5.576   2.763   3.929
  160SAPE  H17R17856   5.641   2.681   3.893
  160SAPE  H17S17857   5.486   2.717   3.974
  160SAPE  C21817858   5.650   2.841   4.039
  160SAPE  H18R17859   5.578   2.912   4.085
  160SAPE  H18S17860   5.733   2.901   3.996
  160SAPE  C21917861   5.710   2.750   4.146
  160SAPE  H19R17862   5.748   2.814   4.228
  160SAPE  H19S17863   5.798   2.698   4.101
  160SAPE  C22017864   5.616   2.644   4.201
  160SAPE  H20R17865   5.665   2.592   4.286
  160SAPE  H20S17866   5.591   2.568   4.124
  160SAPE  H20T17867   5.521   2.690   4.237
  160SAPE   C3317868   6.036   2.942   2.984
  160SAPE   H3X17869   5.991   3.043   2.980
  160SAPE   H3Y17870   6.147   2.954   2.987
  160SAPE   C3417871   5.992   2.873   3.114
  160SAPE   H4X17872   6.052   2.781   3.128
  160SAPE   H4Y17873   5.885   2.844   3.107
  160SAPE   C3517874   6.010   2.965   3.236
  160SAPE   H5X17875   5.986   2.907   3.328
  160SAPE   H5Y17876   5.936   3.048   3.229
  160SAPE   C3617877   6.150   3.026   3.248
  160SAPE   H6X17878   6.179   3.074   3.152
  160SAPE   H6Y17879   6.225   2.946   3.269
  160SAPE   C3717880   6.160   3.137   3.353
  160SAPE   H7X17881   6.084   3.215   3.333
  160SAPE   H7Y17882   6.261   3.183   3.340
  160SAPE   C3817883   6.150   3.089   3.498
  160SAPE   H8X17884   6.213   3.156   3.560
  160SAPE   H8Y17885   6.192   2.987   3.505
  160SAPE   C3917886   6.007   3.095   3.555
  160SAPE   H9X17887   5.936   3.050   3.482
  160SAPE   H9Y17888   5.978   3.201   3.567
  160SAPE  C31017889   5.991   3.022   3.689
  160SAPE  H10X17890   5.886   3.037   3.722
  160SAPE  H10Y17891   6.053   3.072   3.766
  160SAPE  C31117892   6.022   2.871   3.681
  160SAPE  H11X17893   6.131   2.858   3.665
  160SAPE  H11Y17894   5.973   2.826   3.592
  160SAPE  C31217895   5.981   2.792   3.807
  160SAPE  H12X17896   5.878   2.753   3.794
  160SAPE  H12Y17897   5.979   2.861   3.894
  160SAPE  C31317898   6.076   2.675   3.836
  160SAPE  H13X17899   6.180   2.713   3.848
  160SAPE  H13Y17900   6.075   2.607   3.747
  160SAPE  C31417901   6.037   2.594   3.960
  160SAPE  H14X17902   6.094   2.499   3.960
  160SAPE  H14Y17903   5.929   2.568   3.955
  160SAPE  C31517904   6.067   2.667   4.092
  160SAPE  H15X17905   6.009   2.762   4.095
  160SAPE  H15Y17906   6.175   2.693   4.094
  160SAPE  C31617907   6.035   2.584   4.216
  160SAPE  H16X17908   6.095   2.491   4.210
  160SAPE  H16Y17909   5.928   2.556   4.218
  160SAPE  C31717910   6.071   2.656   4.347
  160SAPE  H17X17911   6.171   2.702   4.333
  160SAPE  H17Y17912   6.083   2.581   4.429
  160SAPE  C31817913   5.970   2.761   4.394
  160SAPE  H18X17914   5.870   2.715   4.410
  160SAPE  H18Y17915   5.960   2.842   4.319
  160SAPE  H18Z17916   6.003   2.807   4.490
  161SAPE     N17917   3.292   6.257   2.175
  161SAPE   HN117918   3.376   6.209   2.137
  161SAPE   HN217919   3.317   6.352   2.208
  161SAPE   HN317920   3.263   6.197   2.255
  161SAPE   C1217921   3.180   6.255   2.074
  161SAPE  H12A17922   3.227   6.253   1.973
  161SAPE  H12B17923   3.120   6.348   2.086
  161SAPE   C1117924   3.089   6.131   2.092
  161SAPE  H11A17925   3.027   6.120   2.000
  161SAPE  H11B17926   3.016   6.150   2.173
  161SAPE     P17927   3.180   5.948   2.257
  161SAPE   O1317928   3.253   5.821   2.245
  161SAPE   O1417929   3.236   6.058   2.340
  161SAPE   O1217930   3.165   6.011   2.112
  161SAPE   O1117931   3.030   5.923   2.297
  161SAPE    C117932   2.995   5.873   2.426
  161SAPE    HA17933   2.952   5.771   2.414
  161SAPE    HB17934   3.080   5.863   2.496
  161SAPE    C217935   2.888   5.963   2.491
  161SAPE    HS17936   2.823   6.006   2.412
  161SAPE   O2117937   2.954   6.065   2.568
  161SAPE   C2117938   2.992   6.172   2.501
  161SAPE   O2217939   2.950   6.210   2.393
  161SAPE   C2217940   3.087   6.256   2.586
  161SAPE   H2R17941   3.164   6.298   2.517
  161SAPE   H2S17942   3.027   6.340   2.628
  161SAPE    C317943   2.796   5.881   2.586
  161SAPE    HX17944   2.743   5.806   2.524
  161SAPE    HY17945   2.720   5.949   2.629
  161SAPE   O3117946   2.875   5.811   2.684
  161SAPE   C3117947   2.867   5.854   2.809
  161SAPE   O3217948   2.788   5.937   2.851
  161SAPE   C3217949   2.970   5.777   2.892
  161SAPE   H2X17950   3.067   5.788   2.840
  161SAPE   H2Y17951   2.941   5.670   2.890
  161SAPE   C2317952   3.159   6.178   2.700
  161SAPE   H3R17953   3.220   6.098   2.653
  161SAPE   H3S17954   3.085   6.129   2.767
  161SAPE   C2417955   3.251   6.270   2.781
  161SAPE   H4R17956   3.314   6.324   2.708
  161SAPE   H4S17957   3.319   6.207   2.843
  161SAPE   C2517958   3.173   6.366   2.867
  161SAPE   H5R17959   3.081   6.406   2.822
  161SAPE   C2617960   3.208   6.412   2.989
  161SAPE   H6R17961   3.138   6.478   3.042
  161SAPE   C2717962   3.334   6.378   3.064
  161SAPE   H7R17963   3.361   6.460   3.134
  161SAPE   H7S17964   3.418   6.376   2.992
  161SAPE   C2817965   3.339   6.251   3.143
  161SAPE   H8R17966   3.424   6.187   3.114
  161SAPE   C2917967   3.256   6.205   3.238
  161SAPE   H9R17968   3.277   6.105   3.280
  161SAPE  C21017969   3.131   6.265   3.297
  161SAPE  H10R17970   3.113   6.367   3.259
  161SAPE  H10S17971   3.144   6.273   3.407
  161SAPE  C21117972   3.018   6.172   3.262
  161SAPE  H11R17973   3.006   6.154   3.155
  161SAPE  C21217974   2.932   6.111   3.346
  161SAPE  H12R17975   2.854   6.046   3.301
  161SAPE  C21317976   2.928   6.120   3.496
  161SAPE  H13R17977   2.947   6.224   3.530
  161SAPE  H13S17978   3.011   6.058   3.537
  161SAPE  C21417979   2.798   6.071   3.555
  161SAPE  H14R17980   2.732   6.149   3.596
  161SAPE  C21517981   2.759   5.942   3.564
  161SAPE  H15R17982   2.661   5.919   3.608
  161SAPE  C21617983   2.839   5.823   3.517
  161SAPE  H16R17984   2.936   5.852   3.472
  161SAPE  H16S17985   2.782   5.770   3.438
  161SAPE  C21717986   2.866   5.725   3.632
  161SAPE  H17R17987   2.917   5.636   3.590
  161SAPE  H17S17988   2.769   5.691   3.675
  161SAPE  C21817989   2.953   5.780   3.746
  161SAPE  H18R17990   2.901   5.866   3.794
  161SAPE  H18S17991   3.049   5.818   3.704
  161SAPE  C21917992   2.981   5.673   3.852
  161SAPE  H19R17993   3.038   5.590   3.805
  161SAPE  H19S17994   2.884   5.631   3.886
  161SAPE  C22017995   3.057   5.725   3.973
  161SAPE  H20R17996   3.075   5.643   4.046
  161SAPE  H20S17997   3.000   5.805   4.024
  161SAPE  H20T17998   3.156   5.767   3.942
  161SAPE   C3317999   2.980   5.825   3.038
  161SAPE   H3X18000   2.882   5.812   3.089
  161SAPE   H3Y18001   3.006   5.933   3.042
  161SAPE   C3418002   3.086   5.745   3.116
  161SAPE   H4X18003   3.061   5.638   3.105
  161SAPE   H4Y18004   3.078   5.768   3.225
  161SAPE   C3518005   3.231   5.770   3.070
  161SAPE   H5X18006   3.238   5.778   2.959
  161SAPE   H5Y18007   3.294   5.683   3.097
  161SAPE   C3618008   3.292   5.893   3.135
  161SAPE   H6X18009   3.266   5.894   3.243
  161SAPE   H6Y18010   3.245   5.982   3.088
  161SAPE   C3718011   3.445   5.902   3.121
  161SAPE   H7X18012   3.479   6.005   3.147
  161SAPE   H7Y18013   3.473   5.884   3.015
  161SAPE   C3818014   3.526   5.809   3.212
  161SAPE   H8X18015   3.634   5.829   3.195
  161SAPE   H8Y18016   3.507   5.705   3.178
  161SAPE   C3918017   3.500   5.819   3.364
  161SAPE   H9X18018   3.581   5.764   3.417
  161SAPE   H9Y18019   3.404   5.770   3.390
  161SAPE  C31018020   3.496   5.963   3.418
  161SAPE  H10X18021   3.401   6.011   3.387
  161SAPE  H10Y18022   3.578   6.019   3.368
  161SAPE  C31118023   3.513   5.978   3.570
  161SAPE  H11X18024   3.571   6.070   3.589
  161SAPE  H11Y18025   3.572   5.892   3.609
  161SAPE  C31218026   3.383   5.993   3.652
  161SAPE  H12X18027   3.412   6.006   3.758
  161SAPE  H12Y18028   3.322   5.900   3.645
  161SAPE  C31318029   3.298   6.113   3.609
  161SAPE  H13X18030   3.245   6.087   3.515
  161SAPE  H13Y18031   3.366   6.199   3.587
  161SAPE  C31418032   3.194   6.159   3.711
  161SAPE  H14X18033   3.128   6.075   3.740
  161SAPE  H14Y18034   3.131   6.236   3.662
  161SAPE  C31518035   3.254   6.224   3.837
  161SAPE  H15X18036   3.340   6.287   3.804
  161SAPE  H15Y18037   3.294   6.147   3.905
  161SAPE  C31618038   3.154   6.316   3.911
  161SAPE  H16X18039   3.129   6.401   3.845
  161SAPE  H16Y18040   3.204   6.357   4.001
  161SAPE  C31718041   3.024   6.247   3.954
  161SAPE  H17X18042   2.968   6.215   3.864
  161SAPE  H17Y18043   2.961   6.321   4.008
  161SAPE  C31818044   3.046   6.125   4.045
  161SAPE  H18X18045   2.948   6.083   4.078
  161SAPE  H18Y18046   3.105   6.154   4.135
  161SAPE  H18Z18047   3.101   6.046   3.991
  162SAPE     N18048   2.675   1.207   2.280
  162SAPE   HN118049   2.725   1.163   2.200
  162SAPE   HN218050   2.731   1.280   2.328
  162SAPE   HN318051   2.649   1.133   2.347
  162SAPE   C1218052   2.550   1.270   2.226
  162SAPE  H12A18053   2.574   1.325   2.134
  162SAPE  H12B18054   2.512   1.342   2.302
  162SAPE   C1118055   2.448   1.158   2.201
  162SAPE  H11A18056   2.350   1.203   2.173
  162SAPE  H11B18057   2.433   1.106   2.298
  162SAPE     P18058   2.488   0.913   2.103
  162SAPE   O1318059   2.356   0.872   2.047
  162SAPE   O1418060   2.611   0.865   2.037
  162SAPE   O1218061   2.494   1.072   2.098
  162SAPE   O1118062   2.496   0.883   2.258
  162SAPE    C118063   2.415   0.783   2.321
  162SAPE    HA18064   2.416   0.687   2.265
  162SAPE    HB18065   2.458   0.762   2.421
  162SAPE    C218066   2.269   0.830   2.343
  162SAPE    HS18067   2.217   0.823   2.246
  162SAPE   O2118068   2.277   0.966   2.383
  162SAPE   C2118069   2.170   1.039   2.375
  162SAPE   O2218070   2.069   1.015   2.310
  162SAPE   C2218071   2.193   1.155   2.470
  162SAPE   H2R18072   2.258   1.231   2.423
  162SAPE   H2S18073   2.093   1.200   2.490
  162SAPE    C318074   2.186   0.749   2.448
  162SAPE    HX18075   2.182   0.643   2.416
  162SAPE    HY18076   2.082   0.787   2.445
  162SAPE   O3118077   2.236   0.768   2.582
  162SAPE   C3118078   2.284   0.661   2.645
  162SAPE   O3218079   2.286   0.548   2.601
  162SAPE   C3218080   2.333   0.704   2.784
  162SAPE   H2X18081   2.260   0.666   2.858
  162SAPE   H2Y18082   2.335   0.815   2.790
  162SAPE   C2318083   2.253   1.103   2.604
  162SAPE   H3R18084   2.229   0.996   2.620
  162SAPE   H3S18085   2.192   1.152   2.683
  162SAPE   C2418086   2.406   1.121   2.628
  162SAPE   H4R18087   2.453   1.044   2.563
  162SAPE   H4S18088   2.428   1.084   2.731
  162SAPE   C2518089   2.474   1.253   2.598
  162SAPE   H5R18090   2.493   1.256   2.490
  162SAPE   C2618091   2.516   1.365   2.663
  162SAPE   H6R18092   2.570   1.432   2.594
  162SAPE   C2718093   2.521   1.426   2.804
  162SAPE   H7R18094   2.610   1.493   2.805
  162SAPE   H7S18095   2.561   1.345   2.868
  162SAPE   C2818096   2.409   1.516   2.864
  162SAPE   H8R18097   2.405   1.597   2.790
  162SAPE   C2918098   2.325   1.540   2.973
  162SAPE   H9R18099   2.255   1.623   2.953
  162SAPE  C21018100   2.289   1.489   3.116
  162SAPE  H10R18101   2.284   1.587   3.168
  162SAPE  H10S18102   2.375   1.449   3.174
  162SAPE  C21118103   2.167   1.425   3.181
  162SAPE  H11R18104   2.085   1.498   3.187
  162SAPE  C21218105   2.140   1.309   3.249
  162SAPE  H12R18106   2.036   1.300   3.284
  162SAPE  C21318107   2.218   1.186   3.291
  162SAPE  H13R18108   2.274   1.145   3.203
  162SAPE  H13S18109   2.145   1.106   3.312
  162SAPE  C21418110   2.314   1.199   3.407
  162SAPE  H14R18111   2.380   1.287   3.402
  162SAPE  C21518112   2.326   1.114   3.510
  162SAPE  H15R18113   2.402   1.134   3.587
  162SAPE  C21618114   2.247   0.988   3.532
  162SAPE  H16R18115   2.296   0.924   3.608
  162SAPE  H16S18116   2.242   0.928   3.438
  162SAPE  C21718117   2.102   1.015   3.578
  162SAPE  H17R18118   2.050   0.917   3.587
  162SAPE  H17S18119   2.048   1.074   3.501
  162SAPE  C21818120   2.090   1.088   3.712
  162SAPE  H18R18121   1.982   1.102   3.734
  162SAPE  H18S18122   2.136   1.189   3.706
  162SAPE  C21918123   2.153   1.010   3.828
  162SAPE  H19R18124   2.264   1.018   3.826
  162SAPE  H19S18125   2.133   0.902   3.810
  162SAPE  C22018126   2.098   1.052   3.964
  162SAPE  H20R18127   2.096   1.163   3.970
  162SAPE  H20S18128   2.161   1.011   4.046
  162SAPE  H20T18129   1.994   1.016   3.979
  162SAPE   C3318130   2.473   0.647   2.814
  162SAPE   H3X18131   2.549   0.694   2.747
  162SAPE   H3Y18132   2.473   0.538   2.791
  162SAPE   C3418133   2.517   0.663   2.960
  162SAPE   H4X18134   2.612   0.607   2.973
  162SAPE   H4Y18135   2.441   0.616   3.027
  162SAPE   C3518136   2.540   0.808   3.005
  162SAPE   H5X18137   2.444   0.864   3.006
  162SAPE   H5Y18138   2.607   0.858   2.932
  162SAPE   C3618139   2.606   0.814   3.144
  162SAPE   H6X18140   2.698   0.752   3.139
  162SAPE   H6Y18141   2.539   0.769   3.220
  162SAPE   C3718142   2.646   0.956   3.187
  162SAPE   H7X18143   2.557   1.004   3.233
  162SAPE   H7Y18144   2.674   1.013   3.096
  162SAPE   C3818145   2.766   0.967   3.284
  162SAPE   H8X18146   2.768   1.069   3.328
  162SAPE   H8Y18147   2.859   0.955   3.224
  162SAPE   C3918148   2.768   0.862   3.395
  162SAPE   H9X18149   2.862   0.870   3.454
  162SAPE   H9Y18150   2.769   0.763   3.345
  162SAPE  C31018151   2.647   0.860   3.488
  162SAPE  H10X18152   2.556   0.894   3.434
  162SAPE  H10Y18153   2.665   0.930   3.572
  162SAPE  C31118154   2.622   0.717   3.538
  162SAPE  H11X18155   2.713   0.679   3.588
  162SAPE  H11Y18156   2.603   0.651   3.450
  162SAPE  C31218157   2.502   0.708   3.632
  162SAPE  H12X18158   2.486   0.601   3.659
  162SAPE  H12Y18159   2.411   0.742   3.578
  162SAPE  C31318160   2.521   0.790   3.760
  162SAPE  H13X18161   2.430   0.776   3.822
  162SAPE  H13Y18162   2.526   0.898   3.736
  162SAPE  C31418163   2.643   0.749   3.843
  162SAPE  H14X18164   2.736   0.790   3.798
  162SAPE  H14Y18165   2.651   0.638   3.841
  162SAPE  C31518166   2.631   0.790   3.990
  162SAPE  H15X18167   2.715   0.746   4.048
  162SAPE  H15Y18168   2.537   0.748   4.030
  162SAPE  C31618169   2.633   0.943   4.007
  162SAPE  H16X18170   2.553   0.988   3.946
  162SAPE  H16Y18171   2.730   0.981   3.969
  162SAPE  C31718172   2.615   0.989   4.152
  162SAPE  H17X18173   2.610   1.100   4.151
  162SAPE  H17Y18174   2.705   0.961   4.211
  162SAPE  C31818175   2.491   0.933   4.221
  162SAPE  H18X18176   2.470   0.989   4.315
  162SAPE  H18Y18177   2.504   0.826   4.247
  162SAPE  H18Z18178   2.402   0.942   4.155
  163SAPE     N18179   3.654   6.562   1.974
  163SAPE   HN118180   3.550   6.560   1.976
  163SAPE   HN218181   3.688   6.646   2.025
  163SAPE   HN318182   3.684   6.567   1.874
  163SAPE   C1218183   3.716   6.442   2.040
  163SAPE  H12A18184   3.746   6.369   1.962
  163SAPE  H12B18185   3.641   6.396   2.107
  163SAPE   C1118186   3.836   6.489   2.121
  163SAPE  H11A18187   3.909   6.539   2.055
  163SAPE  H11B18188   3.887   6.401   2.167
  163SAPE     P18189   3.845   6.715   2.248
  163SAPE   O1318190   3.984   6.707   2.296
  163SAPE   O1418191   3.820   6.783   2.118
  163SAPE   O1218192   3.786   6.572   2.226
  163SAPE   O1118193   3.747   6.772   2.357
  163SAPE    C118194   3.653   6.871   2.315
  163SAPE    HA18195   3.701   6.971   2.316
  163SAPE    HB18196   3.615   6.854   2.212
  163SAPE    C218197   3.526   6.876   2.403
  163SAPE    HS18198   3.479   6.975   2.387
  163SAPE   O2118199   3.555   6.860   2.543
  163SAPE   C2118200   3.616   6.967   2.595
  163SAPE   O2218201   3.670   7.057   2.534
  163SAPE   C2218202   3.588   6.966   2.744
  163SAPE   H2R18203   3.477   6.972   2.755
  163SAPE   H2S18204   3.621   6.867   2.782
  163SAPE    C318205   3.422   6.769   2.361
  163SAPE    HX18206   3.397   6.785   2.254
  163SAPE    HY18207   3.331   6.790   2.422
  163SAPE   O3118208   3.472   6.635   2.379
  163SAPE   C3118209   3.409   6.561   2.467
  163SAPE   O3218210   3.288   6.568   2.491
  163SAPE   C3218211   3.507   6.462   2.527
  163SAPE   H2X18212   3.606   6.471   2.477
  163SAPE   H2Y18213   3.468   6.360   2.509
  163SAPE   C2318214   3.656   7.077   2.827
  163SAPE   H3R18215   3.623   7.175   2.787
  163SAPE   H3S18216   3.766   7.071   2.813
  163SAPE   C2418217   3.622   7.063   2.977
  163SAPE   H4R18218   3.677   7.141   3.033
  163SAPE   H4S18219   3.663   6.966   3.013
  163SAPE   C2518220   3.474   7.073   3.001
  163SAPE   H5R18221   3.433   7.175   3.003
  163SAPE   C2618222   3.389   6.971   3.019
  163SAPE   H6R18223   3.283   6.994   3.037
  163SAPE   C2718224   3.428   6.825   3.020
  163SAPE   H7R18225   3.509   6.809   3.093
  163SAPE   H7S18226   3.470   6.795   2.921
  163SAPE   C2818227   3.310   6.737   3.051
  163SAPE   H8R18228   3.249   6.707   2.965
  163SAPE   C2918229   3.277   6.694   3.174
  163SAPE   H9R18230   3.188   6.629   3.184
  163SAPE  C21018231   3.347   6.723   3.305
  163SAPE  H10R18232   3.447   6.673   3.307
  163SAPE  H10S18233   3.287   6.676   3.386
  163SAPE  C21118234   3.361   6.870   3.334
  163SAPE  H11R18235   3.317   6.933   3.255
  163SAPE  C21218236   3.408   6.936   3.440
  163SAPE  H12R18237   3.405   7.046   3.434
  163SAPE  C21318238   3.463   6.883   3.570
  163SAPE  H13R18239   3.532   6.798   3.550
  163SAPE  H13S18240   3.378   6.844   3.630
  163SAPE  C21418241   3.534   6.995   3.643
  163SAPE  H14R18242   3.601   7.054   3.580
  163SAPE  C21518243   3.524   7.027   3.773
  163SAPE  H15R18244   3.580   7.115   3.809
  163SAPE  C21618245   3.442   6.958   3.879
  163SAPE  H16R18246   3.498   6.964   3.975
  163SAPE  H16S18247   3.429   6.851   3.855
  163SAPE  C21718248   3.302   7.018   3.904
  163SAPE  H17R18249   3.234   6.995   3.819
  163SAPE  H17S18250   3.316   7.128   3.910
  163SAPE  C21818251   3.235   6.978   4.038
  163SAPE  H18R18252   3.176   7.064   4.076
  163SAPE  H18S18253   3.313   6.961   4.114
  163SAPE  C21918254   3.137   6.860   4.027
  163SAPE  H19R18255   3.170   6.795   3.944
  163SAPE  H19S18256   3.037   6.900   3.999
  163SAPE  C22018257   3.119   6.776   4.154
  163SAPE  H20R18258   3.052   6.829   4.226
  163SAPE  H20S18259   3.216   6.757   4.205
  163SAPE  H20T18260   3.073   6.678   4.130
  163SAPE   C3318261   3.526   6.484   2.679
  163SAPE   H3X18262   3.577   6.393   2.717
  163SAPE   H3Y18263   3.429   6.492   2.733
  163SAPE   C3418264   3.611   6.607   2.715
  163SAPE   H4X18265   3.540   6.688   2.743
  163SAPE   H4Y18266   3.669   6.641   2.627
  163SAPE   C3518267   3.710   6.580   2.830
  163SAPE   H5X18268   3.792   6.518   2.788
  163SAPE   H5Y18269   3.659   6.525   2.912
  163SAPE   C3618270   3.777   6.705   2.890
  163SAPE   H6X18271   3.698   6.768   2.938
  163SAPE   H6Y18272   3.823   6.763   2.807
  163SAPE   C3718273   3.882   6.678   2.998
  163SAPE   H7X18274   3.955   6.602   2.963
  163SAPE   H7Y18275   3.831   6.638   3.088
  163SAPE   C3818276   3.957   6.808   3.031
  163SAPE   H8X18277   3.886   6.894   3.023
  163SAPE   H8Y18278   4.035   6.824   2.954
  163SAPE   C3918279   4.021   6.813   3.171
  163SAPE   H9X18280   4.100   6.890   3.167
  163SAPE   H9Y18281   4.071   6.716   3.195
  163SAPE  C31018282   3.924   6.854   3.283
  163SAPE  H10X18283   3.850   6.928   3.246
  163SAPE  H10Y18284   3.986   6.908   3.359
  163SAPE  C31118285   3.852   6.737   3.351
  163SAPE  H11X18286   3.918   6.648   3.351
  163SAPE  H11Y18287   3.761   6.712   3.292
  163SAPE  C31218288   3.812   6.766   3.497
  163SAPE  H12X18289   3.746   6.685   3.534
  163SAPE  H12Y18290   3.753   6.860   3.499
  163SAPE  C31318291   3.932   6.779   3.592
  163SAPE  H13X18292   3.997   6.863   3.558
  163SAPE  H13Y18293   3.993   6.687   3.589
  163SAPE  C31418294   3.891   6.810   3.736
  163SAPE  H14X18295   3.789   6.854   3.737
  163SAPE  H14Y18296   3.960   6.887   3.778
  163SAPE  C31518297   3.894   6.688   3.829
  163SAPE  H15X18298   3.999   6.653   3.843
  163SAPE  H15Y18299   3.838   6.606   3.779
  163SAPE  C31618300   3.828   6.717   3.964
  163SAPE  H16X18301   3.811   6.622   4.019
  163SAPE  H16Y18302   3.729   6.762   3.941
  163SAPE  C31718303   3.905   6.814   4.054
  163SAPE  H17X18304   3.936   6.903   3.995
  163SAPE  H17Y18305   3.998   6.765   4.090
  163SAPE  C31818306   3.822   6.863   4.173
  163SAPE  H18X18307   3.791   6.777   4.236
  163SAPE  H18Y18308   3.731   6.916   4.138
  163SAPE  H18Z18309   3.881   6.933   4.236
  164SAPE     N18310   5.958   5.276   2.036
  164SAPE   HN118311   5.953   5.194   2.100
  164SAPE   HN218312   5.896   5.351   2.073
  164SAPE   HN318313   5.920   5.250   1.943
  164SAPE   C1218314   6.098   5.330   2.021
  164SAPE  H12A18315   6.089   5.437   1.990
  164SAPE  H12B18316   6.148   5.273   1.940
  164SAPE   C1118317   6.179   5.320   2.151
  164SAPE  H11A18318   6.192   5.213   2.178
  164SAPE  H11B18319   6.124   5.370   2.234
  164SAPE     P18320   6.413   5.384   2.244
  164SAPE   O1318321   6.421   5.248   2.302
  164SAPE   O1418322   6.536   5.439   2.183
  164SAPE   O1218323   6.305   5.384   2.128
  164SAPE   O1118324   6.354   5.491   2.346
  164SAPE    C118325   6.291   5.609   2.295
  164SAPE    HA18326   6.360   5.666   2.229
  164SAPE    HB18327   6.202   5.581   2.234
  164SAPE    C218328   6.239   5.712   2.402
  164SAPE    HS18329   6.307   5.800   2.402
  164SAPE   O2118330   6.231   5.653   2.533
  164SAPE   C2118331   6.342   5.665   2.602
  164SAPE   O2218332   6.452   5.691   2.557
  164SAPE   C2218333   6.312   5.671   2.750
  164SAPE   H2R18334   6.202   5.671   2.765
  164SAPE   H2S18335   6.357   5.583   2.801
  164SAPE    C318336   6.098   5.766   2.365
  164SAPE    HX18337   6.108   5.825   2.271
  164SAPE    HY18338   6.064   5.836   2.444
  164SAPE   O3118339   6.008   5.656   2.343
  164SAPE   C3118340   5.948   5.613   2.454
  164SAPE   O3218341   5.915   5.682   2.549
  164SAPE   C3218342   5.930   5.463   2.445
  164SAPE   H2X18343   5.934   5.432   2.338
  164SAPE   H2Y18344   5.828   5.440   2.483
  164SAPE   C2318345   6.377   5.802   2.800
  164SAPE   H3R18346   6.344   5.888   2.739
  164SAPE   H3S18347   6.487   5.793   2.788
  164SAPE   C2418348   6.348   5.832   2.947
  164SAPE   H4R18349   6.395   5.926   2.980
  164SAPE   H4S18350   6.392   5.750   3.008
  164SAPE   C2518351   6.200   5.845   2.960
  164SAPE   H5R18352   6.151   5.913   2.889
  164SAPE   C2618353   6.126   5.780   3.050
  164SAPE   H6R18354   6.018   5.796   3.043
  164SAPE   C2718355   6.173   5.682   3.155
  164SAPE   H7R18356   6.152   5.727   3.255
  164SAPE   H7S18357   6.284   5.670   3.155
  164SAPE   C2818358   6.111   5.545   3.158
  164SAPE   H8R18359   6.185   5.463   3.162
  164SAPE   C2918360   5.980   5.516   3.157
  164SAPE   H9R18361   5.947   5.412   3.174
  164SAPE  C21018362   5.875   5.622   3.152
  164SAPE  H10R18363   5.858   5.650   3.046
  164SAPE  H10S18364   5.922   5.709   3.202
  164SAPE  C21118365   5.742   5.613   3.220
  164SAPE  H11R18366   5.654   5.608   3.153
  164SAPE  C21218367   5.725   5.612   3.352
  164SAPE  H12R18368   5.624   5.593   3.391
  164SAPE  C21318369   5.834   5.617   3.456
  164SAPE  H13R18370   5.932   5.643   3.413
  164SAPE  H13S18371   5.848   5.513   3.494
  164SAPE  C21418372   5.799   5.713   3.566
  164SAPE  H14R18373   5.764   5.812   3.533
  164SAPE  C21518374   5.810   5.687   3.697
  164SAPE  H15R18375   5.785   5.767   3.769
  164SAPE  C21618376   5.857   5.558   3.758
  164SAPE  H16R18377   5.854   5.472   3.687
  164SAPE  H16S18378   5.790   5.530   3.842
  164SAPE  C21718379   6.001   5.566   3.811
  164SAPE  H17R18380   6.070   5.611   3.737
  164SAPE  H17S18381   6.035   5.462   3.830
  164SAPE  C21818382   6.004   5.642   3.943
  164SAPE  H18R18383   5.912   5.616   3.998
  164SAPE  H18S18384   6.002   5.752   3.925
  164SAPE  C21918385   6.121   5.603   4.034
  164SAPE  H19R18386   6.141   5.494   4.024
  164SAPE  H19S18387   6.090   5.622   4.138
  164SAPE  C22018388   6.249   5.682   4.008
  164SAPE  H20R18389   6.333   5.643   4.070
  164SAPE  H20S18390   6.235   5.789   4.033
  164SAPE  H20T18391   6.278   5.674   3.901
  164SAPE   C3318392   6.035   5.385   2.527
  164SAPE   H3X18393   6.138   5.411   2.495
  164SAPE   H3Y18394   6.020   5.277   2.507
  164SAPE   C3418395   6.021   5.408   2.679
  164SAPE   H4X18396   5.912   5.409   2.704
  164SAPE   H4Y18397   6.062   5.507   2.708
  164SAPE   C3518398   6.086   5.297   2.763
  164SAPE   H5X18399   6.059   5.198   2.719
  164SAPE   H5Y18400   6.044   5.301   2.866
  164SAPE   C3618401   6.237   5.308   2.775
  164SAPE   H6X18402   6.263   5.393   2.842
  164SAPE   H6Y18403   6.281   5.330   2.675
  164SAPE   C3718404   6.302   5.179   2.828
  164SAPE   H7X18405   6.412   5.194   2.830
  164SAPE   H7Y18406   6.283   5.098   2.754
  164SAPE   C3818407   6.254   5.128   2.966
  164SAPE   H8X18408   6.330   5.055   3.000
  164SAPE   H8Y18409   6.158   5.073   2.955
  164SAPE   C3918410   6.238   5.231   3.080
  164SAPE   H9X18411   6.135   5.272   3.075
  164SAPE   H9Y18412   6.308   5.316   3.064
  164SAPE  C31018413   6.263   5.170   3.219
  164SAPE  H10X18414   6.369   5.136   3.227
  164SAPE  H10Y18415   6.200   5.079   3.226
  164SAPE  C31118416   6.230   5.260   3.340
  164SAPE  H11X18417   6.221   5.195   3.430
  164SAPE  H11Y18418   6.130   5.307   3.325
  164SAPE  C31218419   6.334   5.368   3.373
  164SAPE  H12X18420   6.348   5.435   3.285
  164SAPE  H12Y18421   6.432   5.320   3.393
  164SAPE  C31318422   6.297   5.454   3.495
  164SAPE  H13X18423   6.308   5.391   3.586
  164SAPE  H13Y18424   6.191   5.487   3.489
  164SAPE  C31418425   6.387   5.579   3.509
  164SAPE  H14X18426   6.352   5.657   3.438
  164SAPE  H14Y18427   6.490   5.549   3.478
  164SAPE  C31518428   6.396   5.637   3.651
  164SAPE  H15X18429   6.428   5.556   3.720
  164SAPE  H15Y18430   6.295   5.671   3.683
  164SAPE  C31618431   6.497   5.753   3.661
  164SAPE  H16X18432   6.463   5.835   3.594
  164SAPE  H16Y18433   6.595   5.718   3.623
  164SAPE  C31718434   6.517   5.810   3.803
  164SAPE  H17X18435   6.419   5.845   3.842
  164SAPE  H17Y18436   6.583   5.899   3.795
  164SAPE  C31818437   6.581   5.712   3.902
  164SAPE  H18X18438   6.681   5.681   3.867
  164SAPE  H18Y18439   6.518   5.621   3.914
  164SAPE  H18Z18440   6.591   5.760   4.002
  165SAPE     N18441   3.030   6.664   2.438
  165SAPE   HN118442   3.117   6.617   2.467
  165SAPE   HN218443   3.003   6.733   2.511
  165SAPE   HN318444   2.953   6.594   2.432
  165SAPE   C1218445   3.052   6.735   2.306
  165SAPE  H12A18446   3.081   6.660   2.230
  165SAPE  H12B18447   3.136   6.807   2.320
  165SAPE   C1118448   2.929   6.813   2.259
  165SAPE  H11A18449   2.895   6.884   2.338
  165SAPE  H11B18450   2.845   6.742   2.240
  165SAPE     P18451   2.978   7.034   2.120
  165SAPE   O1318452   2.930   7.069   1.985
  165SAPE   O1418453   2.913   7.099   2.235
  165SAPE   O1218454   2.960   6.877   2.136
  165SAPE   O1118455   3.135   7.050   2.124
  165SAPE    C118456   3.204   7.164   2.176
  165SAPE    HA18457   3.266   7.209   2.095
  165SAPE    HB18458   3.136   7.242   2.215
  165SAPE    C218459   3.297   7.116   2.290
  165SAPE    HS18460   3.346   7.026   2.249
  165SAPE   O2118461   3.204   7.075   2.392
  165SAPE   C2118462   3.234   7.061   2.517
  165SAPE   O2218463   3.342   7.077   2.569
  165SAPE   C2218464   3.113   7.005   2.591
  165SAPE   H2R18465   3.054   7.093   2.625
  165SAPE   H2S18466   3.049   6.947   2.520
  165SAPE    C318467   3.415   7.215   2.328
  165SAPE    HX18468   3.479   7.224   2.238
  165SAPE    HY18469   3.482   7.171   2.404
  165SAPE   O3118470   3.370   0.043   2.364
  165SAPE   C3118471   3.398   0.083   2.490
  165SAPE   O3218472   3.488   0.043   2.560
  165SAPE   C3218473   3.285   0.177   2.529
  165SAPE   H2X18474   3.199   0.137   2.471
  165SAPE   H2Y18475   3.311   0.280   2.496
  165SAPE   C2318476   3.155   6.919   2.713
  165SAPE   H3R18477   3.235   6.973   2.767
  165SAPE   H3S18478   3.199   6.822   2.682
  165SAPE   C2418479   3.041   6.902   2.815
  165SAPE   H4R18480   2.957   6.969   2.786
  165SAPE   H4S18481   3.080   6.944   2.910
  165SAPE   C2518482   2.988   6.762   2.840
  165SAPE   H5R18483   3.001   6.688   2.759
  165SAPE   C2618484   2.931   6.725   2.956
  165SAPE   H6R18485   2.896   6.622   2.970
  165SAPE   C2718486   2.914   6.819   3.073
  165SAPE   H7R18487   2.886   6.920   3.036
  165SAPE   H7S18488   3.013   6.834   3.121
  165SAPE   C2818489   2.811   6.779   3.175
  165SAPE   H8R18490   2.706   6.789   3.141
  165SAPE   C2918491   2.833   6.736   3.301
  165SAPE   H9R18492   2.745   6.713   3.363
  165SAPE  C21018493   2.966   6.716   3.371
  165SAPE  H10R18494   2.976   6.789   3.455
  165SAPE  H10S18495   3.051   6.738   3.304
  165SAPE  C21118496   2.976   6.575   3.423
  165SAPE  H11R18497   2.902   6.506   3.378
  165SAPE  C21218498   3.059   6.519   3.513
  165SAPE  H12R18499   3.041   6.413   3.537
  165SAPE  C21318500   3.174   6.576   3.594
  165SAPE  H13R18501   3.147   6.576   3.702
  165SAPE  H13S18502   3.193   6.682   3.568
  165SAPE  C21418503   3.297   6.489   3.572
  165SAPE  H14R18504   3.287   6.413   3.493
  165SAPE  C21518505   3.417   6.498   3.633
  165SAPE  H15R18506   3.495   6.426   3.605
  165SAPE  C21618507   3.458   6.596   3.739
  165SAPE  H16R18508   3.380   6.675   3.747
  165SAPE  H16S18509   3.551   6.648   3.708
  165SAPE  C21718510   3.482   6.538   3.881
  165SAPE  H17R18511   3.589   6.553   3.908
  165SAPE  H17S18512   3.465   6.428   3.882
  165SAPE  C21818513   3.393   6.602   3.987
  165SAPE  H18R18514   3.345   6.525   4.051
  165SAPE  H18S18515   3.310   6.655   3.935
  165SAPE  C21918516   3.466   6.702   4.077
  165SAPE  H19R18517   3.396   6.783   4.108
  165SAPE  H19S18518   3.547   6.752   4.020
  165SAPE  C22018519   3.521   6.641   4.204
  165SAPE  H20R18520   3.591   6.560   4.175
  165SAPE  H20S18521   3.439   6.599   4.265
  165SAPE  H20T18522   3.576   6.716   4.265
  165SAPE   C3318523   3.238   0.178   2.677
  165SAPE   H3X18524   3.134   0.216   2.684
  165SAPE   H3Y18525   3.297   0.254   2.733
  165SAPE   C3418526   3.240   0.039   2.741
  165SAPE   H4X18527   3.344   0.000   2.747
  165SAPE   H4Y18528   3.184   7.273   2.675
  165SAPE   C3518529   3.180   0.034   2.881
  165SAPE   H5X18530   3.199   0.129   2.935
  165SAPE   H5Y18531   3.230   7.256   2.936
  165SAPE   C3618532   3.030   0.005   2.874
  165SAPE   H6X18533   3.016   7.212   2.820
  165SAPE   H6Y18534   2.980   0.085   2.814
  165SAPE   C3718535   2.963   7.298   3.010
  165SAPE   H7X18536   2.858   7.265   2.996
  165SAPE   H7Y18537   2.961   0.096   3.056
  165SAPE   C3818538   3.036   7.202   3.105
  165SAPE   H8X18539   3.133   7.246   3.137
  165SAPE   H8Y18540   3.057   7.106   3.052
  165SAPE   C3918541   2.951   7.173   3.227
  165SAPE   H9X18542   2.858   7.122   3.194
  165SAPE   H9Y18543   2.918   7.269   3.272
  165SAPE  C31018544   3.017   7.084   3.333
  165SAPE  H10X18545   3.032   6.984   3.285
  165SAPE  H10Y18546   2.940   7.065   3.411
  165SAPE  C31118547   3.155   7.121   3.394
  165SAPE  H11X18548   3.225   7.097   3.310
  165SAPE  H11Y18549   3.174   7.051   3.478
  165SAPE  C31218550   3.202   7.263   3.435
  165SAPE  H12X18551   3.175   0.029   3.353
  165SAPE  H12Y18552   3.313   7.261   3.438
  165SAPE  C31318553   3.158   0.017   3.572
  165SAPE  H13X18554   3.048   0.006   3.579
  165SAPE  H13Y18555   3.183   0.125   3.570
  165SAPE  C31418556   3.211   7.261   3.702
  165SAPE  H14X18557   3.311   7.217   3.682
  165SAPE  H14Y18558   3.144   7.180   3.735
  165SAPE  C31518559   3.229   0.062   3.817
  165SAPE  H15X18560   3.308   0.129   3.778
  165SAPE  H15Y18561   3.272   0.015   3.908
  165SAPE  C31618562   3.112   0.154   3.860
  165SAPE  H16X18563   3.068   0.204   3.772
  165SAPE  H16Y18564   3.161   0.235   3.919
  165SAPE  C31718565   3.002   0.101   3.954
  165SAPE  H17X18566   2.909   0.079   3.898
  165SAPE  H17Y18567   2.974   0.185   4.022
  165SAPE  C31818568   3.038   7.286   4.043
  165SAPE  H18X18569   2.960   7.270   4.121
  165SAPE  H18Y18570   3.135   0.001   4.093
  165SAPE  H18Z18571   3.045   7.194   3.981
  166SAPE     N18572   5.122   0.618   2.156
  166SAPE   HN118573   5.138   0.720   2.146
  166SAPE   HN218574   5.192   0.562   2.104
  166SAPE   HN318575   5.030   0.594   2.114
  166SAPE   C1218576   5.115   0.580   2.301
  166SAPE  H12A18577   5.169   0.658   2.360
  166SAPE  H12B18578   5.165   0.481   2.313
  166SAPE   C1118579   4.970   0.566   2.346
  166SAPE  H11A18580   4.918   0.663   2.328
  166SAPE  H11B18581   4.965   0.549   2.456
  166SAPE     P18582   4.809   0.477   2.158
  166SAPE   O1318583   4.892   0.531   2.048
  166SAPE   O1418584   4.733   0.353   2.133
  166SAPE   O1218585   4.909   0.455   2.280
  166SAPE   O1118586   4.713   0.588   2.213
  166SAPE    C118587   4.640   0.563   2.334
  166SAPE    HA18588   4.541   0.518   2.311
  166SAPE    HB18589   4.693   0.494   2.404
  166SAPE    C218590   4.614   0.693   2.414
  166SAPE    HS18591   4.545   0.753   2.352
  166SAPE   O2118592   4.738   0.763   2.436
  166SAPE   C2118593   4.725   0.894   2.453
  166SAPE   O2218594   4.620   0.956   2.452
  166SAPE   C2218595   4.866   0.955   2.469
  166SAPE   H2R18596   4.942   0.875   2.466
  166SAPE   H2S18597   4.880   1.020   2.381
  166SAPE    C318598   4.544   0.662   2.549
  166SAPE    HX18599   4.449   0.609   2.524
  166SAPE    HY18600   4.520   0.760   2.596
  166SAPE   O3118601   4.623   0.580   2.639
  166SAPE   C3118602   4.559   0.562   2.755
  166SAPE   O3218603   4.453   0.611   2.785
  166SAPE   C3218604   4.636   0.472   2.847
  166SAPE   H2X18605   4.628   0.370   2.802
  166SAPE   H2Y18606   4.583   0.471   2.945
  166SAPE   C2318607   4.883   1.040   2.597
  166SAPE   H3R18608   4.793   1.104   2.612
  166SAPE   H3S18609   4.968   1.109   2.581
  166SAPE   C2418610   4.911   0.961   2.727
  166SAPE   H4R18611   4.926   1.036   2.808
  166SAPE   H4S18612   5.008   0.908   2.716
  166SAPE   C2518613   4.804   0.862   2.763
  166SAPE   H5R18614   4.803   0.772   2.700
  166SAPE   C2618615   4.709   0.870   2.860
  166SAPE   H6R18616   4.638   0.787   2.868
  166SAPE   C2718617   4.679   0.978   2.961
  166SAPE   H7R18618   4.604   0.935   3.031
  166SAPE   H7S18619   4.622   1.060   2.913
  166SAPE   C2818620   4.793   1.033   3.044
  166SAPE   H8R18621   4.843   1.123   3.004
  166SAPE   C2918622   4.836   0.981   3.160
  166SAPE   H9R18623   4.919   1.028   3.214
  166SAPE  C21018624   4.776   0.859   3.224
  166SAPE  H10R18625   4.856   0.802   3.275
  166SAPE  H10S18626   4.737   0.789   3.146
  166SAPE  C21118627   4.669   0.888   3.326
  166SAPE  H11R18628   4.674   0.987   3.374
  166SAPE  C21218629   4.571   0.803   3.361
  166SAPE  H12R18630   4.501   0.835   3.440
  166SAPE  C21318631   4.544   0.664   3.307
  166SAPE  H13R18632   4.503   0.673   3.205
  166SAPE  H13S18633   4.462   0.619   3.367
  166SAPE  C21418634   4.658   0.566   3.302
  166SAPE  H14R18635   4.704   0.554   3.203
  166SAPE  C21518636   4.706   0.493   3.405
  166SAPE  H15R18637   4.790   0.424   3.387
  166SAPE  C21618638   4.656   0.496   3.547
  166SAPE  H16R18639   4.584   0.413   3.564
  166SAPE  H16S18640   4.604   0.591   3.570
  166SAPE  C21718641   4.773   0.479   3.644
  166SAPE  H17R18642   4.849   0.558   3.627
  166SAPE  H17S18643   4.823   0.381   3.628
  166SAPE  C21818644   4.728   0.488   3.790
  166SAPE  H18R18645   4.658   0.405   3.813
  166SAPE  H18S18646   4.673   0.583   3.805
  166SAPE  C21918647   4.847   0.484   3.887
  166SAPE  H19R18648   4.916   0.567   3.860
  166SAPE  H19S18649   4.902   0.388   3.873
  166SAPE  C22018650   4.805   0.499   4.033
  166SAPE  H20R18651   4.895   0.510   4.097
  166SAPE  H20S18652   4.747   0.411   4.068
  166SAPE  H20T18653   4.741   0.589   4.046
  166SAPE   C3318654   4.783   0.511   2.866
  166SAPE   H3X18655   4.788   0.606   2.924
  166SAPE   H3Y18656   4.832   0.527   2.768
  166SAPE   C3418657   4.859   0.402   2.942
  166SAPE   H4X18658   4.839   0.304   2.895
  166SAPE   H4Y18659   4.822   0.398   3.046
  166SAPE   C3518660   5.010   0.426   2.942
  166SAPE   H5X18661   5.045   0.431   2.837
  166SAPE   H5Y18662   5.061   0.341   2.991
  166SAPE   C3618663   5.048   0.556   3.014
  166SAPE   H6X18664   4.993   0.643   2.972
  166SAPE   H6Y18665   5.156   0.574   2.994
  166SAPE   C3718666   5.028   0.549   3.165
  166SAPE   H7X18667   5.073   0.456   3.205
  166SAPE   H7Y18668   4.919   0.546   3.187
  166SAPE   C3818669   5.090   0.669   3.237
  166SAPE   H8X18670   5.048   0.762   3.192
  166SAPE   H8Y18671   5.200   0.674   3.223
  166SAPE   C3918672   5.057   0.666   3.387
  166SAPE   H9X18673   5.112   0.583   3.437
  166SAPE   H9Y18674   4.949   0.645   3.398
  166SAPE  C31018675   5.088   0.799   3.457
  166SAPE  H10X18676   5.054   0.883   3.393
  166SAPE  H10Y18677   5.198   0.808   3.468
  166SAPE  C31118678   5.020   0.811   3.594
  166SAPE  H11X18679   5.070   0.892   3.650
  166SAPE  H11Y18680   5.034   0.717   3.651
  166SAPE  C31218681   4.870   0.845   3.584
  166SAPE  H12X18682   4.815   0.760   3.537
  166SAPE  H12Y18683   4.858   0.934   3.520
  166SAPE  C31318684   4.810   0.875   3.722
  166SAPE  H13X18685   4.856   0.969   3.760
  166SAPE  H13Y18686   4.837   0.792   3.790
  166SAPE  C31418687   4.657   0.893   3.724
  166SAPE  H14X18688   4.609   0.794   3.708
  166SAPE  H14Y18689   4.627   0.959   3.640
  166SAPE  C31518690   4.607   0.955   3.856
  166SAPE  H15X18691   4.496   0.964   3.853
  166SAPE  H15Y18692   4.649   1.058   3.863
  166SAPE  C31618693   4.649   0.878   3.982
  166SAPE  H16X18694   4.759   0.862   3.979
  166SAPE  H16Y18695   4.602   0.777   3.982
  166SAPE  C31718696   4.617   0.952   4.112
  166SAPE  H17X18697   4.615   1.062   4.093
  166SAPE  H17Y18698   4.700   0.934   4.184
  166SAPE  C31818699   4.486   0.908   4.179
  166SAPE  H18X18700   4.486   0.798   4.195
  166SAPE  H18Y18701   4.399   0.935   4.115
  166SAPE  H18Z18702   4.474   0.958   4.277
  167SAPE     N18703   0.506   5.002   1.954
  167SAPE   HN118704   0.422   5.035   2.006
  167SAPE   HN218705   0.579   5.076   1.961
  167SAPE   HN318706   0.481   4.989   1.854
  167SAPE   C1218707   0.565   4.875   2.010
  167SAPE  H12A18708   0.659   4.856   1.955
  167SAPE  H12B18709   0.492   4.793   1.992
  167SAPE   C1118710   0.598   4.890   2.158
  167SAPE  H11A18711   0.655   4.802   2.195
  167SAPE  H11B18712   0.502   4.896   2.214
  167SAPE     P18713   0.680   5.092   2.307
  167SAPE   O1318714   0.823   5.116   2.338
  167SAPE   O1418715   0.593   5.207   2.281
  167SAPE   O1218716   0.679   5.006   2.175
  167SAPE   O1118717   0.613   4.993   2.411
  167SAPE    C118718   0.473   5.000   2.442
  167SAPE    HA18719   0.413   5.048   2.362
  167SAPE    HB18720   0.435   4.896   2.455
  167SAPE    C218721   0.447   5.074   2.575
  167SAPE    HS18722   0.463   5.183   2.556
  167SAPE   O2118723   0.534   5.019   2.675
  167SAPE   C2118724   0.619   5.103   2.732
  167SAPE   O2218725   0.629   5.222   2.709
  167SAPE   C2218726   0.694   5.033   2.846
  167SAPE   H2R18727   0.793   5.082   2.855
  167SAPE   H2S18728   0.636   5.054   2.938
  167SAPE    C318729   0.298   5.057   2.619
  167SAPE    HX18730   0.273   4.949   2.625
  167SAPE    HY18731   0.233   5.102   2.542
  167SAPE   O3118732   0.276   5.124   2.744
  167SAPE   C3118733   0.309   5.055   2.852
  167SAPE   O3218734   0.310   4.934   2.863
  167SAPE   C3218735   0.358   5.156   2.956
  167SAPE   H2X18736   0.274   5.227   2.973
  167SAPE   H2Y18737   0.441   5.214   2.911
  167SAPE   C2318738   0.710   4.880   2.833
  167SAPE   H3R18739   0.788   4.857   2.756
  167SAPE   H3S18740   0.615   4.834   2.798
  167SAPE   C2418741   0.744   4.812   2.967
  167SAPE   H4R18742   0.755   4.703   2.948
  167SAPE   H4S18743   0.657   4.824   3.034
  167SAPE   C2518744   0.871   4.862   3.032
  167SAPE   H5R18745   0.963   4.842   2.974
  167SAPE   C2618746   0.882   4.925   3.151
  167SAPE   H6R18747   0.982   4.955   3.186
  167SAPE   C2718748   0.769   4.962   3.245
  167SAPE   H7R18749   0.674   4.971   3.189
  167SAPE   H7S18750   0.789   5.063   3.286
  167SAPE   C2818751   0.754   4.864   3.360
  167SAPE   H8R18752   0.841   4.800   3.380
  167SAPE   C2918753   0.644   4.850   3.437
  167SAPE   H9R18754   0.647   4.776   3.519
  167SAPE  C21018755   0.515   4.926   3.426
  167SAPE  H10R18756   0.512   4.985   3.332
  167SAPE  H10S18757   0.512   5.002   3.508
  167SAPE  C21118758   0.393   4.837   3.432
  167SAPE  H11R18759   0.367   4.788   3.337
  167SAPE  C21218760   0.316   4.814   3.540
  167SAPE  H12R18761   0.229   4.747   3.531
  167SAPE  C21318762   0.337   4.872   3.678
  167SAPE  H13R18763   0.444   4.865   3.705
  167SAPE  H13S18764   0.283   4.810   3.753
  167SAPE  C21418765   0.294   5.017   3.690
  167SAPE  H14R18766   0.273   5.068   3.595
  167SAPE  C21518767   0.284   5.086   3.804
  167SAPE  H15R18768   0.254   5.192   3.798
  167SAPE  C21618769   0.311   5.036   3.944
  167SAPE  H16R18770   0.401   5.088   3.984
  167SAPE  H16S18771   0.333   4.927   3.945
  167SAPE  C21718772   0.194   5.065   4.040
  167SAPE  H17R18773   0.105   5.004   4.011
  167SAPE  H17S18774   0.165   5.172   4.032
  167SAPE  C21818775   0.229   5.038   4.188
  167SAPE  H18R18776   0.152   5.085   4.252
  167SAPE  H18S18777   0.326   5.087   4.210
  167SAPE  C21918778   0.238   4.889   4.223
  167SAPE  H19R18779   0.301   4.839   4.147
  167SAPE  H19S18780   0.136   4.846   4.216
  167SAPE  C22018781   0.297   4.861   4.361
  167SAPE  H20R18782   0.299   4.752   4.381
  167SAPE  H20S18783   0.237   4.911   4.440
  167SAPE  H20T18784   0.401   4.901   4.367
  167SAPE   C3318785   0.404   5.093   3.089
  167SAPE   H3X18786   0.512   5.113   3.107
  167SAPE   H3Y18787   0.390   4.983   3.090
  167SAPE   C3418788   0.323   5.153   3.204
  167SAPE   H4X18789   0.328   5.093   3.297
  167SAPE   H4Y18790   0.219   5.148   3.165
  167SAPE   C3518791   0.355   5.300   3.232
  167SAPE   H5X18792   0.263   5.351   3.266
  167SAPE   H5Y18793   0.389   5.350   3.139
  167SAPE   C3618794   0.461   5.314   3.341
  167SAPE   H6X18795   0.544   5.245   3.315
  167SAPE   H6Y18796   0.419   5.282   3.438
  167SAPE   C3718797   0.515   5.457   3.351
  167SAPE   H7X18798   0.431   5.527   3.372
  167SAPE   H7Y18799   0.559   5.485   3.253
  167SAPE   C3818800   0.622   5.472   3.460
  167SAPE   H8X18801   0.572   5.466   3.559
  167SAPE   H8Y18802   0.667   5.573   3.451
  167SAPE   C3918803   0.732   5.365   3.451
  167SAPE   H9X18804   0.769   5.360   3.347
  167SAPE   H9Y18805   0.688   5.266   3.476
  167SAPE  C31018806   0.852   5.389   3.545
  167SAPE  H10X18807   0.911   5.474   3.506
  167SAPE  H10Y18808   0.917   5.299   3.543
  167SAPE  C31118809   0.812   5.420   3.690
  167SAPE  H11X18810   0.757   5.517   3.690
  167SAPE  H11Y18811   0.904   5.435   3.751
  167SAPE  C31218812   0.725   5.313   3.758
  167SAPE  H12X18813   0.633   5.294   3.698
  167SAPE  H12Y18814   0.693   5.351   3.857
  167SAPE  C31318815   0.800   5.181   3.779
  167SAPE  H13X18816   0.894   5.203   3.834
  167SAPE  H13Y18817   0.827   5.137   3.681
  167SAPE  C31418818   0.718   5.080   3.859
  167SAPE  H14X18819   0.632   5.045   3.798
  167SAPE  H14Y18820   0.678   5.128   3.951
  167SAPE  C31518821   0.806   4.960   3.899
  167SAPE  H15X18822   0.888   4.995   3.965
  167SAPE  H15Y18823   0.851   4.919   3.807
  167SAPE  C31618824   0.728   4.848   3.969
  167SAPE  H16X18825   0.798   4.762   3.978
  167SAPE  H16Y18826   0.643   4.817   3.904
  167SAPE  C31718827   0.677   4.882   4.109
  167SAPE  H17X18828   0.614   4.973   4.104
  167SAPE  H17Y18829   0.764   4.904   4.175
  167SAPE  C31818830   0.595   4.768   4.170
  167SAPE  H18X18831   0.504   4.750   4.109
  167SAPE  H18Y18832   0.565   4.792   4.274
  167SAPE  H18Z18833   0.655   4.674   4.172
  168SAPE     N18834   2.042   0.759   2.039
  168SAPE   HN118835   2.096   0.836   1.995
  168SAPE   HN218836   1.954   0.742   1.987
  168SAPE   HN318837   2.018   0.780   2.138
  168SAPE   C1218838   2.124   0.633   2.035
  168SAPE  H12A18839   2.218   0.651   2.090
  168SAPE  H12B18840   2.147   0.612   1.928
  168SAPE   C1118841   2.044   0.520   2.099
  168SAPE  H11A18842   2.105   0.427   2.092
  168SAPE  H11B18843   1.950   0.502   2.042
  168SAPE     P18844   1.973   0.435   2.331
  168SAPE   O1318845   1.849   0.376   2.277
  168SAPE   O1418846   2.089   0.344   2.344
  168SAPE   O1218847   2.015   0.554   2.235
  168SAPE   O1118848   1.942   0.514   2.465
  168SAPE    C118849   1.840   0.614   2.470
  168SAPE    HA18850   1.885   0.715   2.459
  168SAPE    HB18851   1.765   0.604   2.388
  168SAPE    C218852   1.760   0.608   2.603
  168SAPE    HS18853   1.677   0.681   2.599
  168SAPE   O2118854   1.844   0.636   2.717
  168SAPE   C2118855   1.878   0.762   2.734
  168SAPE   O2218856   1.849   0.855   2.661
  168SAPE   C2218857   1.952   0.774   2.868
  168SAPE   H2R18858   1.877   0.756   2.948
  168SAPE   H2S18859   2.028   0.693   2.872
  168SAPE    C318860   1.697   0.467   2.621
  168SAPE    HX18861   1.778   0.391   2.608
  168SAPE    HY18862   1.624   0.452   2.539
  168SAPE   O3118863   1.629   0.457   2.748
  168SAPE   C3118864   1.692   0.387   2.843
  168SAPE   O3218865   1.786   0.312   2.827
  168SAPE   C3218866   1.626   0.416   2.977
  168SAPE   H2X18867   1.671   0.349   3.053
  168SAPE   H2Y18868   1.518   0.392   2.966
  168SAPE   C2318869   2.019   0.911   2.891
  168SAPE   H3R18870   1.945   0.993   2.881
  168SAPE   H3S18871   2.097   0.927   2.813
  168SAPE   C2418872   2.087   0.920   3.030
  168SAPE   H4R18873   2.152   1.010   3.033
  168SAPE   H4S18874   2.157   0.834   3.039
  168SAPE   C2518875   1.990   0.928   3.144
  168SAPE   H5R18876   1.939   1.025   3.154
  168SAPE   C2618877   1.961   0.831   3.233
  168SAPE   H6R18878   1.888   0.852   3.312
  168SAPE   C2718879   2.020   0.692   3.236
  168SAPE   H7R18880   2.084   0.672   3.147
  168SAPE   H7S18881   1.936   0.619   3.225
  168SAPE   C2818882   2.100   0.661   3.360
  168SAPE   H8R18883   2.209   0.670   3.348
  168SAPE   C2918884   2.051   0.627   3.481
  168SAPE   H9R18885   2.121   0.606   3.563
  168SAPE  C21018886   1.905   0.611   3.518
  168SAPE  H10R18887   1.849   0.701   3.485
  168SAPE  H10S18888   1.896   0.609   3.629
  168SAPE  C21118889   1.840   0.488   3.461
  168SAPE  H11R18890   1.861   0.471   3.354
  168SAPE  C21218891   1.757   0.401   3.522
  168SAPE  H12R18892   1.719   0.317   3.462
  168SAPE  C21318893   1.707   0.402   3.665
  168SAPE  H13R18894   1.627   0.326   3.672
  168SAPE  H13S18895   1.656   0.499   3.686
  168SAPE  C21418896   1.806   0.388   3.776
  168SAPE  H14R18897   1.907   0.423   3.753
  168SAPE  C21518898   1.781   0.330   3.895
  168SAPE  H15R18899   1.862   0.326   3.969
  168SAPE  C21618900   1.651   0.267   3.939
  168SAPE  H16R18901   1.671   0.167   3.982
  168SAPE  H16S18902   1.580   0.251   3.855
  168SAPE  C21718903   1.581   0.353   4.043
  168SAPE  H17R18904   1.484   0.305   4.069
  168SAPE  H17S18905   1.558   0.453   4.001
  168SAPE  C21818906   1.664   0.368   4.171
  168SAPE  H18R18907   1.760   0.419   4.150
  168SAPE  H18S18908   1.689   0.267   4.210
  168SAPE  C21918909   1.588   0.448   4.276
  168SAPE  H19R18910   1.636   0.427   4.374
  168SAPE  H19S18911   1.483   0.411   4.283
  168SAPE  C22018912   1.589   0.598   4.247
  168SAPE  H20R18913   1.536   0.620   4.152
  168SAPE  H20S18914   1.694   0.634   4.237
  168SAPE  H20T18915   1.539   0.654   4.329
  168SAPE   C3318916   1.641   0.564   3.018
  168SAPE   H3X18917   1.619   0.627   2.930
  168SAPE   H3Y18918   1.745   0.587   3.051
  168SAPE   C3418919   1.540   0.605   3.126
  168SAPE   H4X18920   1.441   0.561   3.104
  168SAPE   H4Y18921   1.530   0.715   3.118
  168SAPE   C3518922   1.579   0.575   3.272
  168SAPE   H5X18923   1.681   0.616   3.290
  168SAPE   H5Y18924   1.579   0.466   3.291
  168SAPE   C3618925   1.479   0.647   3.362
  168SAPE   H6X18926   1.378   0.609   3.334
  168SAPE   H6Y18927   1.489   0.755   3.337
  168SAPE   C3718928   1.488   0.644   3.514
  168SAPE   H7X18929   1.542   0.551   3.542
  168SAPE   H7Y18930   1.386   0.636   3.557
  168SAPE   C3818931   1.551   0.773   3.567
  168SAPE   H8X18932   1.487   0.859   3.537
  168SAPE   H8Y18933   1.650   0.788   3.520
  168SAPE   C3918934   1.565   0.777   3.720
  168SAPE   H9X18935   1.632   0.693   3.749
  168SAPE   H9Y18936   1.467   0.760   3.768
  168SAPE  C31018937   1.625   0.910   3.767
  168SAPE  H10X18938   1.549   0.990   3.750
  168SAPE  H10Y18939   1.711   0.936   3.702
  168SAPE  C31118940   1.671   0.909   3.914
  168SAPE  H11X18941   1.583   0.900   3.981
  168SAPE  H11Y18942   1.719   1.007   3.935
  168SAPE  C31218943   1.772   0.797   3.948
  168SAPE  H12X18944   1.720   0.699   3.952
  168SAPE  H12Y18945   1.816   0.817   4.048
  168SAPE  C31318946   1.882   0.790   3.842
  168SAPE  H13X18947   1.925   0.891   3.829
  168SAPE  H13Y18948   1.838   0.764   3.744
  168SAPE  C31418949   1.993   0.687   3.869
  168SAPE  H14X18950   2.064   0.695   3.783
  168SAPE  H14Y18951   1.950   0.585   3.867
  168SAPE  C31518952   2.070   0.702   4.000
  168SAPE  H15X18953   2.035   0.625   4.072
  168SAPE  H15Y18954   2.048   0.801   4.047
  168SAPE  C31618955   2.222   0.690   3.980
  168SAPE  H16X18956   2.275   0.697   4.078
  168SAPE  H16Y18957   2.256   0.780   3.923
  168SAPE  C31718958   2.268   0.565   3.903
  168SAPE  H17X18959   2.379   0.562   3.912
  168SAPE  H17Y18960   2.245   0.578   3.796
  168SAPE  C31818961   2.212   0.429   3.948
  168SAPE  H18X18962   2.236   0.351   3.873
  168SAPE  H18Y18963   2.101   0.433   3.959
  168SAPE  H18Z18964   2.257   0.398   4.045
  169SAPE     N18965   7.013   5.412   2.017
  169SAPE   HN118966   7.107   5.437   1.979
  169SAPE   HN218967   7.000   5.310   2.005
  169SAPE   HN318968   6.940   5.465   1.965
  169SAPE   C1218969   7.006   5.438   2.165
  169SAPE  H12A18970   6.900   5.423   2.196
  169SAPE  H12B18971   7.035   5.544   2.185
  169SAPE   C1118972   7.094   5.338   2.240
  169SAPE  H11A18973   7.068   5.342   2.348
  169SAPE  H11B18974   7.201   5.367   2.231
  169SAPE     P18975   7.071   5.078   2.271
  169SAPE   O1318976   7.024   4.968   2.182
  169SAPE   O1418977   7.202   5.058   2.334
  169SAPE   O1218978   7.076   5.209   2.182
  169SAPE   O1118979   6.961   5.113   2.380
  169SAPE    C118980   6.827   5.142   2.339
  169SAPE    HA18981   6.826   5.213   2.254
  169SAPE    HB18982   6.777   5.049   2.304
  169SAPE    C218983   6.733   5.208   2.448
  169SAPE    HS18984   6.666   5.276   2.392
  169SAPE   O2118985   6.810   5.280   2.547
  169SAPE   C2118986   6.738   5.369   2.615
  169SAPE   O2218987   6.628   5.409   2.582
  169SAPE   C2218988   6.818   5.424   2.735
  169SAPE   H2R18989   6.830   5.341   2.809
  169SAPE   H2S18990   6.918   5.452   2.698
  169SAPE    C318991   6.642   5.101   2.516
  169SAPE    HX18992   6.588   5.048   2.435
  169SAPE    HY18993   6.563   5.152   2.576
  169SAPE   O3118994   6.719   5.004   2.591
  169SAPE   C3118995   6.726   5.027   2.722
  169SAPE   O3218996   6.662   5.110   2.784
  169SAPE   C3218997   6.828   4.933   2.786
  169SAPE   H2X18998   6.872   4.867   2.708
  169SAPE   H2Y18999   6.773   4.869   2.858
  169SAPE   C2319000   6.751   5.546   2.804
  169SAPE   H3R19001   6.675   5.594   2.738
  169SAPE   H3S19002   6.829   5.622   2.824
  169SAPE   C2419003   6.684   5.517   2.939
  169SAPE   H4R19004   6.630   5.608   2.972
  169SAPE   H4S19005   6.764   5.498   3.014
  169SAPE   C2519006   6.586   5.403   2.935
  169SAPE   H5R19007   6.525   5.397   2.843
  169SAPE   C2619008   6.572   5.308   3.029
  169SAPE   H6R19009   6.502   5.226   3.011
  169SAPE   C2719010   6.647   5.296   3.159
  169SAPE   H7R19011   6.577   5.263   3.239
  169SAPE   H7S19012   6.686   5.394   3.192
  169SAPE   C2819013   6.758   5.195   3.146
  169SAPE   H8R19014   6.748   5.124   3.062
  169SAPE   C2919015   6.861   5.183   3.230
  169SAPE   H9R19016   6.937   5.105   3.213
  169SAPE  C21019017   6.882   5.268   3.353
  169SAPE  H10R19018   6.949   5.216   3.424
  169SAPE  H10S19019   6.785   5.271   3.407
  169SAPE  C21119020   6.934   5.408   3.329
  169SAPE  H11R19021   7.025   5.416   3.267
  169SAPE  C21219022   6.877   5.520   3.377
  169SAPE  H12R19023   6.927   5.617   3.361
  169SAPE  C21319024   6.752   5.529   3.460
  169SAPE  H13R19025   6.680   5.450   3.431
  169SAPE  H13S19026   6.700   5.625   3.440
  169SAPE  C21419027   6.787   5.519   3.607
  169SAPE  H14R19028   6.842   5.606   3.646
  169SAPE  C21519029   6.759   5.418   3.691
  169SAPE  H15R19030   6.797   5.428   3.794
  169SAPE  C21619031   6.686   5.289   3.666
  169SAPE  H16R19032   6.757   5.204   3.681
  169SAPE  H16S19033   6.649   5.281   3.561
  169SAPE  C21719034   6.565   5.269   3.759
  169SAPE  H17R19035   6.489   5.345   3.732
  169SAPE  H17S19036   6.593   5.284   3.865
  169SAPE  C21819037   6.501   5.129   3.743
  169SAPE  H18R19038   6.505   5.101   3.636
  169SAPE  H18S19039   6.394   5.135   3.773
  169SAPE  C21919040   6.569   5.021   3.828
  169SAPE  H19R19041   6.679   5.034   3.823
  169SAPE  H19S19042   6.545   4.922   3.785
  169SAPE  C22019043   6.524   5.022   3.975
  169SAPE  H20R19044   6.581   4.947   4.035
  169SAPE  H20S19045   6.416   4.997   3.982
  169SAPE  H20T19046   6.540   5.122   4.020
  169SAPE   C3319047   6.940   5.010   2.858
  169SAPE   H3X19048   7.009   4.935   2.902
  169SAPE   H3Y19049   6.898   5.070   2.942
  169SAPE   C3419050   7.022   5.105   2.769
  169SAPE   H4X19051   6.954   5.179   2.721
  169SAPE   H4Y19052   7.071   5.048   2.687
  169SAPE   C3519053   7.128   5.181   2.850
  169SAPE   H5X19054   7.080   5.223   2.941
  169SAPE   H5Y19055   7.167   5.266   2.791
  169SAPE   C3619056   7.246   5.090   2.887
  169SAPE   H6X19057   0.022   5.105   2.811
  169SAPE   H6Y19058   7.214   4.985   2.874
  169SAPE   C3719059   0.004   5.112   3.027
  169SAPE   H7X19060   0.051   5.212   3.027
  169SAPE   H7Y19061   0.084   5.036   3.038
  169SAPE   C3819062   7.219   5.103   3.154
  169SAPE   H8X19063   7.169   5.003   3.159
  169SAPE   H8Y19064   7.140   5.181   3.150
  169SAPE   C3919065   0.004   5.124   3.277
  169SAPE   H9X19066   0.055   5.221   3.259
  169SAPE   H9Y19067   0.081   5.044   3.281
  169SAPE  C31019068   7.248   5.136   3.418
  169SAPE  H10X19069   7.258   5.038   3.470
  169SAPE  H10Y19070   7.140   5.162   3.411
  169SAPE  C31119071   0.020   5.243   3.498
  169SAPE  H11X19072   0.004   5.341   3.447
  169SAPE  H11Y19073   0.129   5.222   3.493
  169SAPE  C31219074   7.284   5.260   3.645
  169SAPE  H12X19075   0.039   5.345   3.686
  169SAPE  H12Y19076   0.008   5.169   3.702
  169SAPE  C31319077   7.135   5.290   3.665
  169SAPE  H13X19078   7.078   5.197   3.643
  169SAPE  H13Y19079   7.101   5.365   3.590
  169SAPE  C31419080   7.099   5.342   3.805
  169SAPE  H14X19081   6.989   5.329   3.819
  169SAPE  H14Y19082   7.120   5.450   3.810
  169SAPE  C31519083   7.171   5.272   3.921
  169SAPE  H15X19084   7.280   5.297   3.917
  169SAPE  H15Y19085   7.166   5.162   3.909
  169SAPE  C31619086   7.114   5.311   4.058
  169SAPE  H16X19087   7.010   5.273   4.065
  169SAPE  H16Y19088   7.107   5.422   4.065
  169SAPE  C31719089   7.192   5.255   4.178
  169SAPE  H17X19090   7.300   5.276   4.166
  169SAPE  H17Y19091   7.179   5.145   4.179
  169SAPE  C31819092   7.144   5.315   4.310
  169SAPE  H18X19093   7.194   5.412   4.330
  169SAPE  H18Y19094   7.166   5.245   4.394
  169SAPE  H18Z19095   7.034   5.333   4.308
  170SAPE     N19096   5.565   0.297   2.451
  170SAPE   HN119097   5.583   0.374   2.519
  170SAPE   HN219098   5.554   0.206   2.501
  170SAPE   HN319099   5.647   0.290   2.387
  170SAPE   C1219100   5.445   0.330   2.366
  170SAPE  H12A19101   5.355   0.325   2.431
  170SAPE  H12B19102   5.437   0.251   2.288
  170SAPE   C1119103   5.460   0.471   2.304
  170SAPE  H11A19104   5.449   0.546   2.385
  170SAPE  H11B19105   5.376   0.487   2.233
  170SAPE     P19106   5.634   0.402   2.119
  170SAPE   O1319107   5.518   0.330   2.063
  170SAPE   O1419108   5.726   0.474   2.029
  170SAPE   O1219109   5.585   0.495   2.238
  170SAPE   O1119110   5.719   0.304   2.210
  170SAPE    C119111   5.842   0.361   2.258
  170SAPE    HA19112   5.911   0.386   2.174
  170SAPE    HB19113   5.824   0.454   2.316
  170SAPE    C219114   5.918   0.262   2.349
  170SAPE    HS19115   5.961   0.187   2.280
  170SAPE   O2119116   5.823   0.201   2.439
  170SAPE   C2119117   5.860   0.079   2.477
  170SAPE   O2219118   5.964   0.025   2.446
  170SAPE   C2219119   5.748   0.013   2.556
  170SAPE   H2R19120   5.658   0.004   2.492
  170SAPE   H2S19121   5.785   7.215   2.580
  170SAPE    C319122   6.033   0.336   2.423
  170SAPE    HX19123   6.098   0.377   2.343
  170SAPE    HY19124   6.095   0.265   2.482
  170SAPE   O3119125   5.984   0.447   2.500
  170SAPE   C3119126   5.948   0.415   2.624
  170SAPE   O3219127   5.971   0.309   2.678
  170SAPE   C3219128   5.862   0.526   2.683
  170SAPE   H2X19129   5.927   0.602   2.731
  170SAPE   H2Y19130   5.806   0.475   2.764
  170SAPE   C2319131   5.718   0.087   2.688
  170SAPE   H3R19132   5.666   0.183   2.671
  170SAPE   H3S19133   5.816   0.110   2.736
  170SAPE   C2419134   5.636   7.301   2.784
  170SAPE   H4R19135   5.703   7.218   2.813
  170SAPE   H4S19136   5.554   7.257   2.724
  170SAPE   C2519137   5.577   0.054   2.910
  170SAPE   H5R19138   5.491   7.300   2.947
  170SAPE   C2619139   5.617   0.160   2.984
  170SAPE   H6R19140   5.561   0.182   3.076
  170SAPE   C2719141   5.734   0.252   2.960
  170SAPE   H7R19142   5.722   0.340   3.027
  170SAPE   H7S19143   5.728   0.294   2.858
  170SAPE   C2819144   5.869   0.188   2.980
  170SAPE   H8R19145   5.886   0.093   2.928
  170SAPE   C2919146   5.967   0.234   3.060
  170SAPE   H9R19147   6.060   0.177   3.069
  170SAPE  C21019148   5.959   0.357   3.146
  170SAPE  H10R19149   5.917   0.443   3.088
  170SAPE  H10S19150   6.062   0.388   3.175
  170SAPE  C21119151   5.874   0.333   3.269
  170SAPE  H11R19152   5.775   0.381   3.267
  170SAPE  C21219153   5.909   0.260   3.377
  170SAPE  H12R19154   5.838   0.249   3.460
  170SAPE  C21319155   6.040   0.187   3.396
  170SAPE  H13R19156   6.095   0.236   3.479
  170SAPE  H13S19157   6.106   0.197   3.308
  170SAPE  C21419158   6.021   0.041   3.428
  170SAPE  H14R19159   6.016   7.278   3.340
  170SAPE  C21519160   6.010   7.291   3.551
  170SAPE  H15R19161   5.999   7.182   3.560
  170SAPE  C21619162   6.014   0.061   3.682
  170SAPE  H16R19163   6.009   0.172   3.668
  170SAPE  H16S19164   6.109   0.040   3.735
  170SAPE  C21719165   5.897   0.019   3.772
  170SAPE  H17R19166   5.895   7.212   3.781
  170SAPE  H17S19167   5.801   0.050   3.725
  170SAPE  C21819168   5.903   0.076   3.915
  170SAPE  H18R19169   5.993   0.037   3.967
  170SAPE  H18S19170   5.814   0.039   3.971
  170SAPE  C21919171   5.904   0.229   3.922
  170SAPE  H19R19172   5.827   0.269   3.852
  170SAPE  H19S19173   6.003   0.266   3.888
  170SAPE  C22019174   5.874   0.284   4.062
  170SAPE  H20R19175   5.874   0.395   4.062
  170SAPE  H20S19176   5.951   0.249   4.135
  170SAPE  H20T19177   5.775   0.249   4.097
  170SAPE   C3319178   5.768   0.593   2.579
  170SAPE   H3X19179   5.718   0.516   2.518
  170SAPE   H3Y19180   5.828   0.656   2.510
  170SAPE   C3419181   5.659   0.681   2.643
  170SAPE   H4X19182   5.595   0.724   2.564
  170SAPE   H4Y19183   5.708   0.766   2.696
  170SAPE   C3519184   5.573   0.605   2.744
  170SAPE   H5X19185   5.639   0.560   2.821
  170SAPE   H5Y19186   5.517   0.523   2.693
  170SAPE   C3619187   5.475   0.693   2.821
  170SAPE   H6X19188   5.406   0.744   2.750
  170SAPE   H6Y19189   5.532   0.772   2.875
  170SAPE   C3719190   5.393   0.613   2.922
  170SAPE   H7X19191   5.328   0.541   2.866
  170SAPE   H7Y19192   5.327   0.684   2.976
  170SAPE   C3819193   5.473   0.534   3.027
  170SAPE   H8X19194   5.528   0.608   3.090
  170SAPE   H8Y19195   5.548   0.468   2.979
  170SAPE   C3919196   5.384   0.445   3.115
  170SAPE   H9X19197   5.352   0.356   3.057
  170SAPE   H9Y19198   5.292   0.502   3.141
  170SAPE  C31019199   5.448   0.401   3.248
  170SAPE  H10X19200   5.543   0.347   3.229
  170SAPE  H10Y19201   5.378   0.330   3.296
  170SAPE  C31119202   5.470   0.519   3.344
  170SAPE  H11X19203   5.383   0.587   3.338
  170SAPE  H11Y19204   5.560   0.576   3.313
  170SAPE  C31219205   5.485   0.475   3.491
  170SAPE  H12X19206   5.392   0.421   3.521
  170SAPE  H12Y19207   5.494   0.565   3.555
  170SAPE  C31319208   5.607   0.384   3.514
  170SAPE  H13X19209   5.698   0.440   3.483
  170SAPE  H13Y19210   5.598   0.294   3.451
  170SAPE  C31419211   5.625   0.339   3.660
  170SAPE  H14X19212   5.646   0.428   3.724
  170SAPE  H14Y19213   5.714   0.273   3.664
  170SAPE  C31519214   5.504   0.264   3.717
  170SAPE  H15X19215   5.474   0.184   3.645
  170SAPE  H15Y19216   5.419   0.333   3.728
  170SAPE  C31619217   5.534   0.199   3.853
  170SAPE  H16X19218   5.573   0.276   3.923
  170SAPE  H16Y19219   5.613   0.122   3.840
  170SAPE  C31719220   5.410   0.133   3.914
  170SAPE  H17X19221   5.366   0.063   3.840
  170SAPE  H17Y19222   5.334   0.211   3.936
  170SAPE  C31819223   5.441   0.055   4.043
  170SAPE  H18X19224   5.487   0.122   4.119
  170SAPE  H18Y19225   5.511   7.276   4.022
  170SAPE  H18Z19226   5.348   0.012   4.086
  171SAPE     N19227   0.399   5.775   2.002
  171SAPE   HN119228   0.371   5.800   1.905
  171SAPE   HN219229   0.496   5.739   2.005
  171SAPE   HN319230   0.338   5.700   2.040
  171SAPE   C1219231   0.383   5.884   2.105
  171SAPE  H12A19232   0.274   5.897   2.124
  171SAPE  H12B19233   0.424   5.979   2.066
  171SAPE   C1119234   0.454   5.838   2.234
  171SAPE  H11A19235   0.424   5.903   2.319
  171SAPE  H11B19236   0.563   5.854   2.220
  171SAPE     P19237   0.285   5.646   2.290
  171SAPE   O1319238   0.221   5.641   2.156
  171SAPE   O1419239   0.282   5.524   2.371
  171SAPE   O1219240   0.432   5.699   2.264
  171SAPE   O1119241   0.225   5.770   2.367
  171SAPE    C119242   0.192   5.763   2.506
  171SAPE    HA19243   0.107   5.833   2.521
  171SAPE    HB19244   0.155   5.663   2.537
  171SAPE    C219245   0.305   5.808   2.606
  171SAPE    HS19246   0.373   5.880   2.557
  171SAPE   O2119247   0.376   5.691   2.653
  171SAPE   C2119248   0.460   5.714   2.753
  171SAPE   O2219249   0.526   5.815   2.768
  171SAPE   C2219250   0.440   5.602   2.857
  171SAPE   H2R19251   0.333   5.574   2.854
  171SAPE   H2S19252   0.500   5.515   2.823
  171SAPE    C319253   0.232   5.875   2.726
  171SAPE    HX19254   0.190   5.971   2.688
  171SAPE    HY19255   0.300   5.902   2.810
  171SAPE   O3119256   0.128   5.784   2.764
  171SAPE   C3119257   0.078   5.787   2.884
  171SAPE   O3219258   0.094   5.874   2.967
  171SAPE   C3219259   7.295   5.661   2.897
  171SAPE   H2X19260   0.045   5.576   2.850
  171SAPE   H2Y19261   7.202   5.680   2.840
  171SAPE   C2319262   0.476   5.638   3.004
  171SAPE   H3R19263   0.586   5.642   3.018
  171SAPE   H3S19264   0.439   5.554   3.067
  171SAPE   C2419265   0.414   5.770   3.056
  171SAPE   H4R19266   0.313   5.780   3.011
  171SAPE   H4S19267   0.474   5.855   3.016
  171SAPE   C2519268   0.398   5.779   3.207
  171SAPE   H5R19269   0.329   5.705   3.249
  171SAPE   C2619270   0.457   5.865   3.292
  171SAPE   H6R19271   0.435   5.855   3.399
  171SAPE   C2719272   0.556   5.974   3.259
  171SAPE   H7R19273   0.566   5.987   3.149
  171SAPE   H7S19274   0.655   5.935   3.292
  171SAPE   C2819275   0.544   6.111   3.322
  171SAPE   H8R19276   0.545   6.194   3.250
  171SAPE   C2919277   0.533   6.142   3.453
  171SAPE   H9R19278   0.527   6.248   3.479
  171SAPE  C21019279   0.530   6.048   3.572
  171SAPE  H10R19280   0.434   5.991   3.570
  171SAPE  H10S19281   0.525   6.110   3.665
  171SAPE  C21119282   0.646   5.954   3.583
  171SAPE  H11R19283   0.741   5.996   3.545
  171SAPE  C21219284   0.646   5.829   3.632
  171SAPE  H12R19285   0.741   5.774   3.628
  171SAPE  C21319286   0.532   5.750   3.691
  171SAPE  H13R19287   0.491   5.680   3.614
  171SAPE  H13S19288   0.449   5.817   3.720
  171SAPE  C21419289   0.583   5.673   3.810
  171SAPE  H14R19290   0.683   5.702   3.846
  171SAPE  C21519291   0.525   5.572   3.876
  171SAPE  H15R19292   0.578   5.528   3.961
  171SAPE  C21619293   0.391   5.510   3.849
  171SAPE  H16R19294   0.403   5.413   3.795
  171SAPE  H16S19295   0.328   5.576   3.785
  171SAPE  C21719296   0.324   5.484   3.985
  171SAPE  H17R19297   0.327   5.575   4.048
  171SAPE  H17S19298   0.380   5.404   4.038
  171SAPE  C21819299   0.179   5.440   3.971
  171SAPE  H18R19300   0.143   5.401   4.069
  171SAPE  H18S19301   0.177   5.356   3.898
  171SAPE  C21919302   0.084   5.550   3.922
  171SAPE  H19R19303   0.023   5.510   3.838
  171SAPE  H19S19304   0.146   5.632   3.880
  171SAPE  C22019305   7.294   5.608   4.028
  171SAPE  H20R19306   0.041   5.691   4.082
  171SAPE  H20S19307   7.269   5.531   4.105
  171SAPE  H20T19308   7.201   5.647   3.982
  171SAPE   C3319309   7.261   5.628   3.043
  171SAPE   H3X19310   7.177   5.555   3.045
  171SAPE   H3Y19311   7.226   5.721   3.093
  171SAPE   C3419312   0.074   5.568   3.121
  171SAPE   H4X19313   0.157   5.642   3.124
  171SAPE   H4Y19314   0.112   5.477   3.069
  171SAPE   C3519315   0.035   5.531   3.265
  171SAPE   H5X19316   0.121   5.485   3.317
  171SAPE   H5Y19317   7.256   5.457   3.261
  171SAPE   C3619318   7.294   5.652   3.348
  171SAPE   H6X19319   7.211   5.704   3.296
  171SAPE   H6Y19320   0.076   5.723   3.355
  171SAPE   C3719321   7.243   5.614   3.487
  171SAPE   H7X19322   0.021   5.570   3.548
  171SAPE   H7Y19323   7.163   5.538   3.475
  171SAPE   C3819324   7.182   5.736   3.558
  171SAPE   H8X19325   7.131   5.704   3.651
  171SAPE   H8Y19326   7.106   5.777   3.489
  171SAPE   C3919327   7.284   5.846   3.591
  171SAPE   H9X19328   7.230   5.938   3.621
  171SAPE   H9Y19329   0.042   5.872   3.502
  171SAPE  C31019330   0.071   5.806   3.707
  171SAPE  H10X19331   0.126   5.713   3.682
  171SAPE  H10Y19332   0.007   5.786   3.796
  171SAPE  C31119333   0.172   5.915   3.742
  171SAPE  H11X19334   0.118   6.012   3.747
  171SAPE  H11Y19335   0.244   5.922   3.658
  171SAPE  C31219336   0.249   5.892   3.873
  171SAPE  H12X19337   0.340   5.956   3.874
  171SAPE  H12Y19338   0.285   5.787   3.876
  171SAPE  C31319339   0.167   5.924   3.999
  171SAPE  H13X19340   0.067   5.877   3.989
  171SAPE  H13Y19341   0.151   6.033   4.009
  171SAPE  C31419342   0.234   5.872   4.127
  171SAPE  H14X19343   0.331   5.922   4.144
  171SAPE  H14Y19344   0.255   5.764   4.112
  171SAPE  C31519345   0.144   5.888   4.251
  171SAPE  H15X19346   0.038   5.876   4.222
  171SAPE  H15Y19347   0.156   5.992   4.289
  171SAPE  C31619348   0.176   5.788   4.363
  171SAPE  H16X19349   0.127   5.821   4.457
  171SAPE  H16Y19350   0.286   5.790   4.379
  171SAPE  C31719351   0.128   5.644   4.333
  171SAPE  H17X19352   0.175   5.610   4.238
  171SAPE  H17Y19353   0.018   5.648   4.316
  171SAPE  C31819354   0.157   5.539   4.440
  171SAPE  H18X19355   0.106   5.443   4.415
  171SAPE  H18Y19356   0.122   5.573   4.540
  171SAPE  H18Z19357   0.266   5.518   4.445
  172SAPE     N19358   6.893   6.621   2.277
  172SAPE   HN119359   6.863   6.642   2.180
  172SAPE   HN219360   6.974   6.680   2.304
  172SAPE   HN319361   6.916   6.519   2.280
  172SAPE   C1219362   6.772   6.637   2.364
  172SAPE  H12A19363   6.762   6.745   2.389
  172SAPE  H12B19364   6.789   6.581   2.458
  172SAPE   C1119365   6.646   6.585   2.293
  172SAPE  H11A19366   6.556   6.636   2.335
  172SAPE  H11B19367   6.635   6.477   2.315
  172SAPE     P19368   6.541   6.644   2.055
  172SAPE   O1319369   6.570   6.587   1.922
  172SAPE   O1419370   6.409   6.618   2.114
  172SAPE   O1219371   6.659   6.601   2.152
  172SAPE   O1119372   6.560   6.800   2.042
  172SAPE    C119373   6.679   6.872   2.074
  172SAPE    HA19374   6.764   6.808   2.109
  172SAPE    HB19375   6.715   6.920   1.981
  172SAPE    C219376   6.652   6.985   2.177
  172SAPE    HS19377   6.714   7.071   2.144
  172SAPE   O2119378   6.692   6.943   2.310
  172SAPE   C2119379   6.691   7.046   2.395
  172SAPE   O2219380   6.683   7.163   2.364
  172SAPE   C2219381   6.688   7.001   2.540
  172SAPE   H2R19382   6.673   6.891   2.547
  172SAPE   H2S19383   6.785   7.027   2.587
  172SAPE    C319384   6.502   7.029   2.176
  172SAPE    HX19385   6.473   7.058   2.073
  172SAPE    HY19386   6.498   7.124   2.235
  172SAPE   O3119387   6.409   6.930   2.226
  172SAPE   C3119388   6.323   6.972   2.318
  172SAPE   O3219389   6.322   7.083   2.369
  172SAPE   C3219390   6.218   6.865   2.345
  172SAPE   H2X19391   6.245   6.771   2.294
  172SAPE   H2Y19392   6.122   6.903   2.303
  172SAPE   C2319393   6.572   7.076   2.609
  172SAPE   H3R19394   6.475   7.034   2.575
  172SAPE   H3S19395   6.572   7.184   2.580
  172SAPE   C2419396   6.576   7.076   2.762
  172SAPE   H4R19397   6.485   7.128   2.798
  172SAPE   H4S19398   6.663   7.134   2.799
  172SAPE   C2519399   6.581   6.938   2.819
  172SAPE   H5R19400   6.490   6.879   2.799
  172SAPE   C2619401   6.680   6.886   2.892
  172SAPE   H6R19402   6.671   6.783   2.929
  172SAPE   C2719403   6.805   6.959   2.929
  172SAPE   H7R19404   6.785   7.033   3.009
  172SAPE   H7S19405   6.845   7.015   2.842
  172SAPE   C2819406   6.910   6.861   2.973
  172SAPE   H8R19407   6.958   6.806   2.891
  172SAPE   C2919408   6.950   6.832   3.098
  172SAPE   H9R19409   7.037   6.766   3.102
  172SAPE  C21019410   6.906   6.885   3.233
  172SAPE  H10R19411   6.884   6.994   3.224
  172SAPE  H10S19412   6.993   6.878   3.302
  172SAPE  C21119413   6.787   6.818   3.297
  172SAPE  H11R19414   6.691   6.852   3.254
  172SAPE  C21219415   6.781   6.722   3.393
  172SAPE  H12R19416   6.679   6.691   3.423
  172SAPE  C21319417   6.888   6.647   3.470
  172SAPE  H13R19418   6.987   6.680   3.432
  172SAPE  H13S19419   6.883   6.539   3.446
  172SAPE  C21419420   6.882   6.667   3.621
  172SAPE  H14R19421   6.890   6.774   3.647
  172SAPE  C21519422   6.872   6.580   3.725
  172SAPE  H15R19423   6.870   6.626   3.825
  172SAPE  C21619424   6.863   6.428   3.734
  172SAPE  H16R19425   6.944   6.395   3.803
  172SAPE  H16S19426   6.887   6.382   3.636
  172SAPE  C21719427   6.734   6.357   3.788
  172SAPE  H17R19428   6.758   6.256   3.825
  172SAPE  H17S19429   6.664   6.339   3.704
  172SAPE  C21819430   6.654   6.422   3.903
  172SAPE  H18R19431   6.546   6.402   3.885
  172SAPE  H18S19432   6.666   6.533   3.903
  172SAPE  C21919433   6.688   6.360   4.038
  172SAPE  H19R19434   6.796   6.376   4.056
  172SAPE  H19S19435   6.671   6.250   4.032
  172SAPE  C22019436   6.607   6.416   4.154
  172SAPE  H20R19437   6.633   6.366   4.250
  172SAPE  H20S19438   6.498   6.404   4.136
  172SAPE  H20T19439   6.628   6.525   4.166
  172SAPE   C3319440   6.201   6.841   2.496
  172SAPE   H3X19441   6.107   6.784   2.513
  172SAPE   H3Y19442   6.191   6.937   2.552
  172SAPE   C3419443   6.316   6.759   2.554
  172SAPE   H4X19444   6.413   6.811   2.538
  172SAPE   H4Y19445   6.321   6.661   2.502
  172SAPE   C3519446   6.295   6.736   2.703
  172SAPE   H5X19447   6.196   6.688   2.719
  172SAPE   H5Y19448   6.294   6.834   2.754
  172SAPE   C3619449   6.403   6.645   2.762
  172SAPE   H6X19450   6.503   6.669   2.720
  172SAPE   H6Y19451   6.379   6.541   2.734
  172SAPE   C3719452   6.411   6.654   2.915
  172SAPE   H7X19453   6.472   6.741   2.950
  172SAPE   H7Y19454   6.461   6.563   2.955
  172SAPE   C3819455   6.276   6.671   2.980
  172SAPE   H8X19456   6.209   6.591   2.941
  172SAPE   H8Y19457   6.230   6.769   2.956
  172SAPE   C3919458   6.291   6.659   3.130
  172SAPE   H9X19459   6.349   6.567   3.153
  172SAPE   H9Y19460   6.188   6.646   3.170
  172SAPE  C31019461   6.355   6.777   3.203
  172SAPE  H10X19462   6.340   6.872   3.148
  172SAPE  H10Y19463   6.465   6.759   3.212
  172SAPE  C31119464   6.291   6.787   3.341
  172SAPE  H11X19465   6.268   6.685   3.377
  172SAPE  H11Y19466   6.194   6.842   3.332
  172SAPE  C31219467   6.377   6.851   3.449
  172SAPE  H12X19468   6.480   6.810   3.443
  172SAPE  H12Y19469   6.331   6.823   3.546
  172SAPE  C31319470   6.383   7.002   3.443
  172SAPE  H13X19471   6.279   7.039   3.427
  172SAPE  H13Y19472   6.446   7.031   3.356
  172SAPE  C31419473   6.438   7.065   3.571
  172SAPE  H14X19474   6.402   7.009   3.660
  172SAPE  H14Y19475   6.393   7.166   3.581
  172SAPE  C31519476   6.592   7.076   3.573
  172SAPE  H15X19477   6.628   7.120   3.478
  172SAPE  H15Y19478   6.635   6.974   3.580
  172SAPE  C31619479   6.644   7.162   3.690
  172SAPE  H16X19480   6.577   7.150   3.777
  172SAPE  H16Y19481   6.639   7.269   3.659
  172SAPE  C31719482   6.787   7.128   3.733
  172SAPE  H17X19483   6.834   7.220   3.774
  172SAPE  H17Y19484   6.846   7.098   3.644
  172SAPE  C31819485   6.794   7.019   3.840
  172SAPE  H18X19486   6.748   6.925   3.804
  172SAPE  H18Y19487   6.739   7.052   3.931
  172SAPE  H18Z19488   6.899   6.999   3.870
  173SLPC     N19489   6.004   2.868   6.151
  173SLPC   C1319490   6.006   2.779   6.271
  173SLPC  H13A19491   6.106   2.742   6.290
  173SLPC  H13B19492   5.971   2.832   6.359
  173SLPC  H13C19493   5.943   2.692   6.255
  173SLPC   C1419494   5.865   2.914   6.121
  173SLPC  H14A19495   5.820   2.967   6.204
  173SLPC  H14B19496   5.867   2.980   6.037
  173SLPC  H14C19497   5.801   2.834   6.088
  173SLPC   C1519498   6.050   2.790   6.031
  173SLPC  H15A19499   6.154   2.762   6.036
  173SLPC  H15B19500   5.991   2.701   6.014
  173SLPC  H15C19501   6.038   2.851   5.943
  173SLPC   C1219502   6.091   2.992   6.170
  173SLPC  H12A19503   6.194   2.963   6.163
  173SLPC  H12B19504   6.075   3.032   6.269
  173SLPC   C1119505   6.070   3.108   6.070
  173SLPC  H11A19506   6.144   3.188   6.093
  173SLPC  H11B19507   5.970   3.155   6.086
  173SLPC     P19508   5.986   3.079   5.821
  173SLPC   O1319509   5.927   2.946   5.796
  173SLPC   O1419510   5.893   3.188   5.855
  173SLPC   O1219511   6.091   3.063   5.938
  173SLPC   O1119512   6.082   3.121   5.703
  173SLPC    C119513   6.191   3.211   5.728
  173SLPC    HA19514   6.168   3.306   5.676
  173SLPC    HB19515   6.205   3.237   5.835
  173SLPC    C219516   6.328   3.157   5.676
  173SLPC    HS19517   6.396   3.245   5.671
  173SLPC   O2119518   6.315   3.098   5.546
  173SLPC   C2119519   6.292   3.184   5.449
  173SLPC   O2219520   6.280   3.304   5.461
  173SLPC   C2219521   6.296   3.113   5.316
  173SLPC   H2R19522   6.287   3.003   5.334
  173SLPC   H2S19523   6.207   3.148   5.258
  173SLPC    C319524   6.395   3.054   5.771
  173SLPC    HX19525   6.410   3.103   5.870
  173SLPC    HY19526   6.497   3.030   5.732
  173SLPC   O3119527   6.315   2.936   5.791
  173SLPC   C3119528   6.327   2.845   5.696
  173SLPC   O3219529   6.422   2.832   5.620
  173SLPC   C3219530   6.204   2.755   5.698
  173SLPC   H2X19531   6.119   2.813   5.740
  173SLPC   H2Y19532   6.225   2.670   5.766
  173SLPC   C2319533   6.426   3.140   5.238
  173SLPC   H3R19534   6.495   3.208   5.294
  173SLPC   H3S19535   6.400   3.191   5.143
  173SLPC   C2419536   6.501   3.010   5.211
  173SLPC   H4R19537   6.431   2.939   5.161
  173SLPC   H4S19538   6.529   2.967   5.310
  173SLPC   C2519539   6.627   3.025   5.126
  173SLPC   H5R19540   6.682   2.929   5.127
  173SLPC   H5S19541   6.693   3.103   5.170
  173SLPC   C2619542   6.596   3.060   4.980
  173SLPC   H6R19543   6.539   3.156   4.975
  173SLPC   H6S19544   6.533   2.980   4.936
  173SLPC   C2719545   6.723   3.078   4.898
  173SLPC   H7R19546   6.791   2.994   4.924
  173SLPC   H7S19547   6.772   3.172   4.930
  173SLPC   C2819548   6.696   3.077   4.746
  173SLPC   H8R19549   6.599   3.128   4.726
  173SLPC   H8S19550   6.683   2.972   4.714
  173SLPC   C2919551   6.806   3.147   4.671
  173SLPC   H9R19552   6.850   3.234   4.724
  173SLPC  C21019553   6.855   3.114   4.551
  173SLPC  H10R19554   6.933   3.177   4.506
  173SLPC  C21119555   6.809   2.999   4.465
  173SLPC  H11R19556   6.848   3.013   4.362
  173SLPC  H11S19557   6.698   3.006   4.455
  173SLPC  C21219558   6.850   2.863   4.517
  173SLPC  H12R19559   6.958   2.852   4.536
  173SLPC  C21319560   6.770   2.757   4.539
  173SLPC  H13R19561   6.814   2.662   4.574
  173SLPC  C21419562   6.622   2.748   4.518
  173SLPC  H14R19563   6.575   2.848   4.536
  173SLPC  H14S19564   6.577   2.681   4.594
  173SLPC  C21519565   6.585   2.699   4.377
  173SLPC  H15R19566   6.474   2.690   4.372
  173SLPC  H15S19567   6.626   2.597   4.358
  173SLPC  C21619568   6.632   2.795   4.267
  173SLPC  H16R19569   6.742   2.804   4.267
  173SLPC  H16S19570   6.594   2.897   4.292
  173SLPC  C21719571   6.585   2.757   4.127
  173SLPC  H17R19572   6.480   2.722   4.129
  173SLPC  H17S19573   6.645   2.670   4.091
  173SLPC  C21819574   6.597   2.873   4.029
  173SLPC  H18R19575   6.557   2.965   4.075
  173SLPC  H18S19576   6.540   2.850   3.937
  173SLPC  H18T19577   6.702   2.893   4.000
  173SLPC   C3319578   6.164   2.705   5.557
  173SLPC   H3X19579   6.160   2.594   5.562
  173SLPC   H3Y19580   6.241   2.731   5.480
  173SLPC   C3419581   6.027   2.756   5.510
  173SLPC   H4X19582   5.952   2.743   5.591
  173SLPC   H4Y19583   5.996   2.694   5.423
  173SLPC   C3519584   6.025   2.902   5.462
  173SLPC   H5X19585   6.129   2.941   5.457
  173SLPC   H5Y19586   5.971   2.963   5.538
  173SLPC   C3619587   5.955   2.917   5.327
  173SLPC   H6X19588   5.927   3.024   5.313
  173SLPC   H6Y19589   5.861   2.858   5.327
  173SLPC   C3719590   6.044   2.875   5.210
  173SLPC   H7X19591   6.081   2.771   5.224
  173SLPC   H7Y19592   6.134   2.940   5.209
  173SLPC   C3819593   5.976   2.887   5.073
  173SLPC   H8X19594   5.903   2.970   5.073
  173SLPC   H8Y19595   5.921   2.791   5.057
  173SLPC   C3919596   6.078   2.909   4.961
  173SLPC   H9X19597   6.035   2.880   4.863
  173SLPC   H9Y19598   6.166   2.843   4.982
  173SLPC  C31019599   6.127   3.054   4.953
  173SLPC  H10X19600   6.163   3.088   5.053
  173SLPC  H10Y19601   6.041   3.119   4.926
  173SLPC  C31119602   6.242   3.073   4.853
  173SLPC  H11X19603   6.206   3.046   4.751
  173SLPC  H11Y19604   6.323   3.001   4.878
  173SLPC  C31219605   6.300   3.215   4.852
  173SLPC  H12X19606   6.376   3.222   4.771
  173SLPC  H12Y19607   6.351   3.235   4.948
  173SLPC  C31319608   6.196   3.327   4.835
  173SLPC  H13X19609   6.248   3.424   4.822
  173SLPC  H13Y19610   6.136   3.335   4.928
  173SLPC  C31419611   6.101   3.304   4.717
  173SLPC  H14X19612   6.016   3.375   4.724
  173SLPC  H14Y19613   6.056   3.202   4.724
  173SLPC  C31519614   6.168   3.319   4.581
  173SLPC  H15X19615   6.272   3.280   4.586
  173SLPC  H15Y19616   6.179   3.427   4.556
  173SLPC  C31619617   6.087   3.243   4.475
  173SLPC  H16X19618   5.979   3.265   4.489
  173SLPC  H16Y19619   6.101   3.134   4.494
  173SLPC  C31719620   6.123   3.275   4.330
  173SLPC  H17X19621   6.068   3.368   4.302
  173SLPC  H17Y19622   6.077   3.198   4.266
  173SLPC  C31819623   6.273   3.291   4.302
  173SLPC  H18X19624   6.292   3.316   4.195
  173SLPC  H18Y19625   6.328   3.197   4.321
  173SLPC  H18Z19626   6.319   3.371   4.365
  174SLPC     N19627   1.664   1.486   6.106
  174SLPC   C1319628   1.772   1.519   6.206
  174SLPC  H13A19629   1.745   1.600   6.271
  174SLPC  H13B19630   1.800   1.432   6.264
  174SLPC  H13C19631   1.861   1.547   6.151
  174SLPC   C1419632   1.629   1.612   6.035
  174SLPC  H14A19633   1.719   1.652   5.990
  174SLPC  H14B19634   1.560   1.592   5.954
  174SLPC  H14C19635   1.588   1.686   6.102
  174SLPC   C1519636   1.546   1.428   6.176
  174SLPC  H15A19637   1.473   1.391   6.106
  174SLPC  H15B19638   1.575   1.341   6.234
  174SLPC  H15C19639   1.499   1.499   6.241
  174SLPC   C1219640   1.717   1.384   6.005
  174SLPC  H12A19641   1.634   1.346   5.946
  174SLPC  H12B19642   1.761   1.300   6.056
  174SLPC   C1119643   1.823   1.434   5.906
  174SLPC  H11A19644   1.784   1.521   5.848
  174SLPC  H11B19645   1.846   1.356   5.831
  174SLPC     P19646   2.043   1.364   6.019
  174SLPC   O1319647   2.109   1.411   6.143
  174SLPC   O1419648   1.976   1.232   6.027
  174SLPC   O1219649   1.937   1.474   5.980
  174SLPC   O1119650   2.138   1.373   5.894
  174SLPC    C119651   2.185   1.504   5.860
  174SLPC    HA19652   2.140   1.587   5.919
  174SLPC    HB19653   2.294   1.508   5.883
  174SLPC    C219654   2.170   1.541   5.710
  174SLPC    HS19655   2.216   1.642   5.700
  174SLPC   O2119656   2.033   1.544   5.662
  174SLPC   C2119657   1.960   1.648   5.698
  174SLPC   O2219658   1.981   1.724   5.791
  174SLPC   C2219659   1.846   1.670   5.596
  174SLPC   H2R19660   1.853   1.594   5.515
  174SLPC   H2S19661   1.751   1.655   5.650
  174SLPC    C319662   2.251   1.445   5.620
  174SLPC    HX19663   2.347   1.423   5.671
  174SLPC    HY19664   2.275   1.502   5.528
  174SLPC   O3119665   2.177   1.324   5.593
  174SLPC   C3119666   2.186   1.284   5.468
  174SLPC   O3219667   2.279   1.308   5.392
  174SLPC   C3219668   2.052   1.221   5.430
  174SLPC   H2X19669   1.984   1.303   5.399
  174SLPC   H2Y19670   2.009   1.175   5.522
  174SLPC   C2319671   1.850   1.814   5.536
  174SLPC   H3R19672   1.912   1.814   5.444
  174SLPC   H3S19673   1.900   1.882   5.607
  174SLPC   C2419674   1.712   1.877   5.506
  174SLPC   H4R19675   1.728   1.985   5.488
  174SLPC   H4S19676   1.648   1.867   5.596
  174SLPC   C2519677   1.638   1.820   5.384
  174SLPC   H5R19678   1.542   1.874   5.373
  174SLPC   H5S19679   1.615   1.713   5.400
  174SLPC   C2619680   1.716   1.836   5.253
  174SLPC   H6R19681   1.806   1.772   5.258
  174SLPC   H6S19682   1.750   1.941   5.240
  174SLPC   C2719683   1.633   1.794   5.131
  174SLPC   H7R19684   1.592   1.883   5.079
  174SLPC   H7S19685   1.545   1.736   5.166
  174SLPC   C2819686   1.713   1.704   5.036
  174SLPC   H8R19687   1.641   1.646   4.975
  174SLPC   H8S19688   1.770   1.629   5.095
  174SLPC   C2919689   1.806   1.786   4.951
  174SLPC   H9R19690   1.903   1.814   4.995
  174SLPC  C21019691   1.775   1.826   4.826
  174SLPC  H10R19692   1.848   1.885   4.769
  174SLPC  C21119693   1.645   1.793   4.759
  174SLPC  H11R19694   1.562   1.809   4.831
  174SLPC  H11S19695   1.649   1.683   4.742
  174SLPC  C21219696   1.603   1.856   4.629
  174SLPC  H12R19697   1.518   1.925   4.636
  174SLPC  C21319698   1.659   1.835   4.509
  174SLPC  H13R19699   1.619   1.887   4.420
  174SLPC  C21419700   1.776   1.745   4.483
  174SLPC  H14R19701   1.750   1.668   4.407
  174SLPC  H14S19702   1.804   1.691   4.576
  174SLPC  C21519703   1.901   1.821   4.436
  174SLPC  H15R19704   1.870   1.900   4.364
  174SLPC  H15S19705   1.968   1.749   4.383
  174SLPC  C21619706   1.981   1.888   4.549
  174SLPC  H16R19707   2.007   1.811   4.625
  174SLPC  H16S19708   1.914   1.963   4.596
  174SLPC  C21719709   2.109   1.960   4.504
  174SLPC  H17R19710   2.152   2.013   4.591
  174SLPC  H17S19711   2.082   2.037   4.428
  174SLPC  C21819712   2.214   1.865   4.447
  174SLPC  H18R19713   2.180   1.825   4.349
  174SLPC  H18S19714   2.233   1.780   4.516
  174SLPC  H18T19715   2.310   1.918   4.429
  174SLPC   C3319716   2.063   1.114   5.320
  174SLPC   H3X19717   1.963   1.067   5.309
  174SLPC   H3Y19718   2.134   1.034   5.350
  174SLPC   C3419719   2.108   1.165   5.183
  174SLPC   H4X19720   2.103   1.079   5.113
  174SLPC   H4Y19721   2.214   1.200   5.186
  174SLPC   C3519722   2.021   1.274   5.123
  174SLPC   H5X19723   2.067   1.300   5.026
  174SLPC   H5Y19724   2.021   1.366   5.186
  174SLPC   C3619725   1.879   1.224   5.100
  174SLPC   H6X19726   1.811   1.271   5.174
  174SLPC   H6Y19727   1.873   1.114   5.116
  174SLPC   C3719728   1.834   1.252   4.957
  174SLPC   H7X19729   1.731   1.216   4.940
  174SLPC   H7Y19730   1.901   1.196   4.889
  174SLPC   C3819731   1.840   1.401   4.924
  174SLPC   H8X19732   1.925   1.454   4.972
  174SLPC   H8Y19733   1.746   1.447   4.962
  174SLPC   C3919734   1.848   1.424   4.774
  174SLPC   H9X19735   1.818   1.529   4.755
  174SLPC   H9Y19736   1.774   1.356   4.725
  174SLPC  C31019737   1.985   1.400   4.711
  174SLPC  H10X19738   2.015   1.293   4.716
  174SLPC  H10Y19739   2.060   1.459   4.768
  174SLPC  C31119740   1.986   1.449   4.565
  174SLPC  H11X19741   2.084   1.494   4.541
  174SLPC  H11Y19742   1.911   1.531   4.557
  174SLPC  C31219743   1.947   1.344   4.461
  174SLPC  H12X19744   1.863   1.384   4.400
  174SLPC  H12Y19745   1.912   1.251   4.510
  174SLPC  C31319746   2.063   1.312   4.368
  174SLPC  H13X19747   2.120   1.230   4.417
  174SLPC  H13Y19748   2.135   1.397   4.363
  174SLPC  C31419749   2.021   1.269   4.227
  174SLPC  H14X19750   1.934   1.201   4.235
  174SLPC  H14Y19751   2.104   1.208   4.187
  174SLPC  C31519752   1.991   1.381   4.124
  174SLPC  H15X19753   1.886   1.364   4.091
  174SLPC  H15Y19754   2.054   1.366   4.033
  174SLPC  C31619755   2.000   1.528   4.167
  174SLPC  H16X19756   1.940   1.545   4.260
  174SLPC  H16Y19757   1.952   1.586   4.085
  174SLPC  C31719758   2.139   1.594   4.182
  174SLPC  H17X19759   2.197   1.551   4.265
  174SLPC  H17Y19760   2.119   1.700   4.208
  174SLPC  C31819761   2.225   1.594   4.056
  174SLPC  H18X19762   2.175   1.650   3.974
  174SLPC  H18Y19763   2.242   1.490   4.022
  174SLPC  H18Z19764   2.323   1.641   4.076
  175SLPC     N19765   6.668   4.123   5.873
  175SLPC   C1319766   6.559   4.222   5.901
  175SLPC  H13A19767   6.585   4.283   5.987
  175SLPC  H13B19768   6.538   4.288   5.819
  175SLPC  H13C19769   6.467   4.172   5.925
  175SLPC   C1419770   6.629   4.049   5.748
  175SLPC  H14A19771   6.531   4.008   5.763
  175SLPC  H14B19772   6.625   4.115   5.663
  175SLPC  H14C19773   6.698   3.968   5.728
  175SLPC   C1519774   6.664   4.032   5.992
  175SLPC  H15A19775   6.731   3.948   5.981
  175SLPC  H15B19776   6.698   4.086   6.079
  175SLPC  H15C19777   6.563   4.000   6.011
  175SLPC   C1219778   6.803   4.192   5.862
  175SLPC  H12A19779   6.787   4.297   5.883
  175SLPC  H12B19780   6.839   4.188   5.760
  175SLPC   C1119781   6.917   4.148   5.960
  175SLPC  H11A19782   7.012   4.201   5.937
  175SLPC  H11B19783   6.938   4.040   5.947
  175SLPC     P19784   6.858   4.310   6.160
  175SLPC   O1319785   6.754   4.286   6.262
  175SLPC   O1419786   6.987   4.369   6.204
  175SLPC   O1219787   6.885   4.170   6.096
  175SLPC   O1119788   6.801   4.396   6.040
  175SLPC    C119789   6.693   4.486   6.064
  175SLPC    HA19790   6.599   4.430   6.084
  175SLPC    HB19791   6.711   4.551   6.152
  175SLPC    C219792   6.664   4.580   5.943
  175SLPC    HS19793   6.556   4.606   5.948
  175SLPC   O2119794   6.703   4.521   5.816
  175SLPC   C2119795   6.603   4.492   5.734
  175SLPC   O2219796   6.487   4.475   5.767
  175SLPC   C2219797   6.653   4.469   5.592
  175SLPC   H2R19798   6.754   4.512   5.582
  175SLPC   H2S19799   6.658   4.359   5.575
  175SLPC    C319800   6.741   4.714   5.959
  175SLPC    HX19801   6.701   4.766   6.049
  175SLPC    HY19802   6.719   4.778   5.871
  175SLPC   O3119803   6.882   4.691   5.978
  175SLPC   C3119804   6.949   4.671   5.866
  175SLPC   O3219805   6.916   4.707   5.754
  175SLPC   C3219806   7.071   4.586   5.900
  175SLPC   H2X19807   7.041   4.509   5.974
  175SLPC   H2Y19808   7.145   4.654   5.948
  175SLPC   C2319809   6.556   4.532   5.488
  175SLPC   H3R19810   6.563   4.643   5.495
  175SLPC   H3S19811   6.451   4.504   5.511
  175SLPC   C2419812   6.584   4.490   5.343
  175SLPC   H4R19813   6.532   4.559   5.273
  175SLPC   H4S19814   6.541   4.388   5.326
  175SLPC   C2519815   6.732   4.486   5.306
  175SLPC   H5R19816   6.740   4.450   5.201
  175SLPC   H5S19817   6.783   4.410   5.369
  175SLPC   C2619818   6.806   4.619   5.323
  175SLPC   H6R19819   6.782   4.664   5.421
  175SLPC   H6S19820   6.773   4.693   5.246
  175SLPC   C2719821   6.959   4.601   5.318
  175SLPC   H7R19822   6.983   4.527   5.397
  175SLPC   H7S19823   7.008   4.696   5.346
  175SLPC   C2819824   7.014   4.548   5.184
  175SLPC   H8R19825   6.949   4.469   5.142
  175SLPC   H8S19826   7.113   4.501   5.202
  175SLPC   C2919827   7.033   4.661   5.087
  175SLPC   H9R19828   7.133   4.707   5.089
  175SLPC  C21019829   6.944   4.707   5.000
  175SLPC  H10R19830   6.973   4.794   4.939
  175SLPC  C21119831   6.804   4.657   4.978
  175SLPC  H11R19832   6.773   4.581   5.053
  175SLPC  H11S19833   6.803   4.605   4.880
  175SLPC  C21219834   6.702   4.766   4.972
  175SLPC  H12R19835   6.634   4.779   5.058
  175SLPC  C21319836   6.691   4.845   4.865
  175SLPC  H13R19837   6.612   4.922   4.860
  175SLPC  C21419838   6.780   4.830   4.744
  175SLPC  H14R19839   6.733   4.756   4.676
  175SLPC  H14S19840   6.881   4.787   4.764
  175SLPC  C21519841   6.803   4.959   4.666
  175SLPC  H15R19842   6.910   4.986   4.659
  175SLPC  H15S19843   6.755   5.042   4.722
  175SLPC  C21619844   6.733   4.956   4.531
  175SLPC  H16R19845   6.682   5.054   4.517
  175SLPC  H16S19846   6.646   4.887   4.540
  175SLPC  C21719847   6.810   4.926   4.403
  175SLPC  H17R19848   6.763   4.987   4.323
  175SLPC  H17S19849   6.795   4.821   4.371
  175SLPC  C21819850   6.960   4.953   4.407
  175SLPC  H18R19851   6.980   5.061   4.416
  175SLPC  H18S19852   7.011   4.915   4.315
  175SLPC  H18T19853   7.004   4.898   4.492
  175SLPC   C3319854   7.132   4.520   5.775
  175SLPC   H3X19855   7.230   4.475   5.801
  175SLPC   H3Y19856   7.148   4.595   5.695
  175SLPC   C3419857   7.043   4.411   5.717
  175SLPC   H4X19858   6.941   4.452   5.699
  175SLPC   H4Y19859   7.035   4.327   5.789
  175SLPC   C3519860   7.098   4.358   5.585
  175SLPC   H5X19861   7.196   4.308   5.601
  175SLPC   H5Y19862   7.119   4.445   5.519
  175SLPC   C3619863   7.001   4.263   5.516
  175SLPC   H6X19864   6.900   4.309   5.510
  175SLPC   H6Y19865   6.993   4.169   5.575
  175SLPC   C3719866   7.052   4.233   5.376
  175SLPC   H7X19867   7.157   4.198   5.385
  175SLPC   H7Y19868   7.055   4.325   5.315
  175SLPC   C3819869   6.972   4.126   5.302
  175SLPC   H8X19870   6.948   4.040   5.368
  175SLPC   H8Y19871   7.042   4.092   5.223
  175SLPC   C3919872   6.848   4.172   5.229
  175SLPC   H9X19873   6.870   4.273   5.188
  175SLPC   H9Y19874   6.760   4.183   5.296
  175SLPC  C31019875   6.816   4.078   5.111
  175SLPC  H10X19876   6.752   3.994   5.147
  175SLPC  H10Y19877   6.910   4.035   5.071
  175SLPC  C31119878   6.751   4.151   4.994
  175SLPC  H11X19879   6.666   4.212   5.031
  175SLPC  H11Y19880   6.712   4.076   4.922
  175SLPC  C31219881   6.851   4.241   4.919
  175SLPC  H12X19882   6.911   4.180   4.849
  175SLPC  H12Y19883   6.922   4.290   4.989
  175SLPC  C31319884   6.779   4.351   4.842
  175SLPC  H13X19885   6.852   4.420   4.796
  175SLPC  H13Y19886   6.717   4.408   4.915
  175SLPC  C31419887   6.687   4.297   4.734
  175SLPC  H14X19888   6.684   4.186   4.743
  175SLPC  H14Y19889   6.730   4.320   4.634
  175SLPC  C31519890   6.544   4.350   4.743
  175SLPC  H15X19891   6.547   4.459   4.768
  175SLPC  H15Y19892   6.490   4.300   4.826
  175SLPC  C31619893   6.468   4.333   4.612
  175SLPC  H16X19894   6.528   4.364   4.523
  175SLPC  H16Y19895   6.378   4.398   4.613
  175SLPC  C31719896   6.427   4.191   4.584
  175SLPC  H17X19897   6.351   4.198   4.503
  175SLPC  H17Y19898   6.376   4.152   4.674
  175SLPC  C31819899   6.541   4.097   4.543
  175SLPC  H18X19900   6.588   4.052   4.632
  175SLPC  H18Y19901   6.618   4.151   4.483
  175SLPC  H18Z19902   6.503   4.012   4.482
  176SLPC     N19903   5.894   1.527   6.104
  176SLPC   C1319904   6.009   1.434   6.103
  176SLPC  H13A19905   6.093   1.474   6.049
  176SLPC  H13B19906   6.039   1.401   6.202
  176SLPC  H13C19907   5.979   1.347   6.047
  176SLPC   C1419908   5.931   1.655   6.172
  176SLPC  H14A19909   6.016   1.702   6.124
  176SLPC  H14B19910   5.850   1.725   6.165
  176SLPC  H14C19911   5.955   1.637   6.276
  176SLPC   C1519912   5.780   1.460   6.175
  176SLPC  H15A19913   5.697   1.528   6.188
  176SLPC  H15B19914   5.747   1.378   6.113
  176SLPC  H15C19915   5.810   1.420   6.271
  176SLPC   C1219916   5.851   1.561   5.961
  176SLPC  H12A19917   5.933   1.613   5.912
  176SLPC  H12B19918   5.770   1.633   5.968
  176SLPC   C1119919   5.803   1.452   5.861
  176SLPC  H11A19920   5.884   1.438   5.786
  176SLPC  H11B19921   5.719   1.492   5.800
  176SLPC     P19922   5.726   1.204   5.831
  176SLPC   O1319923   5.583   1.177   5.853
  176SLPC   O1419924   5.772   1.230   5.692
  176SLPC   O1219925   5.766   1.329   5.923
  176SLPC   O1119926   5.814   1.088   5.893
  176SLPC    C119927   5.916   1.110   5.990
  176SLPC    HA19928   5.888   1.191   6.061
  176SLPC    HB19929   5.924   1.019   6.054
  176SLPC    C219930   6.057   1.139   5.930
  176SLPC    HS19931   6.117   1.196   6.004
  176SLPC   O2119932   6.049   1.203   5.804
  176SLPC   C2119933   6.095   1.322   5.780
  176SLPC   O2219934   6.137   1.403   5.860
  176SLPC   C2219935   6.082   1.343   5.630
  176SLPC   H2R19936   6.119   1.250   5.580
  176SLPC   H2S19937   5.973   1.347   5.610
  176SLPC    C319938   6.130   1.006   5.900
  176SLPC    HX19939   6.127   0.942   5.991
  176SLPC    HY19940   6.236   1.028   5.878
  176SLPC   O3119941   6.060   0.938   5.792
  176SLPC   C3119942   6.112   0.969   5.671
  176SLPC   O3219943   6.231   0.978   5.650
  176SLPC   C3219944   6.001   0.974   5.566
  176SLPC   H2X19945   5.906   1.003   5.616
  176SLPC   H2Y19946   5.998   0.869   5.531
  176SLPC   C2319947   6.157   1.465   5.573
  176SLPC   H3R19948   6.261   1.438   5.546
  176SLPC   H3S19949   6.163   1.545   5.649
  176SLPC   C2419950   6.086   1.521   5.451
  176SLPC   H4R19951   6.089   1.448   5.367
  176SLPC   H4S19952   6.141   1.612   5.418
  176SLPC   C2519953   5.941   1.558   5.482
  176SLPC   H5R19954   5.933   1.593   5.587
  176SLPC   H5S19955   5.877   1.468   5.472
  176SLPC   C2619956   5.884   1.667   5.392
  176SLPC   H6R19957   5.923   1.765   5.425
  176SLPC   H6S19958   5.774   1.667   5.407
  176SLPC   C2719959   5.908   1.648   5.242
  176SLPC   H7R19960   6.017   1.657   5.222
  176SLPC   H7S19961   5.860   1.734   5.190
  176SLPC   C2819962   5.850   1.518   5.188
  176SLPC   H8R19963   5.745   1.507   5.222
  176SLPC   H8S19964   5.906   1.431   5.229
  176SLPC   C2919965   5.855   1.520   5.038
  176SLPC   H9R19966   5.759   1.539   4.987
  176SLPC  C21019967   5.966   1.503   4.964
  176SLPC  H10R19968   5.960   1.506   4.855
  176SLPC  C21119969   6.105   1.476   5.018
  176SLPC  H11R19970   6.119   1.515   5.121
  176SLPC  H11S19971   6.181   1.528   4.956
  176SLPC  C21219972   6.128   1.328   5.020
  176SLPC  H12R19973   6.106   1.282   5.117
  176SLPC  C21319974   6.171   1.252   4.917
  176SLPC  H13R19975   6.182   1.144   4.930
  176SLPC  C21419976   6.205   1.304   4.781
  176SLPC  H14R19977   6.315   1.320   4.777
  176SLPC  H14S19978   6.156   1.402   4.762
  176SLPC  C21519979   6.166   1.210   4.665
  176SLPC  H15R19980   6.152   1.272   4.574
  176SLPC  H15S19981   6.070   1.159   4.685
  176SLPC  C21619982   6.275   1.108   4.631
  176SLPC  H16R19983   6.282   1.035   4.715
  176SLPC  H16S19984   6.373   1.161   4.623
  176SLPC  C21719985   6.247   1.035   4.499
  176SLPC  H17R19986   6.137   1.030   4.484
  176SLPC  H17S19987   6.284   0.931   4.509
  176SLPC  C21819988   6.312   1.096   4.375
  176SLPC  H18R19989   6.423   1.084   4.380
  176SLPC  H18S19990   6.289   1.205   4.368
  176SLPC  H18T19991   6.276   1.045   4.284
  176SLPC   C3319992   6.018   1.062   5.439
  176SLPC   H3X19993   6.126   1.072   5.414
  176SLPC   H3Y19994   5.978   1.164   5.457
  176SLPC   C3419995   5.945   1.004   5.317
  176SLPC   H4X19996   5.851   1.060   5.297
  176SLPC   H4Y19997   5.921   0.898   5.338
  176SLPC   C3519998   6.032   0.997   5.193
  176SLPC   H5X19999   6.121   0.938   5.226
  176SLPC   H5Y20000   6.065   1.100   5.166
  176SLPC   C3620001   5.976   0.927   5.070
  176SLPC   H6X20002   5.914   0.840   5.103
  176SLPC   H6Y20003   6.059   0.886   5.008
  176SLPC   C3720004   5.894   1.020   4.981
  176SLPC   H7X20005   5.962   1.087   4.924
  176SLPC   H7Y20006   5.832   1.085   5.047
  176SLPC   C3820007   5.804   0.946   4.882
  176SLPC   H8X20008   5.807   0.836   4.900
  176SLPC   H8Y20009   5.843   0.964   4.780
  176SLPC   C3920010   5.660   0.997   4.884
  176SLPC   H9X20011   5.615   0.984   4.985
  176SLPC   H9Y20012   5.600   0.938   4.811
  176SLPC  C31020013   5.659   1.145   4.845
  176SLPC  H10X20014   5.752   1.169   4.788
  176SLPC  H10Y20015   5.660   1.208   4.936
  176SLPC  C31120016   5.541   1.182   4.755
  176SLPC  H11X20017   5.447   1.158   4.810
  176SLPC  H11Y20018   5.545   1.121   4.663
  176SLPC  C31220019   5.549   1.331   4.719
  176SLPC  H12X20020   5.646   1.341   4.664
  176SLPC  H12Y20021   5.555   1.389   4.813
  176SLPC  C31320022   5.438   1.391   4.631
  176SLPC  H13X20023   5.442   1.501   4.639
  176SLPC  H13Y20024   5.339   1.360   4.671
  176SLPC  C31420025   5.449   1.354   4.482
  176SLPC  H14X20026   5.347   1.354   4.438
  176SLPC  H14Y20027   5.490   1.252   4.472
  176SLPC  C31520028   5.534   1.452   4.400
  176SLPC  H15X20029   5.638   1.448   4.439
  176SLPC  H15Y20030   5.498   1.556   4.415
  176SLPC  C31620031   5.537   1.419   4.250
  176SLPC  H16X20032   5.453   1.472   4.200
  176SLPC  H16Y20033   5.522   1.310   4.237
  176SLPC  C31720034   5.671   1.457   4.184
  176SLPC  H17X20035   5.665   1.431   4.076
  176SLPC  H17Y20036   5.750   1.394   4.229
  176SLPC  C31820037   5.711   1.604   4.200
  176SLPC  H18X20038   5.722   1.631   4.307
  176SLPC  H18Y20039   5.634   1.670   4.154
  176SLPC  H18Z20040   5.808   1.622   4.149
  177SLPC     N20041   7.277   2.955   5.818
  177SLPC   C1320042   0.081   2.861   5.777
  177SLPC  H13A20043   0.066   2.768   5.830
  177SLPC  H13B20044   0.079   2.839   5.671
  177SLPC  H13C20045   0.179   2.896   5.807
  177SLPC   C1420046   7.148   2.894   5.774
  177SLPC  H14A20047   7.143   2.875   5.668
  177SLPC  H14B20048   7.135   2.801   5.826
  177SLPC  H14C20049   7.063   2.955   5.800
  177SLPC   C1520050   7.298   3.087   5.750
  177SLPC  H15A20051   7.220   3.157   5.776
  177SLPC  H15B20052   0.087   3.133   5.783
  177SLPC  H15C20053   7.299   3.076   5.643
  177SLPC   C1220054   7.281   2.966   5.970
  177SLPC  H12A20055   7.278   3.070   6.000
  177SLPC  H12B20056   0.072   2.927   6.004
  177SLPC   C1120057   7.174   2.891   6.054
  177SLPC  H11A20058   7.071   2.922   6.026
  177SLPC  H11B20059   7.184   2.919   6.161
  177SLPC     P20060   7.303   2.671   6.100
  177SLPC   O1320061   0.122   2.704   6.024
  177SLPC   O1420062   0.005   2.691   6.247
  177SLPC   O1220063   7.183   2.751   6.037
  177SLPC   O1120064   7.260   2.523   6.069
  177SLPC    C120065   7.137   2.492   6.002
  177SLPC    HA20066   7.112   2.388   6.031
  177SLPC    HB20067   7.052   2.555   6.037
  177SLPC    C220068   7.140   2.491   5.844
  177SLPC    HS20069   7.136   2.385   5.811
  177SLPC   O2120070   7.258   2.557   5.794
  177SLPC   C2120071   0.060   2.479   5.803
  177SLPC   O2220072   0.063   2.367   5.849
  177SLPC   C2220073   0.176   2.548   5.733
  177SLPC   H2R20074   0.206   2.637   5.793
  177SLPC   H2S20075   0.264   2.480   5.734
  177SLPC    C320076   7.018   2.559   5.776
  177SLPC    HX20077   7.015   2.665   5.810
  177SLPC    HY20078   6.924   2.511   5.811
  177SLPC   O3120079   7.029   2.544   5.632
  177SLPC   C3120080   7.012   2.653   5.558
  177SLPC   O3220081   6.962   2.757   5.595
  177SLPC   C3220082   7.084   2.635   5.423
  177SLPC   H2X20083   7.178   2.580   5.444
  177SLPC   H2Y20084   7.109   2.737   5.386
  177SLPC   C2320085   0.138   2.585   5.588
  177SLPC   H3R20086   0.059   2.663   5.588
  177SLPC   H3S20087   0.096   2.497   5.535
  177SLPC   C2420088   0.259   2.634   5.508
  177SLPC   H4R20089   0.304   2.550   5.452
  177SLPC   H4S20090   0.337   2.669   5.580
  177SLPC   C2520091   0.229   2.751   5.414
  177SLPC   H5R20092   0.325   2.776   5.364
  177SLPC   H5S20093   0.196   2.837   5.475
  177SLPC   C2620094   0.122   2.727   5.306
  177SLPC   H6R20095   0.108   2.821   5.249
  177SLPC   H6S20096   0.025   2.704   5.355
  177SLPC   C2720097   0.156   2.615   5.207
  177SLPC   H7R20098   0.159   2.520   5.264
  177SLPC   H7S20099   0.256   2.632   5.163
  177SLPC   C2820100   0.050   2.606   5.095
  177SLPC   H8R20101   0.061   2.695   5.030
  177SLPC   H8S20102   7.254   2.612   5.144
  177SLPC   C2920103   0.056   2.477   5.017
  177SLPC   H9R20104   0.042   2.387   5.078
  177SLPC  C21020105   0.076   2.463   4.886
  177SLPC  H10R20106   0.078   2.360   4.845
  177SLPC  C21120107   0.098   2.573   4.785
  177SLPC  H11R20108   0.191   2.629   4.807
  177SLPC  H11S20109   0.016   2.648   4.792
  177SLPC  C21220110   0.103   2.517   4.646
  177SLPC  H12R20111   0.205   2.501   4.607
  177SLPC  C21320112   7.303   2.487   4.566
  177SLPC  H13R20113   0.018   2.438   4.470
  177SLPC  C21420114   7.157   2.503   4.596
  177SLPC  H14R20115   7.139   2.569   4.684
  177SLPC  H14S20116   7.109   2.405   4.618
  177SLPC  C21520117   7.079   2.555   4.476
  177SLPC  H15R20118   7.141   2.622   4.412
  177SLPC  H15S20119   6.994   2.615   4.514
  177SLPC  C21620120   7.026   2.448   4.382
  177SLPC  H16R20121   6.987   2.360   4.439
  177SLPC  H16S20122   7.109   2.409   4.319
  177SLPC  C21720123   6.915   2.506   4.295
  177SLPC  H17R20124   6.825   2.525   4.358
  177SLPC  H17S20125   6.886   2.429   4.220
  177SLPC  C21820126   6.947   2.639   4.227
  177SLPC  H18R20127   6.865   2.669   4.158
  177SLPC  H18S20128   7.041   2.635   4.168
  177SLPC  H18T20129   6.959   2.721   4.302
  177SLPC   C3320130   7.006   2.558   5.314
  177SLPC   H3X20131   6.912   2.516   5.356
  177SLPC   H3Y20132   7.068   2.472   5.283
  177SLPC   C3420133   6.973   2.641   5.189
  177SLPC   H4X20134   7.066   2.687   5.148
  177SLPC   H4Y20135   6.904   2.725   5.214
  177SLPC   C3520136   6.910   2.552   5.080
  177SLPC   H5X20137   6.800   2.561   5.081
  177SLPC   H5Y20138   6.934   2.447   5.108
  177SLPC   C3620139   6.961   2.573   4.937
  177SLPC   H6X20140   6.928   2.488   4.875
  177SLPC   H6Y20141   7.072   2.571   4.934
  177SLPC   C3720142   6.901   2.696   4.867
  177SLPC   H7X20143   6.794   2.708   4.894
  177SLPC   H7Y20144   6.906   2.675   4.758
  177SLPC   C3820145   6.978   2.825   4.890
  177SLPC   H8X20146   6.966   2.860   4.995
  177SLPC   H8Y20147   6.936   2.902   4.822
  177SLPC   C3920148   7.126   2.812   4.855
  177SLPC   H9X20149   7.133   2.769   4.754
  177SLPC   H9Y20150   7.178   2.745   4.927
  177SLPC  C31020151   7.194   2.948   4.855
  177SLPC  H10X20152   7.208   2.983   4.959
  177SLPC  H10Y20153   7.123   3.017   4.804
  177SLPC  C31120154   0.024   2.947   4.780
  177SLPC  H11X20155   0.019   2.871   4.699
  177SLPC  H11Y20156   0.101   2.912   4.852
  177SLPC  C31220157   0.061   3.082   4.717
  177SLPC  H12X20158   0.157   3.070   4.662
  177SLPC  H12Y20159   0.081   3.156   4.797
  177SLPC  C31320160   7.259   3.138   4.619
  177SLPC  H13X20161   0.002   3.220   4.559
  177SLPC  H13Y20162   7.175   3.183   4.676
  177SLPC  C31420163   7.198   3.035   4.523
  177SLPC  H14X20164   7.122   3.084   4.458
  177SLPC  H14Y20165   7.145   2.958   4.583
  177SLPC  C31520166   7.302   2.969   4.435
  177SLPC  H15X20167   0.100   2.980   4.480
  177SLPC  H15Y20168   0.001   3.022   4.337
  177SLPC  C31620169   7.278   2.820   4.414
  177SLPC  H16X20170   7.181   2.808   4.362
  177SLPC  H16Y20171   7.273   2.768   4.512
  177SLPC  C31720172   0.089   2.762   4.330
  177SLPC  H17X20173   0.180   2.785   4.389
  177SLPC  H17Y20174   0.090   2.822   4.236
  177SLPC  C31820175   0.096   2.615   4.290
  177SLPC  H18X20176   0.152   2.605   4.195
  177SLPC  H18Y20177   7.298   2.573   4.277
  177SLPC  H18Z20178   0.152   2.557   4.366
  178SLPC     N20179   1.782   0.025   5.972
  178SLPC   C1320180   1.822   0.008   5.828
  178SLPC  H13A20181   1.842   7.208   5.808
  178SLPC  H13B20182   1.743   0.040   5.761
  178SLPC  H13C20183   1.912   0.064   5.806
  178SLPC   C1420184   1.660   7.245   5.998
  178SLPC  H14A20185   1.621   7.261   6.097
  178SLPC  H14B20186   1.581   7.262   5.926
  178SLPC  H14C20187   1.687   7.141   5.995
  178SLPC   C1520188   1.748   0.167   6.002
  178SLPC  H15A20189   1.661   0.200   5.947
  178SLPC  H15B20190   1.725   0.180   6.107
  178SLPC  H15C20191   1.830   0.234   5.979
  178SLPC   C1220192   1.892   7.280   6.065
  178SLPC  H12A20193   1.852   7.278   6.165
  178SLPC  H12B20194   1.974   0.047   6.065
  178SLPC   C1120195   1.948   7.138   6.040
  178SLPC  H11A20196   2.033   7.123   6.109
  178SLPC  H11B20197   1.987   7.129   5.936
  178SLPC     P20198   1.879   6.888   6.047
  178SLPC   O1320199   2.003   6.860   6.123
  178SLPC   O1420200   1.758   6.809   6.078
  178SLPC   O1220201   1.846   7.041   6.066
  178SLPC   O1120202   1.908   6.883   5.891
  178SLPC    C120203   1.798   6.912   5.804
  178SLPC    HA20204   1.726   6.827   5.804
  178SLPC    HB20205   1.743   7.004   5.834
  178SLPC    C220206   1.848   6.935   5.660
  178SLPC    HS20207   1.904   6.844   5.630
  178SLPC   O2120208   1.936   7.049   5.660
  178SLPC   C2120209   1.987   7.080   5.542
  178SLPC   O2220210   1.968   7.022   5.437
  178SLPC   C2220211   2.077   7.203   5.560
  178SLPC   H2R20212   2.013   7.287   5.595
  178SLPC   H2S20213   2.153   7.180   5.637
  178SLPC    C320214   1.726   6.951   5.564
  178SLPC    HX20215   1.646   6.881   5.595
  178SLPC    HY20216   1.758   6.922   5.461
  178SLPC   O3120217   1.680   7.087   5.572
  178SLPC   C3120218   1.611   7.125   5.467
  178SLPC   O3220219   1.576   7.054   5.374
  178SLPC   C3220220   1.578   7.272   5.487
  178SLPC   H2X20221   1.646   0.013   5.563
  178SLPC   H2Y20222   1.473   7.281   5.523
  178SLPC   C2320223   2.145   7.243   5.427
  178SLPC   H3R20224   2.200   0.035   5.441
  178SLPC   H3S20225   2.066   7.262   5.351
  178SLPC   C2420226   2.245   7.137   5.377
  178SLPC   H4R20227   2.202   7.035   5.388
  178SLPC   H4S20228   2.337   7.141   5.439
  178SLPC   C2520229   2.280   7.153   5.229
  178SLPC   H5R20230   2.352   7.073   5.202
  178SLPC   H5S20231   2.330   7.251   5.214
  178SLPC   C2620232   2.159   7.144   5.133
  178SLPC   H6R20233   2.099   7.237   5.142
  178SLPC   H6S20234   2.094   7.059   5.162
  178SLPC   C2720235   2.204   7.126   4.988
  178SLPC   H7R20236   2.200   7.019   4.957
  178SLPC   H7S20237   2.312   7.155   4.986
  178SLPC   C2820238   2.133   7.219   4.888
  178SLPC   H8R20239   2.207   7.244   4.809
  178SLPC   H8S20240   2.111   0.011   4.938
  178SLPC   C2920241   2.016   7.162   4.813
  178SLPC   H9R20242   2.029   7.059   4.776
  178SLPC  C21020243   1.901   7.226   4.790
  178SLPC  H10R20244   1.822   7.177   4.732
  178SLPC  C21120245   1.870   0.062   4.838
  178SLPC  H11R20246   1.898   0.059   4.946
  178SLPC  H11S20247   1.761   0.079   4.835
  178SLPC  C21220248   1.940   0.185   4.786
  178SLPC  H12R20249   1.966   0.258   4.865
  178SLPC  C21320250   1.973   0.215   4.660
  178SLPC  H13R20251   2.029   0.307   4.641
  178SLPC  C21420252   1.946   0.131   4.538
  178SLPC  H14R20253   1.993   0.031   4.551
  178SLPC  H14S20254   1.996   0.176   4.450
  178SLPC  C21520255   1.797   0.110   4.503
  178SLPC  H15R20256   1.746   0.207   4.487
  178SLPC  H15S20257   1.747   0.059   4.589
  178SLPC  C21620258   1.783   0.022   4.378
  178SLPC  H16R20259   1.859   7.245   4.384
  178SLPC  H16S20260   1.806   0.082   4.288
  178SLPC  C21720261   1.645   7.259   4.365
  178SLPC  H17R20262   1.617   7.214   4.462
  178SLPC  H17S20263   1.654   7.176   4.291
  178SLPC  C21820264   1.535   0.050   4.318
  178SLPC  H18R20265   1.560   0.094   4.219
  178SLPC  H18S20266   1.521   0.133   4.391
  178SLPC  H18T20267   1.439   7.298   4.307
  178SLPC   C3320268   1.588   0.045   5.356
  178SLPC   H3X20269   1.579   0.154   5.376
  178SLPC   H3Y20270   1.499   0.018   5.296
  178SLPC   C3420271   1.707   0.010   5.266
  178SLPC   H4X20272   1.734   7.206   5.265
  178SLPC   H4Y20273   1.798   0.065   5.300
  178SLPC   C3520274   1.672   0.048   5.122
  178SLPC   H5X20275   1.764   0.089   5.074
  178SLPC   H5Y20276   1.599   0.132   5.122
  178SLPC   C3620277   1.609   7.239   5.037
  178SLPC   H6X20278   1.594   7.280   4.935
  178SLPC   H6Y20279   1.510   7.213   5.080
  178SLPC   C3720280   1.677   7.102   5.022
  178SLPC   H7X20281   1.661   7.043   5.114
  178SLPC   H7Y20282   1.786   7.113   5.005
  178SLPC   C3820283   1.610   7.032   4.902
  178SLPC   H8X20284   1.637   7.089   4.811
  178SLPC   H8Y20285   1.499   7.039   4.913
  178SLPC   C3920286   1.645   6.884   4.883
  178SLPC   H9X20287   1.600   6.826   4.966
  178SLPC   H9Y20288   1.755   6.871   4.891
  178SLPC  C31020289   1.594   6.828   4.749
  178SLPC  H10X20290   1.483   6.839   4.746
  178SLPC  H10Y20291   1.617   6.720   4.745
  178SLPC  C31120292   1.653   6.895   4.623
  178SLPC  H11X20293   1.619   7.000   4.617
  178SLPC  H11Y20294   1.613   6.843   4.533
  178SLPC  C31220295   1.806   6.890   4.620
  178SLPC  H12X20296   1.839   6.784   4.621
  178SLPC  H12Y20297   1.846   6.939   4.711
  178SLPC  C31320298   1.868   6.961   4.499
  178SLPC  H13X20299   1.845   7.070   4.507
  178SLPC  H13Y20300   1.822   6.923   4.405
  178SLPC  C31420301   2.020   6.942   4.494
  178SLPC  H14X20302   2.042   6.834   4.477
  178SLPC  H14Y20303   2.062   6.968   4.594
  178SLPC  C31520304   2.092   7.026   4.389
  178SLPC  H15X20305   2.201   7.015   4.406
  178SLPC  H15Y20306   2.067   7.133   4.401
  178SLPC  C31620307   2.061   6.981   4.246
  178SLPC  H16X20308   1.958   7.012   4.218
  178SLPC  H16Y20309   2.064   6.870   4.242
  178SLPC  C31720310   2.161   7.035   4.144
  178SLPC  H17X20311   2.264   7.008   4.177
  178SLPC  H17Y20312   2.155   7.146   4.143
  178SLPC  C31820313   2.139   6.980   4.003
  178SLPC  H18X20314   2.148   6.869   4.002
  178SLPC  H18Y20315   2.214   7.022   3.932
  178SLPC  H18Z20316   2.037   7.007   3.966
  179SLPC     N20317   2.766   2.255   2.441
  179SLPC   C1320318   2.724   2.349   2.332
  179SLPC  H13A20319   2.758   2.448   2.359
  179SLPC  H13B20320   2.772   2.324   2.238
  179SLPC  H13C20321   2.617   2.354   2.320
  179SLPC   C1420322   2.726   2.115   2.407
  179SLPC  H14A20323   2.776   2.083   2.317
  179SLPC  H14B20324   2.763   2.044   2.479
  179SLPC  H14C20325   2.619   2.100   2.396
  179SLPC   C1520326   2.703   2.299   2.569
  179SLPC  H15A20327   2.729   2.403   2.586
  179SLPC  H15B20328   2.596   2.293   2.565
  179SLPC  H15C20329   2.741   2.241   2.653
  179SLPC   C1220330   2.918   2.259   2.451
  179SLPC  H12A20331   2.959   2.242   2.353
  179SLPC  H12B20332   2.951   2.174   2.508
  179SLPC   C1120333   2.984   2.387   2.508
  179SLPC  H11A20334   3.095   2.376   2.502
  179SLPC  H11B20335   2.960   2.393   2.616
  179SLPC     P20336   2.878   2.628   2.504
  179SLPC   O1320337   2.917   2.752   2.434
  179SLPC   O1420338   2.734   2.596   2.519
  179SLPC   O1220339   2.947   2.504   2.433
  179SLPC   O1120340   2.946   2.622   2.645
  179SLPC    C120341   3.065   2.692   2.677
  179SLPC    HA20342   3.150   2.620   2.685
  179SLPC    HB20343   3.094   2.769   2.602
  179SLPC    C220344   3.040   2.762   2.812
  179SLPC    HS20345   3.135   2.808   2.848
  179SLPC   O2120346   2.995   2.664   2.906
  179SLPC   C2120347   3.075   2.564   2.941
  179SLPC   O2220348   3.194   2.554   2.919
  179SLPC   C2220349   2.988   2.463   3.020
  179SLPC   H2R20350   2.963   2.510   3.117
  179SLPC   H2S20351   2.895   2.452   2.961
  179SLPC    C320352   2.933   2.878   2.791
  179SLPC    HX20353   2.867   2.851   2.706
  179SLPC    HY20354   2.994   2.966   2.759
  179SLPC   O3120355   2.855   2.910   2.909
  179SLPC   C3120356   2.745   2.987   2.905
  179SLPC   O3220357   2.700   3.032   2.802
  179SLPC   C3220358   2.666   3.013   3.044
  179SLPC   H2X20359   2.596   2.927   3.054
  179SLPC   H2Y20360   2.598   3.090   3.003
  179SLPC   C2320361   3.050   2.322   3.041
  179SLPC   H3R20362   3.104   2.291   2.949
  179SLPC   H3S20363   2.967   2.249   3.057
  179SLPC   C2420364   3.143   2.312   3.163
  179SLPC   H4R20365   3.214   2.397   3.158
  179SLPC   H4S20366   3.203   2.218   3.155
  179SLPC   C2520367   3.072   2.311   3.299
  179SLPC   H5R20368   3.006   2.223   3.308
  179SLPC   H5S20369   3.007   2.401   3.302
  179SLPC   C2620370   3.170   2.313   3.419
  179SLPC   H6R20371   3.257   2.378   3.394
  179SLPC   H6S20372   3.212   2.212   3.436
  179SLPC   C2720373   3.115   2.374   3.548
  179SLPC   H7R20374   3.195   2.375   3.625
  179SLPC   H7S20375   3.032   2.311   3.588
  179SLPC   C2820376   3.063   2.518   3.530
  179SLPC   H8R20377   3.028   2.554   3.629
  179SLPC   H8S20378   2.972   2.514   3.466
  179SLPC   C2920379   3.163   2.612   3.467
  179SLPC   H9R20380   3.221   2.571   3.383
  179SLPC  C21020381   3.178   2.742   3.494
  179SLPC  H10R20382   3.255   2.798   3.438
  179SLPC  C21120383   3.098   2.822   3.593
  179SLPC  H11R20384   3.014   2.763   3.635
  179SLPC  H11S20385   3.051   2.908   3.540
  179SLPC  C21220386   3.169   2.872   3.711
  179SLPC  H12R20387   3.222   2.968   3.696
  179SLPC  C21320388   3.174   2.810   3.830
  179SLPC  H13R20389   3.230   2.857   3.911
  179SLPC  C21420390   3.113   2.679   3.871
  179SLPC  H14R20391   3.148   2.597   3.804
  179SLPC  H14S20392   3.002   2.682   3.867
  179SLPC  C21520393   3.162   2.648   4.013
  179SLPC  H15R20394   3.118   2.552   4.045
  179SLPC  H15S20395   3.126   2.727   4.084
  179SLPC  C21620396   3.316   2.636   4.023
  179SLPC  H16R20397   3.364   2.734   4.002
  179SLPC  H16S20398   3.351   2.564   3.945
  179SLPC  C21720399   3.365   2.590   4.160
  179SLPC  H17R20400   3.308   2.501   4.191
  179SLPC  H17S20401   3.345   2.672   4.233
  179SLPC  C21820402   3.515   2.559   4.160
  179SLPC  H18R20403   3.573   2.648   4.129
  179SLPC  H18S20404   3.538   2.477   4.089
  179SLPC  H18T20405   3.548   2.528   4.262
  179SLPC   C3320406   2.698   3.087   3.187
  179SLPC   H3X20407   2.596   3.121   3.215
  179SLPC   H3Y20408   2.747   3.183   3.161
  179SLPC   C3420409   2.764   3.050   3.332
  179SLPC   H4X20410   2.708   3.124   3.393
  179SLPC   H4Y20411   2.863   3.100   3.335
  179SLPC   C3520412   2.774   2.927   3.443
  179SLPC   H5X20413   2.856   2.904   3.370
  179SLPC   H5Y20414   2.667   2.903   3.430
  179SLPC   C3620415   2.801   2.770   3.467
  179SLPC   H6X20416   2.908   2.746   3.482
  179SLPC   H6Y20417   2.790   2.709   3.374
  179SLPC   C3720418   2.715   2.690   3.570
  179SLPC   H7X20419   2.609   2.725   3.564
  179SLPC   H7Y20420   2.749   2.710   3.674
  179SLPC   C3820421   2.719   2.537   3.540
  179SLPC   H8X20422   2.804   2.492   3.595
  179SLPC   H8Y20423   2.742   2.524   3.432
  179SLPC   C3920424   2.589   2.456   3.560
  179SLPC   H9X20425   2.569   2.399   3.467
  179SLPC   H9Y20426   2.503   2.524   3.570
  179SLPC  C31020427   2.587   2.350   3.673
  179SLPC  H10X20428   2.601   2.249   3.629
  179SLPC  H10Y20429   2.487   2.350   3.720
  179SLPC  C31120430   2.693   2.362   3.783
  179SLPC  H11X20431   2.698   2.466   3.821
  179SLPC  H11Y20432   2.792   2.336   3.739
  179SLPC  C31220433   2.665   2.264   3.898
  179SLPC  H12X20434   2.640   2.165   3.854
  179SLPC  H12Y20435   2.578   2.299   3.957
  179SLPC  C31320436   2.787   2.247   3.989
  179SLPC  H13X20437   2.877   2.226   3.928
  179SLPC  H13Y20438   2.771   2.159   4.056
  179SLPC  C31420439   2.815   2.370   4.075
  179SLPC  H14X20440   2.736   2.380   4.152
  179SLPC  H14Y20441   2.814   2.460   4.010
  179SLPC  C31520442   2.952   2.362   4.142
  179SLPC  H15X20443   2.967   2.456   4.201
  179SLPC  H15Y20444   3.031   2.358   4.064
  179SLPC  C31620445   2.968   2.240   4.233
  179SLPC  H16X20446   2.963   2.148   4.172
  179SLPC  H16Y20447   2.885   2.237   4.307
  179SLPC  C31720448   3.102   2.243   4.307
  179SLPC  H17X20449   3.101   2.330   4.376
  179SLPC  H17Y20450   3.183   2.263   4.233
  179SLPC  C31820451   3.131   2.116   4.385
  179SLPC  H18X20452   3.129   2.029   4.317
  179SLPC  H18Y20453   3.054   2.101   4.464
  179SLPC  H18Z20454   3.231   2.122   4.434
  180SLPC     N20455   2.027   3.452   2.639
  180SLPC   C1320456   1.893   3.474   2.704
  180SLPC  H13A20457   1.884   3.574   2.743
  180SLPC  H13B20458   1.815   3.461   2.631
  180SLPC  H13C20459   1.877   3.403   2.783
  180SLPC   C1420460   2.024   3.313   2.581
  180SLPC  H14A20461   2.113   3.292   2.524
  180SLPC  H14B20462   2.013   3.238   2.658
  180SLPC  H14C20463   1.942   3.306   2.511
  180SLPC   C1520464   2.137   3.461   2.740
  180SLPC  H15A20465   2.137   3.556   2.791
  180SLPC  H15B20466   2.127   3.382   2.812
  180SLPC  H15C20467   2.233   3.449   2.693
  180SLPC   C1220468   2.049   3.553   2.527
  180SLPC  H12A20469   2.138   3.525   2.472
  180SLPC  H12B20470   2.067   3.650   2.570
  180SLPC   C1120471   1.937   3.568   2.422
  180SLPC  H11A20472   1.964   3.649   2.351
  180SLPC  H11B20473   1.843   3.599   2.473
  180SLPC     P20474   1.789   3.414   2.275
  180SLPC   O1320475   1.772   3.509   2.162
  180SLPC   O1420476   1.782   3.271   2.243
  180SLPC   O1220477   1.924   3.446   2.349
  180SLPC   O1120478   1.685   3.448   2.387
  180SLPC    C120479   1.548   3.412   2.375
  180SLPC    HA20480   1.492   3.502   2.341
  180SLPC    HB20481   1.529   3.332   2.301
  180SLPC    C220482   1.487   3.369   2.511
  180SLPC    HS20483   1.384   3.410   2.512
  180SLPC   O2120484   1.565   3.427   2.619
  180SLPC   C2120485   1.498   3.437   2.732
  180SLPC   O2220486   1.398   3.374   2.759
  180SLPC   C2220487   1.555   3.548   2.819
  180SLPC   H2R20488   1.581   3.504   2.918
  180SLPC   H2S20489   1.646   3.590   2.771
  180SLPC    C320490   1.471   3.213   2.519
  180SLPC    HX20491   1.421   3.181   2.426
  180SLPC    HY20492   1.398   3.189   2.600
  180SLPC   O3120493   1.596   3.142   2.530
  180SLPC   C3120494   1.628   3.110   2.654
  180SLPC   O3220495   1.562   3.134   2.753
  180SLPC   C3220496   1.760   3.034   2.659
  180SLPC   H2X20497   1.837   3.094   2.606
  180SLPC   H2Y20498   1.746   2.938   2.604
  180SLPC   C2320499   1.449   3.660   2.836
  180SLPC   H3R20500   1.352   3.617   2.868
  180SLPC   H3S20501   1.433   3.708   2.737
  180SLPC   C2420502   1.487   3.769   2.937
  180SLPC   H4R20503   1.421   3.857   2.919
  180SLPC   H4S20504   1.590   3.806   2.920
  180SLPC   C2520505   1.471   3.725   3.084
  180SLPC   H5R20506   1.550   3.650   3.107
  180SLPC   H5S20507   1.373   3.676   3.097
  180SLPC   C2620508   1.481   3.843   3.182
  180SLPC   H6R20509   1.408   3.923   3.154
  180SLPC   H6S20510   1.582   3.887   3.175
  180SLPC   C2720511   1.460   3.804   3.329
  180SLPC   H7R20512   1.356   3.768   3.345
  180SLPC   H7S20513   1.473   3.897   3.389
  180SLPC   C2820514   1.560   3.697   3.373
  180SLPC   H8R20515   1.660   3.726   3.335
  180SLPC   H8S20516   1.536   3.601   3.322
  180SLPC   C2920517   1.565   3.683   3.522
  180SLPC   H9R20518   1.539   3.774   3.578
  180SLPC  C21020519   1.595   3.572   3.590
  180SLPC  H10R20520   1.596   3.579   3.700
  180SLPC  C21120521   1.629   3.436   3.536
  180SLPC  H11R20522   1.734   3.410   3.564
  180SLPC  H11S20523   1.624   3.431   3.426
  180SLPC  C21220524   1.538   3.335   3.597
  180SLPC  H12R20525   1.448   3.313   3.537
  180SLPC  C21320526   1.554   3.270   3.713
  180SLPC  H13R20527   1.473   3.202   3.746
  180SLPC  C21420528   1.665   3.277   3.814
  180SLPC  H14R20529   1.624   3.302   3.914
  180SLPC  H14S20530   1.740   3.353   3.786
  180SLPC  C21520531   1.733   3.139   3.822
  180SLPC  H15R20532   1.779   3.117   3.724
  180SLPC  H15S20533   1.657   3.060   3.843
  180SLPC  C21620534   1.841   3.131   3.930
  180SLPC  H16R20535   1.881   3.028   3.935
  180SLPC  H16S20536   1.795   3.151   4.029
  180SLPC  C21720537   1.959   3.227   3.905
  180SLPC  H17R20538   1.919   3.330   3.901
  180SLPC  H17S20539   2.002   3.205   3.805
  180SLPC  C21820540   2.068   3.221   4.011
  180SLPC  H18R20541   2.128   3.128   4.001
  180SLPC  H18S20542   2.024   3.224   4.113
  180SLPC  H18T20543   2.136   3.308   4.001
  180SLPC   C3320544   1.799   3.007   2.806
  180SLPC   H3X20545   1.890   2.943   2.808
  180SLPC   H3Y20546   1.718   2.951   2.857
  180SLPC   C3420547   1.829   3.137   2.884
  180SLPC   H4X20548   1.747   3.211   2.874
  180SLPC   H4Y20549   1.921   3.182   2.843
  180SLPC   C3520550   1.846   3.111   3.034
  180SLPC   H5X20551   1.915   3.025   3.042
  180SLPC   H5Y20552   1.750   3.081   3.081
  180SLPC   C3620553   1.907   3.232   3.107
  180SLPC   H6X20554   1.970   3.291   3.037
  180SLPC   H6Y20555   1.974   3.190   3.184
  180SLPC   C3720556   1.807   3.323   3.180
  180SLPC   H7X20557   1.745   3.261   3.249
  180SLPC   H7Y20558   1.739   3.369   3.106
  180SLPC   C3820559   1.876   3.434   3.263
  180SLPC   H8X20560   1.798   3.503   3.304
  180SLPC   H8Y20561   1.941   3.494   3.196
  180SLPC   C3920562   1.961   3.380   3.380
  180SLPC   H9X20563   2.038   3.313   3.338
  180SLPC   H9Y20564   1.898   3.318   3.448
  180SLPC  C31020565   2.037   3.487   3.463
  180SLPC  H10X20566   2.068   3.571   3.397
  180SLPC  H10Y20567   2.129   3.439   3.503
  180SLPC  C31120568   1.956   3.538   3.582
  180SLPC  H11X20569   1.920   3.450   3.640
  180SLPC  H11Y20570   1.868   3.593   3.543
  180SLPC  C31220571   2.031   3.628   3.681
  180SLPC  H12X20572   2.084   3.707   3.623
  180SLPC  H12Y20573   2.106   3.568   3.735
  180SLPC  C31320574   1.937   3.698   3.782
  180SLPC  H13X20575   1.874   3.769   3.724
  180SLPC  H13Y20576   1.998   3.758   3.853
  180SLPC  C31420577   1.843   3.604   3.858
  180SLPC  H14X20578   1.902   3.531   3.917
  180SLPC  H14Y20579   1.783   3.549   3.783
  180SLPC  C31520580   1.744   3.676   3.952
  180SLPC  H15X20581   1.717   3.773   3.906
  180SLPC  H15Y20582   1.797   3.697   4.048
  180SLPC  C31620583   1.613   3.601   3.980
  180SLPC  H16X20584   1.631   3.495   4.008
  180SLPC  H16Y20585   1.555   3.598   3.885
  180SLPC  C31720586   1.523   3.668   4.086
  180SLPC  H17X20587   1.425   3.690   4.040
  180SLPC  H17Y20588   1.567   3.766   4.113
  180SLPC  C31820589   1.500   3.589   4.214
  180SLPC  H18X20590   1.459   3.488   4.191
  180SLPC  H18Y20591   1.428   3.643   4.279
  180SLPC  H18Z20592   1.594   3.577   4.271
  181SLPC     N20593   1.659   2.169   2.404
  181SLPC   C1320594   1.649   2.062   2.300
  181SLPC  H13A20595   1.602   1.976   2.345
  181SLPC  H13B20596   1.589   2.096   2.217
  181SLPC  H13C20597   1.747   2.036   2.263
  181SLPC   C1420598   1.714   2.294   2.346
  181SLPC  H14A20599   1.812   2.278   2.304
  181SLPC  H14B20600   1.650   2.335   2.270
  181SLPC  H14C20601   1.724   2.369   2.423
  181SLPC   C1520602   1.751   2.122   2.514
  181SLPC  H15A20603   1.755   2.196   2.593
  181SLPC  H15B20604   1.714   2.031   2.558
  181SLPC  H15C20605   1.851   2.105   2.477
  181SLPC   C1220606   1.522   2.201   2.463
  181SLPC  H12A20607   1.483   2.291   2.417
  181SLPC  H12B20608   1.535   2.225   2.567
  181SLPC   C1120609   1.413   2.090   2.458
  181SLPC  H11A20610   1.387   2.068   2.352
  181SLPC  H11B20611   1.321   2.128   2.506
  181SLPC     P20612   1.496   1.969   2.675
  181SLPC   O1320613   1.620   1.891   2.689
  181SLPC   O1420614   1.498   2.108   2.726
  181SLPC   O1220615   1.458   1.970   2.521
  181SLPC   O1120616   1.372   1.895   2.738
  181SLPC    C120617   1.242   1.954   2.728
  181SLPC    HA20618   1.245   2.059   2.692
  181SLPC    HB20619   1.182   1.895   2.656
  181SLPC    C220620   1.166   1.958   2.864
  181SLPC    HS20621   1.071   2.013   2.847
  181SLPC   O2120622   1.244   2.021   2.966
  181SLPC   C2120623   1.224   2.147   2.991
  181SLPC   O2220624   1.141   2.219   2.940
  181SLPC   C2220625   1.330   2.192   3.092
  181SLPC   H2R20626   1.422   2.132   3.076
  181SLPC   H2S20627   1.353   2.296   3.060
  181SLPC    C320628   1.130   1.815   2.909
  181SLPC    HX20629   1.078   1.761   2.827
  181SLPC    HY20630   1.060   1.818   2.996
  181SLPC   O3120631   1.251   1.746   2.938
  181SLPC   C3120632   1.297   1.773   3.058
  181SLPC   O3220633   1.229   1.797   3.157
  181SLPC   C3220634   1.448   1.761   3.058
  181SLPC   H2X20635   1.475   1.676   2.992
  181SLPC   H2Y20636   1.468   1.739   3.165
  181SLPC   C2320637   1.290   2.194   3.242
  181SLPC   H3R20638   1.209   2.269   3.255
  181SLPC   H3S20639   1.375   2.234   3.301
  181SLPC   C2420640   1.251   2.059   3.305
  181SLPC   H4R20641   1.337   1.989   3.298
  181SLPC   H4S20642   1.167   2.015   3.248
  181SLPC   C2520643   1.210   2.069   3.454
  181SLPC   H5R20644   1.104   2.103   3.457
  181SLPC   H5S20645   1.272   2.146   3.504
  181SLPC   C2620646   1.223   1.938   3.535
  181SLPC   H6R20647   1.162   1.950   3.627
  181SLPC   H6S20648   1.328   1.925   3.568
  181SLPC   C2720649   1.180   1.811   3.459
  181SLPC   H7R20650   1.268   1.774   3.402
  181SLPC   H7S20651   1.104   1.835   3.383
  181SLPC   C2820652   1.128   1.694   3.546
  181SLPC   H8R20653   1.214   1.652   3.601
  181SLPC   H8S20654   1.095   1.615   3.475
  181SLPC   C2920655   1.010   1.725   3.635
  181SLPC   H9R20656   0.928   1.779   3.585
  181SLPC  C21020657   0.991   1.687   3.763
  181SLPC  H10R20658   0.896   1.713   3.811
  181SLPC  C21120659   1.083   1.605   3.850
  181SLPC  H11R20660   1.089   1.504   3.804
  181SLPC  H11S20661   1.033   1.587   3.947
  181SLPC  C21220662   1.223   1.657   3.871
  181SLPC  H12R20663   1.290   1.647   3.785
  181SLPC  C21320664   1.272   1.715   3.981
  181SLPC  H13R20665   1.376   1.749   3.982
  181SLPC  C21420666   1.196   1.740   4.109
  181SLPC  H14R20667   1.087   1.719   4.100
  181SLPC  H14S20668   1.205   1.848   4.134
  181SLPC  C21520669   1.254   1.664   4.226
  181SLPC  H15R20670   1.363   1.648   4.215
  181SLPC  H15S20671   1.205   1.565   4.228
  181SLPC  C21620672   1.232   1.741   4.356
  181SLPC  H16R20673   1.123   1.749   4.380
  181SLPC  H16S20674   1.270   1.844   4.341
  181SLPC  C21720675   1.306   1.679   4.473
  181SLPC  H17R20676   1.299   1.744   4.563
  181SLPC  H17S20677   1.413   1.674   4.444
  181SLPC  C21820678   1.253   1.540   4.504
  181SLPC  H18R20679   1.229   1.489   4.408
  181SLPC  H18S20680   1.162   1.544   4.568
  181SLPC  H18T20681   1.325   1.470   4.552
  181SLPC   C3320682   1.533   1.883   3.017
  181SLPC   H3X20683   1.473   1.957   2.961
  181SLPC   H3Y20684   1.614   1.848   2.949
  181SLPC   C3420685   1.597   1.947   3.139
  181SLPC   H4X20686   1.649   1.870   3.199
  181SLPC   H4Y20687   1.513   1.985   3.201
  181SLPC   C3520688   1.697   2.060   3.110
  181SLPC   H5X20689   1.645   2.140   3.053
  181SLPC   H5Y20690   1.779   2.021   3.046
  181SLPC   C3620691   1.755   2.117   3.240
  181SLPC   H6X20692   1.814   2.207   3.217
  181SLPC   H6Y20693   1.822   2.041   3.286
  181SLPC   C3720694   1.645   2.152   3.342
  181SLPC   H7X20695   1.591   2.061   3.374
  181SLPC   H7Y20696   1.574   2.221   3.292
  181SLPC   C3820697   1.698   2.219   3.469
  181SLPC   H8X20698   1.730   2.321   3.439
  181SLPC   H8Y20699   1.785   2.162   3.508
  181SLPC   C3920700   1.591   2.231   3.578
  181SLPC   H9X20701   1.551   2.131   3.604
  181SLPC   H9Y20702   1.506   2.289   3.535
  181SLPC  C31020703   1.643   2.305   3.703
  181SLPC  H10X20704   1.556   2.347   3.758
  181SLPC  H10Y20705   1.706   2.391   3.671
  181SLPC  C31120706   1.724   2.218   3.799
  181SLPC  H11X20707   1.759   2.282   3.883
  181SLPC  H11Y20708   1.813   2.178   3.747
  181SLPC  C31220709   1.644   2.102   3.860
  181SLPC  H12X20710   1.711   2.047   3.930
  181SLPC  H12Y20711   1.614   2.030   3.780
  181SLPC  C31320712   1.519   2.146   3.937
  181SLPC  H13X20713   1.447   2.198   3.871
  181SLPC  H13Y20714   1.549   2.217   4.017
  181SLPC  C31420715   1.450   2.024   4.000
  181SLPC  H14X20716   1.528   1.947   4.017
  181SLPC  H14Y20717   1.378   1.980   3.928
  181SLPC  C31520718   1.386   2.050   4.136
  181SLPC  H15X20719   1.457   2.106   4.200
  181SLPC  H15Y20720   1.371   1.951   4.185
  181SLPC  C31620721   1.251   2.125   4.137
  181SLPC  H16X20722   1.275   2.232   4.154
  181SLPC  H16Y20723   1.189   2.092   4.223
  181SLPC  C31720724   1.167   2.122   4.009
  181SLPC  H17X20725   1.229   2.155   3.922
  181SLPC  H17Y20726   1.090   2.199   4.028
  181SLPC  C31820727   1.087   2.000   3.968
  181SLPC  H18X20728   1.150   1.926   3.915
  181SLPC  H18Y20729   1.005   2.027   3.898
  181SLPC  H18Z20730   1.040   1.954   4.058
  182SLPC     N20731   2.355   6.045   2.567
  182SLPC   C1320732   2.218   6.094   2.528
  182SLPC  H13A20733   2.212   6.200   2.544
  182SLPC  H13B20734   2.201   6.079   2.422
  182SLPC  H13C20735   2.140   6.044   2.583
  182SLPC   C1420736   2.373   5.904   2.518
  182SLPC  H14A20737   2.377   5.902   2.410
  182SLPC  H14B20738   2.463   5.859   2.556
  182SLPC  H14C20739   2.290   5.841   2.546
  182SLPC   C1520740   2.369   6.052   2.716
  182SLPC  H15A20741   2.295   5.991   2.765
  182SLPC  H15B20742   2.467   6.020   2.748
  182SLPC  H15C20743   2.355   6.154   2.749
  182SLPC   C1220744   2.457   6.135   2.498
  182SLPC  H12A20745   2.443   6.125   2.391
  182SLPC  H12B20746   2.556   6.098   2.519
  182SLPC   C1120747   2.453   6.286   2.529
  182SLPC  H11A20748   2.549   6.327   2.491
  182SLPC  H11B20749   2.450   6.304   2.639
  182SLPC     P20750   2.356   6.495   2.406
  182SLPC   O1320751   2.398   6.477   2.265
  182SLPC   O1420752   2.236   6.577   2.430
  182SLPC   O1220753   2.340   6.351   2.471
  182SLPC   O1120754   2.478   6.558   2.487
  182SLPC    C120755   2.452   6.625   2.611
  182SLPC    HA20756   2.416   6.728   2.592
  182SLPC    HB20757   2.375   6.572   2.672
  182SLPC    C220758   2.581   6.632   2.698
  182SLPC    HS20759   2.658   6.689   2.642
  182SLPC   O2120760   2.621   6.498   2.726
  182SLPC   C2120761   2.732   6.452   2.678
  182SLPC   O2220762   2.818   6.512   2.614
  182SLPC   C2220763   2.738   6.304   2.718
  182SLPC   H2R20764   2.635   6.263   2.722
  182SLPC   H2S20765   2.794   6.249   2.640
  182SLPC    C320766   2.555   6.702   2.835
  182SLPC    HX20767   2.520   6.805   2.813
  182SLPC    HY20768   2.652   6.709   2.889
  182SLPC   O3120769   2.462   6.625   2.913
  182SLPC   C3120770   2.372   6.692   2.982
  182SLPC   O3220771   2.366   6.813   2.993
  182SLPC   C3220772   2.274   6.594   3.046
  182SLPC   H2X20773   2.188   6.653   3.085
  182SLPC   H2Y20774   2.326   6.546   3.131
  182SLPC   C2320775   2.799   6.285   2.858
  182SLPC   H3R20776   2.902   6.326   2.861
  182SLPC   H3S20777   2.808   6.176   2.878
  182SLPC   C2420778   2.716   6.347   2.970
  182SLPC   H4R20779   2.613   6.305   2.968
  182SLPC   H4S20780   2.708   6.457   2.957
  182SLPC   C2520781   2.780   6.318   3.105
  182SLPC   H5R20782   2.884   6.356   3.103
  182SLPC   H5S20783   2.784   6.207   3.118
  182SLPC   C2620784   2.709   6.378   3.226
  182SLPC   H6R20785   2.703   6.489   3.217
  182SLPC   H6S20786   2.771   6.355   3.315
  182SLPC   C2720787   2.569   6.320   3.251
  182SLPC   H7R20788   2.569   6.214   3.219
  182SLPC   H7S20789   2.494   6.374   3.189
  182SLPC   C2820790   2.531   6.323   3.400
  182SLPC   H8R20791   2.604   6.261   3.455
  182SLPC   H8S20792   2.433   6.271   3.411
  182SLPC   C2920793   2.519   6.461   3.459
  182SLPC   H9R20794   2.434   6.520   3.422
  182SLPC  C21020795   2.600   6.517   3.550
  182SLPC  H10R20796   2.579   6.619   3.585
  182SLPC  C21120797   2.723   6.454   3.613
  182SLPC  H11R20798   2.803   6.531   3.612
  182SLPC  H11S20799   2.762   6.371   3.551
  182SLPC  C21220800   2.707   6.408   3.756
  182SLPC  H12R20801   2.693   6.300   3.770
  182SLPC  C21320802   2.713   6.489   3.862
  182SLPC  H13R20803   2.704   6.448   3.964
  182SLPC  C21420804   2.736   6.638   3.852
  182SLPC  H14R20805   2.660   6.686   3.787
  182SLPC  H14S20806   2.835   6.655   3.805
  182SLPC  C21520807   2.735   6.709   3.988
  182SLPC  H15R20808   2.766   6.815   3.976
  182SLPC  H15S20809   2.812   6.661   4.053
  182SLPC  C21620810   2.596   6.707   4.054
  182SLPC  H16R20811   2.544   6.613   4.028
  182SLPC  H16S20812   2.535   6.790   4.013
  182SLPC  C21720813   2.602   6.716   4.207
  182SLPC  H17R20814   2.498   6.725   4.245
  182SLPC  H17S20815   2.654   6.810   4.236
  182SLPC  C21820816   2.669   6.595   4.271
  182SLPC  H18R20817   2.659   6.598   4.382
  182SLPC  H18S20818   2.777   6.591   4.247
  182SLPC  H18T20819   2.622   6.500   4.235
  182SLPC   C3320820   2.223   6.487   2.946
  182SLPC   H3X20821   2.308   6.426   2.909
  182SLPC   H3Y20822   2.177   6.537   2.859
  182SLPC   C3420823   2.118   6.392   3.008
  182SLPC   H4X20824   2.079   6.325   2.928
  182SLPC   H4Y20825   2.032   6.453   3.045
  182SLPC   C3520826   2.173   6.306   3.123
  182SLPC   H5X20827   2.212   6.373   3.202
  182SLPC   H5Y20828   2.257   6.244   3.085
  182SLPC   C3620829   2.065   6.215   3.183
  182SLPC   H6X20830   2.029   6.146   3.103
  182SLPC   H6Y20831   1.979   6.276   3.216
  182SLPC   C3720832   2.114   6.130   3.302
  182SLPC   H7X20833   2.205   6.074   3.270
  182SLPC   H7Y20834   2.036   6.056   3.329
  182SLPC   C3820835   2.146   6.214   3.427
  182SLPC   H8X20836   2.056   6.273   3.454
  182SLPC   H8Y20837   2.226   6.287   3.402
  182SLPC   C3920838   2.190   6.131   3.549
  182SLPC   H9X20839   2.102   6.078   3.591
  182SLPC   H9Y20840   2.225   6.203   3.626
  182SLPC  C31020841   2.300   6.027   3.520
  182SLPC  H10X20842   2.381   6.075   3.461
  182SLPC  H10Y20843   2.256   5.947   3.456
  182SLPC  C31120844   2.361   5.962   3.645
  182SLPC  H11X20845   2.430   5.882   3.612
  182SLPC  H11Y20846   2.280   5.915   3.705
  182SLPC  C31220847   2.439   6.061   3.733
  182SLPC  H12X20848   2.367   6.137   3.771
  182SLPC  H12Y20849   2.514   6.116   3.673
  182SLPC  C31320850   2.509   5.993   3.852
  182SLPC  H13X20851   2.598   5.938   3.815
  182SLPC  H13Y20852   2.440   5.918   3.897
  182SLPC  C31420853   2.551   6.091   3.962
  182SLPC  H14X20854   2.604   6.177   3.915
  182SLPC  H14Y20855   2.623   6.042   4.031
  182SLPC  C31520856   2.432   6.142   4.043
  182SLPC  H15X20857   2.392   6.060   4.107
  182SLPC  H15Y20858   2.350   6.172   3.974
  182SLPC  C31620859   2.463   6.264   4.130
  182SLPC  H16X20860   2.515   6.340   4.068
  182SLPC  H16Y20861   2.531   6.236   4.214
  182SLPC  C31720862   2.334   6.327   4.185
  182SLPC  H17X20863   2.332   6.315   4.296
  182SLPC  H17Y20864   2.246   6.271   4.145
  182SLPC  C31820865   2.317   6.475   4.148
  182SLPC  H18X20866   2.327   6.489   4.038
  182SLPC  H18Y20867   2.395   6.536   4.198
  182SLPC  H18Z20868   2.218   6.513   4.180
  183SLPC     N20869   0.127   4.327   2.686
  183SLPC   C1320870   0.171   4.464   2.643
  183SLPC  H13A20871   0.147   4.479   2.539
  183SLPC  H13B20872   0.120   4.543   2.697
  183SLPC  H13C20873   0.277   4.480   2.657
  183SLPC   C1420874   0.147   4.312   2.834
  183SLPC  H14A20875   0.250   4.329   2.860
  183SLPC  H14B20876   0.087   4.383   2.889
  183SLPC  H14C20877   0.121   4.212   2.866
  183SLPC   C1520878   0.211   4.228   2.614
  183SLPC  H15A20879   0.186   4.127   2.644
  183SLPC  H15B20880   0.189   4.235   2.508
  183SLPC  H15C20881   0.317   4.244   2.629
  183SLPC   C1220882   7.284   4.306   2.648
  183SLPC  H12A20883   7.236   4.403   2.642
  183SLPC  H12B20884   7.234   4.250   2.725
  183SLPC   C1120885   7.255   4.236   2.512
  183SLPC  H11A20886   7.145   4.230   2.497
  183SLPC  H11B20887   7.289   4.130   2.518
  183SLPC     P20888   7.253   4.428   2.339
  183SLPC   O1320889   0.052   4.495   2.256
  183SLPC   O1420890   7.132   4.378   2.270
  183SLPC   O1220891   0.017   4.301   2.403
  183SLPC   O1120892   7.215   4.517   2.465
  183SLPC    C120893   7.246   4.658   2.463
  183SLPC    HA20894   0.045   4.675   2.503
  183SLPC    HB20895   7.244   4.701   2.361
  183SLPC    C220896   7.145   4.744   2.546
  183SLPC    HS20897   7.186   4.847   2.555
  183SLPC   O2120898   7.120   4.690   2.678
  183SLPC   C2120899   7.220   4.693   2.764
  183SLPC   O2220900   0.033   4.719   2.737
  183SLPC   C2220901   7.174   4.653   2.905
  183SLPC   H2R20902   7.063   4.661   2.910
  183SLPC   H2S20903   7.203   4.547   2.921
  183SLPC    C320904   7.011   4.757   2.466
  183SLPC    HX20905   7.037   4.808   2.371
  183SLPC    HY20906   6.940   4.824   2.518
  183SLPC   O3120907   6.951   4.629   2.430
  183SLPC   C3120908   6.885   4.573   2.531
  183SLPC   O3220909   6.859   4.628   2.636
  183SLPC   C3220910   6.848   4.429   2.493
  183SLPC   H2X20911   6.929   4.389   2.428
  183SLPC   H2Y20912   6.754   4.434   2.434
  183SLPC   C2320913   7.240   4.742   3.013
  183SLPC   H3R20914   7.197   4.844   3.006
  183SLPC   H3S20915   0.046   4.751   2.994
  183SLPC   C2420916   7.221   4.699   3.159
  183SLPC   H4R20917   7.266   4.777   3.224
  183SLPC   H4S20918   7.278   4.606   3.175
  183SLPC   C2520919   7.074   4.680   3.202
  183SLPC   H5R20920   7.072   4.651   3.309
  183SLPC   H5S20921   7.030   4.597   3.143
  183SLPC   C2620922   6.985   4.804   3.185
  183SLPC   H6R20923   6.997   4.843   3.081
  183SLPC   H6S20924   7.017   4.884   3.255
  183SLPC   C2720925   6.836   4.773   3.205
  183SLPC   H7R20926   6.811   4.685   3.143
  183SLPC   H7S20927   6.775   4.858   3.166
  183SLPC   C2820928   6.801   4.746   3.351
  183SLPC   H8R20929   6.863   4.661   3.387
  183SLPC   H8S20930   6.696   4.709   3.358
  183SLPC   C2920931   6.808   4.869   3.435
  183SLPC   H9R20932   6.741   4.951   3.406
  183SLPC  C21020933   6.889   4.885   3.540
  183SLPC  H10R20934   6.886   4.982   3.593
  183SLPC  C21120935   6.987   4.784   3.594
  183SLPC  H11R20936   6.994   4.691   3.533
  183SLPC  H11S20937   6.953   4.749   3.694
  183SLPC  C21220938   7.123   4.847   3.601
  183SLPC  H12R20939   7.179   4.846   3.506
  183SLPC  C21320940   7.180   4.901   3.710
  183SLPC  H13R20941   7.280   4.945   3.703
  183SLPC  C21420942   7.115   4.907   3.846
  183SLPC  H14R20943   7.186   4.952   3.919
  183SLPC  H14S20944   7.095   4.803   3.882
  183SLPC  C21520945   6.983   4.986   3.850
  183SLPC  H15R20946   6.902   4.930   3.797
  183SLPC  H15S20947   6.994   5.083   3.798
  183SLPC  C21620948   6.932   5.011   3.991
  183SLPC  H16R20949   6.837   5.068   3.986
  183SLPC  H16S20950   7.007   5.071   4.047
  183SLPC  C21720951   6.911   4.882   4.070
  183SLPC  H17R20952   6.854   4.911   4.161
  183SLPC  H17S20953   7.010   4.843   4.102
  183SLPC  C21820954   6.833   4.771   4.001
  183SLPC  H18R20955   6.736   4.810   3.963
  183SLPC  H18S20956   6.813   4.690   4.074
  183SLPC  H18T20957   6.890   4.728   3.916
  183SLPC   C3320958   6.827   4.335   2.615
  183SLPC   H3X20959   6.802   4.232   2.579
  183SLPC   H3Y20960   6.739   4.368   2.674
  183SLPC   C3420961   6.950   4.326   2.707
  183SLPC   H4X20962   7.004   4.423   2.707
  183SLPC   H4Y20963   7.017   4.248   2.666
  183SLPC   C3520964   6.920   4.293   2.854
  183SLPC   H5X20965   6.852   4.206   2.862
  183SLPC   H5Y20966   6.868   4.381   2.899
  183SLPC   C3620967   7.051   4.266   2.929
  183SLPC   H6X20968   7.128   4.333   2.887
  183SLPC   H6Y20969   7.083   4.161   2.911
  183SLPC   C3720970   7.046   4.294   3.080
  183SLPC   H7X20971   6.981   4.220   3.131
  183SLPC   H7Y20972   7.001   4.394   3.096
  183SLPC   C3820973   7.187   4.292   3.141
  183SLPC   H8X20974   7.256   4.352   3.078
  183SLPC   H8Y20975   7.224   4.187   3.143
  183SLPC   C3920976   7.191   4.350   3.283
  183SLPC   H9X20977   7.104   4.312   3.340
  183SLPC   H9Y20978   7.175   4.460   3.277
  183SLPC  C31020979   0.018   4.325   3.358
  183SLPC  H10X20980   0.104   4.347   3.292
  183SLPC  H10Y20981   0.025   4.217   3.386
  183SLPC  C31120982   0.033   4.412   3.485
  183SLPC  H11X20983   0.053   4.516   3.452
  183SLPC  H11Y20984   0.121   4.377   3.543
  183SLPC  C31220985   7.212   4.415   3.576
  183SLPC  H12X20986   7.196   4.317   3.625
  183SLPC  H12Y20987   7.122   4.439   3.516
  183SLPC  C31320988   7.222   4.526   3.682
  183SLPC  H13X20989   7.122   4.546   3.725
  183SLPC  H13Y20990   7.255   4.619   3.630
  183SLPC  C31420991   0.017   4.498   3.796
  183SLPC  H14X20992   0.112   4.462   3.752
  183SLPC  H14Y20993   7.280   4.417   3.861
  183SLPC  C31520994   0.044   4.624   3.879
  183SLPC  H15X20995   7.251   4.660   3.921
  183SLPC  H15Y20996   0.083   4.702   3.812
  183SLPC  C31620997   0.142   4.605   3.995
  183SLPC  H16X20998   0.096   4.544   4.076
  183SLPC  H16Y20999   0.161   4.706   4.037
  183SLPC  C31721000   0.277   4.542   3.955
  183SLPC  H17X21001   0.357   4.587   4.018
  183SLPC  H17Y21002   0.300   4.569   3.850
  183SLPC  C31821003   0.281   4.391   3.974
  183SLPC  H18X21004   0.197   4.341   3.921
  183SLPC  H18Y21005   0.274   4.365   4.082
  183SLPC  H18Z21006   0.376   4.349   3.934
  184SLPC     N21007   6.708   5.775   2.388
  184SLPC   C1321008   6.820   5.810   2.296
  184SLPC  H13A21009   6.881   5.885   2.342
  184SLPC  H13B21010   6.881   5.723   2.277
  184SLPC  H13C21011   6.781   5.847   2.202
  184SLPC   C1421012   6.628   5.662   2.332
  184SLPC  H14A21013   6.546   5.637   2.397
  184SLPC  H14B21014   6.585   5.686   2.236
  184SLPC  H14C21015   6.685   5.571   2.321
  184SLPC   C1521016   6.615   5.892   2.406
  184SLPC  H15A21017   6.576   5.928   2.312
  184SLPC  H15B21018   6.533   5.863   2.470
  184SLPC  H15C21019   6.667   5.972   2.457
  184SLPC   C1221020   6.759   5.734   2.525
  184SLPC  H12A21021   6.795   5.633   2.521
  184SLPC  H12B21022   6.673   5.732   2.591
  184SLPC   C1121023   6.867   5.824   2.589
  184SLPC  H11A21024   6.962   5.814   2.532
  184SLPC  H11B21025   6.888   5.788   2.692
  184SLPC     P21026   6.894   6.083   2.537
  184SLPC   O1321027   7.017   6.040   2.467
  184SLPC   O1421028   6.801   6.155   2.448
  184SLPC   O1221029   6.820   5.958   2.597
  184SLPC   O1121030   6.925   6.168   2.666
  184SLPC    C121031   6.978   6.300   2.664
  184SLPC    HA21032   7.088   6.294   2.680
  184SLPC    HB21033   6.962   6.351   2.567
  184SLPC    C221034   6.924   6.394   2.778
  184SLPC    HS21035   7.012   6.449   2.819
  184SLPC   O2121036   6.858   6.320   2.884
  184SLPC   C2121037   6.833   6.393   2.993
  184SLPC   O2221038   6.869   6.509   3.007
  184SLPC   C2221039   6.757   6.313   3.100
  184SLPC   H2R21040   6.745   6.208   3.064
  184SLPC   H2S21041   6.821   6.312   3.191
  184SLPC    C321042   6.830   6.500   2.712
  184SLPC    HX21043   6.895   6.561   2.647
  184SLPC    HY21044   6.787   6.570   2.786
  184SLPC   O3121045   6.731   6.433   2.629
  184SLPC   C3121046   6.629   6.389   2.704
  184SLPC   O3221047   6.600   6.435   2.813
  184SLPC   C3221048   6.557   6.273   2.637
  184SLPC   H2X21049   6.633   6.199   2.604
  184SLPC   H2Y21050   6.503   6.312   2.548
  184SLPC   C2321051   6.620   6.376   3.133
  184SLPC   H3R21052   6.558   6.382   3.041
  184SLPC   H3S21053   6.633   6.481   3.166
  184SLPC   C2421054   6.535   6.298   3.235
  184SLPC   H4R21055   6.516   6.195   3.198
  184SLPC   H4S21056   6.437   6.350   3.243
  184SLPC   C2521057   6.590   6.291   3.378
  184SLPC   H5R21058   6.684   6.231   3.376
  184SLPC   H5S21059   6.519   6.237   3.444
  184SLPC   C2621060   6.622   6.428   3.438
  184SLPC   H6R21061   6.677   6.488   3.362
  184SLPC   H6S21062   6.697   6.410   3.518
  184SLPC   C2721063   6.502   6.510   3.493
  184SLPC   H7R21064   6.414   6.442   3.500
  184SLPC   H7S21065   6.476   6.591   3.421
  184SLPC   C2821066   6.524   6.565   3.637
  184SLPC   H8R21067   6.626   6.530   3.661
  184SLPC   H8S21068   6.455   6.509   3.704
  184SLPC   C2921069   6.536   6.709   3.676
  184SLPC   H9R21070   6.612   6.766   3.621
  184SLPC  C21021071   6.468   6.770   3.775
  184SLPC  H10R21072   6.492   6.875   3.798
  184SLPC  C21121073   6.367   6.703   3.862
  184SLPC  H11R21074   6.416   6.619   3.916
  184SLPC  H11S21075   6.288   6.656   3.799
  184SLPC  C21221076   6.301   6.795   3.962
  184SLPC  H12R21077   6.208   6.842   3.927
  184SLPC  C21321078   6.346   6.822   4.086
  184SLPC  H13R21079   6.286   6.888   4.150
  184SLPC  C21421080   6.470   6.766   4.150
  184SLPC  H14R21081   6.469   6.656   4.145
  184SLPC  H14S21082   6.470   6.792   4.258
  184SLPC  C21521083   6.602   6.820   4.090
  184SLPC  H15R21084   6.581   6.918   4.043
  184SLPC  H15S21085   6.636   6.753   4.008
  184SLPC  C21621086   6.714   6.847   4.193
  184SLPC  H16R21087   6.670   6.878   4.289
  184SLPC  H16S21088   6.773   6.933   4.154
  184SLPC  C21721089   6.815   6.733   4.217
  184SLPC  H17R21090   6.766   6.650   4.271
  184SLPC  H17S21091   6.895   6.771   4.283
  184SLPC  C21821092   6.880   6.678   4.089
  184SLPC  H18R21093   6.914   6.761   4.024
  184SLPC  H18S21094   6.807   6.616   4.032
  184SLPC  H18T21095   6.968   6.614   4.113
  184SLPC   C3321096   6.459   6.203   2.733
  184SLPC   H3X21097   6.407   6.121   2.679
  184SLPC   H3Y21098   6.381   6.276   2.763
  184SLPC   C3421099   6.525   6.144   2.859
  184SLPC   H4X21100   6.444   6.108   2.925
  184SLPC   H4Y21101   6.576   6.224   2.916
  184SLPC   C3521102   6.631   6.036   2.836
  184SLPC   H5X21103   6.726   6.085   2.806
  184SLPC   H5Y21104   6.601   5.969   2.752
  184SLPC   C3621105   6.658   5.952   2.962
  184SLPC   H6X21106   6.604   5.855   2.955
  184SLPC   H6Y21107   6.619   6.005   3.051
  184SLPC   C3721108   6.805   5.919   2.985
  184SLPC   H7X21109   6.859   6.014   3.005
  184SLPC   H7Y21110   6.848   5.875   2.892
  184SLPC   C3821111   6.823   5.820   3.101
  184SLPC   H8X21112   6.774   5.724   3.074
  184SLPC   H8Y21113   6.770   5.858   3.191
  184SLPC   C3921114   6.970   5.793   3.130
  184SLPC   H9X21115   7.019   5.766   3.034
  184SLPC   H9Y21116   6.981   5.705   3.197
  184SLPC  C31021117   7.041   5.913   3.192
  184SLPC  H10X21118   7.043   5.989   3.111
  184SLPC  H10Y21119   7.146   5.889   3.217
  184SLPC  C31121120   6.970   5.975   3.313
  184SLPC  H11X21121   6.939   5.891   3.380
  184SLPC  H11Y21122   6.878   6.028   3.281
  184SLPC  C31221123   7.060   6.073   3.391
  184SLPC  H12X21124   7.089   6.158   3.326
  184SLPC  H12Y21125   7.153   6.020   3.419
  184SLPC  C31321126   6.993   6.128   3.517
  184SLPC  H13X21127   6.906   6.191   3.491
  184SLPC  H13Y21128   7.069   6.195   3.564
  184SLPC  C31421129   6.950   6.015   3.612
  184SLPC  H14X21130   7.020   5.930   3.597
  184SLPC  H14Y21131   6.850   5.979   3.581
  184SLPC  C31521132   6.952   6.044   3.762
  184SLPC  H15X21133   6.939   5.949   3.817
  184SLPC  H15Y21134   6.862   6.105   3.785
  184SLPC  C31621135   7.076   6.116   3.814
  184SLPC  H16X21136   7.093   6.212   3.761
  184SLPC  H16Y21137   7.166   6.052   3.799
  184SLPC  C31721138   7.063   6.150   3.963
  184SLPC  H17X21139   7.046   6.057   4.021
  184SLPC  H17Y21140   6.974   6.216   3.975
  184SLPC  C31821141   7.187   6.221   4.015
  184SLPC  H18X21142   7.277   6.157   4.002
  184SLPC  H18Y21143   7.176   6.244   4.124
  184SLPC  H18Z21144   7.204   6.316   3.961
  185POPC     N21145   5.324   5.835   6.286
  185POPC   C1221146   5.365   5.756   6.162
  185POPC  H12A21147   5.376   5.652   6.189
  185POPC  H12B21148   5.463   5.788   6.128
  185POPC   C1321149   5.198   5.776   6.342
  185POPC  H13A21150   5.162   5.829   6.429
  185POPC  H13B21151   5.122   5.775   6.265
  185POPC  H13C21152   5.214   5.672   6.367
  185POPC   C1421153   5.431   5.822   6.390
  185POPC  H14A21154   5.395   5.859   6.485
  185POPC  H14B21155   5.456   5.718   6.402
  185POPC  H14C21156   5.521   5.874   6.361
  185POPC   C1521157   5.299   5.978   6.249
  185POPC  H15A21158   5.221   5.980   6.174
  185POPC  H15B21159   5.386   6.025   6.207
  185POPC  H15C21160   5.264   6.034   6.335
  185POPC   C1121161   5.268   5.759   6.042
  185POPC  H11A21162   5.311   5.699   5.958
  185POPC  H11B21163   5.255   5.863   6.005
  185POPC     P21164   5.007   5.727   6.013
  185POPC   O1321165   5.026   5.817   5.897
  185POPC   O1421166   4.915   5.773   6.119
  185POPC   O1221167   5.145   5.701   6.082
  185POPC   O1121168   4.965   5.581   5.966
  185POPC    C121169   5.057   5.471   5.962
  185POPC    HA21170   5.002   5.379   5.994
  185POPC    HB21171   5.142   5.481   6.033
  185POPC    C221172   5.116   5.442   5.821
  185POPC    HS21173   5.187   5.358   5.835
  185POPC   O2121174   5.187   5.559   5.775
  185POPC   C2121175   5.263   5.533   5.669
  185POPC   O2221176   5.280   5.422   5.621
  185POPC   C2221177   5.327   5.659   5.614
  185POPC   H2R21178   5.381   5.712   5.696
  185POPC   H2S21179   5.245   5.723   5.576
  185POPC    C321180   5.006   5.393   5.721
  185POPC    HX21181   4.961   5.301   5.765
  185POPC    HY21182   5.049   5.363   5.623
  185POPC   O3121183   4.900   5.490   5.705
  185POPC   C3121184   4.925   5.586   5.617
  185POPC   O3221185   5.008   5.580   5.527
  185POPC   C3221186   4.828   5.700   5.640
  185POPC   H2X21187   4.854   5.749   5.736
  185POPC   H2Y21188   4.727   5.653   5.652
  185POPC   C2321189   5.425   5.619   5.500
  185POPC   H3R21190   5.373   5.552   5.429
  185POPC   H3S21191   5.510   5.563   5.543
  185POPC   C2421192   5.477   5.737   5.418
  185POPC   H4R21193   5.547   5.697   5.342
  185POPC   H4S21194   5.535   5.806   5.483
  185POPC   C2521195   5.365   5.814   5.348
  185POPC   H5R21196   5.309   5.874   5.423
  185POPC   H5S21197   5.292   5.743   5.302
  185POPC   C2621198   5.420   5.907   5.239
  185POPC   H6R21199   5.514   5.953   5.276
  185POPC   H6S21200   5.348   5.989   5.220
  185POPC   C2721201   5.450   5.833   5.109
  185POPC   H7R21202   5.355   5.799   5.063
  185POPC   H7S21203   5.510   5.742   5.131
  185POPC   C2821204   5.529   5.920   5.010
  185POPC   H8R21205   5.560   5.854   4.927
  185POPC   H8S21206   5.622   5.956   5.059
  185POPC   C2921207   5.447   6.037   4.961
  185POPC   H9121208   5.449   6.127   5.025
  185POPC  C21021209   5.375   6.037   4.848
  185POPC  H10121210   5.320   6.127   4.817
  185POPC  C21121211   5.367   5.918   4.756
  185POPC  H11R21212   5.268   5.912   4.706
  185POPC  H11S21213   5.380   5.823   4.811
  185POPC  C21221214   5.478   5.928   4.650
  185POPC  H12R21215   5.508   5.826   4.619
  185POPC  H12S21216   5.570   5.976   4.690
  185POPC  C21321217   5.431   6.002   4.525
  185POPC  H13R21218   5.392   6.101   4.556
  185POPC  H13S21219   5.346   5.946   4.480
  185POPC  C21421220   5.540   6.023   4.421
  185POPC  H14R21221   5.622   6.084   4.464
  185POPC  H14S21222   5.492   6.080   4.339
  185POPC  C21521223   5.599   5.899   4.353
  185POPC  H15R21224   5.513   5.844   4.310
  185POPC  H15S21225   5.649   5.829   4.424
  185POPC  C21621226   5.691   5.942   4.237
  185POPC  H16R21227   5.658   6.042   4.202
  185POPC  H16S21228   5.677   5.868   4.155
  185POPC  C21721229   5.842   5.950   4.255
  185POPC  H17R21230   5.871   5.993   4.354
  185POPC  H17S21231   5.881   6.021   4.179
  185POPC  C21821232   5.905   5.815   4.227
  185POPC  H18R21233   6.015   5.815   4.244
  185POPC  H18S21234   5.885   5.787   4.121
  185POPC  H18T21235   5.857   5.736   4.290
  185POPC   C3321236   4.827   5.802   5.525
  185POPC   H3X21237   4.733   5.860   5.531
  185POPC   H3Y21238   4.830   5.751   5.427
  185POPC   C3421239   4.941   5.903   5.533
  185POPC   H4X21240   5.038   5.854   5.508
  185POPC   H4Y21241   4.949   5.940   5.638
  185POPC   C3521242   4.916   6.022   5.441
  185POPC   H5X21243   4.995   6.098   5.461
  185POPC   H5Y21244   4.818   6.068   5.469
  185POPC   C3621245   4.914   5.989   5.291
  185POPC   H6X21246   4.873   6.078   5.237
  185POPC   H6Y21247   4.845   5.905   5.268
  185POPC   C3721248   5.054   5.960   5.236
  185POPC   H7X21249   5.077   5.852   5.245
  185POPC   H7Y21250   5.128   6.014   5.299
  185POPC   C3821251   5.076   6.009   5.091
  185POPC   H8X21252   5.183   5.998   5.066
  185POPC   H8Y21253   5.051   6.117   5.086
  185POPC   C3921254   4.993   5.936   4.985
  185POPC   H9X21255   5.005   5.990   4.888
  185POPC   H9Y21256   4.886   5.939   5.012
  185POPC  C31021257   5.040   5.792   4.966
  185POPC  H10X21258   5.021   5.736   5.060
  185POPC  H10Y21259   5.150   5.791   4.949
  185POPC  C31121260   4.971   5.721   4.850
  185POPC  H11X21261   4.991   5.773   4.754
  185POPC  H11Y21262   4.862   5.726   4.868
  185POPC  C31221263   5.014   5.574   4.843
  185POPC  H12X21264   4.928   5.513   4.808
  185POPC  H12Y21265   5.040   5.541   4.945
  185POPC  C31321266   5.133   5.544   4.753
  185POPC  H13X21267   5.162   5.439   4.771
  185POPC  H13Y21268   5.220   5.608   4.780
  185POPC  C31421269   5.098   5.560   4.605
  185POPC  H14X21270   5.105   5.667   4.578
  185POPC  H14Y21271   4.993   5.529   4.588
  185POPC  C31521272   5.190   5.476   4.517
  185POPC  H15X21273   5.146   5.375   4.502
  185POPC  H15Y21274   5.287   5.461   4.568
  185POPC  C31621275   5.217   5.543   4.383
  185POPC  H16X21276   5.276   5.478   4.316
  185POPC  H16Y21277   5.273   5.638   4.399
  185POPC  H16Z21278   5.120   5.569   4.335
  186POPC     N21279   2.051   0.535   6.207
  186POPC   C1221280   1.960   0.613   6.113
  186POPC  H12A21281   1.862   0.567   6.115
  186POPC  H12B21282   1.999   0.605   6.013
  186POPC   C1321283   2.191   0.585   6.202
  186POPC  H13A21284   2.197   0.689   6.228
  186POPC  H13B21285   2.254   0.533   6.272
  186POPC  H13C21286   2.236   0.572   6.104
  186POPC   C1421287   2.004   0.550   6.347
  186POPC  H14A21288   2.001   0.655   6.372
  186POPC  H14B21289   1.903   0.514   6.358
  186POPC  H14C21290   2.069   0.498   6.417
  186POPC   C1521291   2.055   0.389   6.172
  186POPC  H15A21292   2.094   0.376   6.073
  186POPC  H15B21293   1.957   0.344   6.184
  186POPC  H15C21294   2.122   0.340   6.241
  186POPC   C1121295   1.936   0.762   6.146
  186POPC  H11A21296   1.885   0.812   6.060
  186POPC  H11B21297   2.033   0.815   6.159
  186POPC     P21298   1.709   0.739   6.271
  186POPC   O1321299   1.636   0.849   6.337
  186POPC   O1421300   1.695   0.606   6.335
  186POPC   O1221301   1.861   0.778   6.266
  186POPC   O1121302   1.670   0.728   6.120
  186POPC    C121303   1.534   0.704   6.088
  186POPC    HA21304   1.472   0.792   6.114
  186POPC    HB21305   1.492   0.616   6.141
  186POPC    C221306   1.514   0.678   5.937
  186POPC    HS21307   1.406   0.658   5.919
  186POPC   O2121308   1.593   0.574   5.879
  186POPC   C2121309   1.678   0.501   5.941
  186POPC   O2221310   1.673   0.453   6.053
  186POPC   C2221311   1.792   0.477   5.843
  186POPC   H2R21312   1.868   0.414   5.895
  186POPC   H2S21313   1.837   0.575   5.818
  186POPC    C321314   1.553   0.800   5.852
  186POPC    HX21315   1.490   0.885   5.886
  186POPC    HY21316   1.522   0.764   5.752
  186POPC   O3121317   1.692   0.840   5.857
  186POPC   C3121318   1.744   0.871   5.739
  186POPC   O3221319   1.700   0.835   5.631
  186POPC   C3221320   1.862   0.964   5.756
  186POPC   H2X21321   1.876   0.987   5.864
  186POPC   H2Y21322   1.839   1.059   5.703
  186POPC   C2321323   1.743   0.409   5.713
  186POPC   H3R21324   1.691   0.484   5.650
  186POPC   H3S21325   1.672   0.327   5.734
  186POPC   C2421326   1.863   0.352   5.638
  186POPC   H4R21327   1.909   0.273   5.702
  186POPC   H4S21328   1.937   0.433   5.624
  186POPC   C2521329   1.831   0.291   5.502
  186POPC   H5R21330   1.742   0.224   5.511
  186POPC   H5S21331   1.916   0.228   5.470
  186POPC   C2621332   1.805   0.398   5.394
  186POPC   H6R21333   1.892   0.467   5.388
  186POPC   H6S21334   1.718   0.458   5.426
  186POPC   C2721335   1.780   0.336   5.256
  186POPC   H7R21336   1.695   0.265   5.266
  186POPC   H7S21337   1.866   0.275   5.222
  186POPC   C2821338   1.742   0.434   5.145
  186POPC   H8R21339   1.729   0.379   5.050
  186POPC   H8S21340   1.822   0.510   5.130
  186POPC   C2921341   1.613   0.496   5.190
  186POPC   H9121342   1.556   0.437   5.263
  186POPC  C21021343   1.562   0.611   5.146
  186POPC  H10121344   1.467   0.647   5.187
  186POPC  C21121345   1.623   0.700   5.044
  186POPC  H11R21346   1.548   0.703   4.962
  186POPC  H11S21347   1.717   0.661   5.000
  186POPC  C21221348   1.647   0.840   5.102
  186POPC  H12R21349   1.738   0.840   5.166
  186POPC  H12S21350   1.566   0.863   5.174
  186POPC  C21321351   1.660   0.952   4.997
  186POPC  H13R21352   1.768   0.966   4.972
  186POPC  H13S21353   1.625   1.047   5.041
  186POPC  C21421354   1.587   0.924   4.864
  186POPC  H14R21355   1.479   0.907   4.882
  186POPC  H14S21356   1.629   0.831   4.821
  186POPC  C21521357   1.607   1.033   4.758
  186POPC  H15R21358   1.711   1.072   4.767
  186POPC  H15S21359   1.538   1.118   4.777
  186POPC  C21621360   1.590   0.976   4.616
  186POPC  H16R21361   1.506   1.031   4.567
  186POPC  H16S21362   1.556   0.871   4.622
  186POPC  C21721363   1.721   0.985   4.535
  186POPC  H17R21364   1.800   0.941   4.600
  186POPC  H17S21365   1.749   1.091   4.521
  186POPC  C21821366   1.725   0.912   4.401
  186POPC  H18R21367   1.677   0.812   4.409
  186POPC  H18S21368   1.830   0.898   4.368
  186POPC  H18T21369   1.674   0.969   4.320
  186POPC   C3321370   1.988   0.900   5.697
  186POPC   H3X21371   2.006   0.804   5.748
  186POPC   H3Y21372   2.073   0.968   5.722
  186POPC   C3421373   1.985   0.882   5.544
  186POPC   H4X21374   2.083   0.917   5.507
  186POPC   H4Y21375   1.908   0.947   5.498
  186POPC   C3521376   1.968   0.737   5.494
  186POPC   H5X21377   1.861   0.714   5.477
  186POPC   H5Y21378   2.004   0.666   5.571
  186POPC   C3621379   2.048   0.711   5.366
  186POPC   H6X21380   2.070   0.603   5.355
  186POPC   H6Y21381   2.146   0.764   5.369
  186POPC   C3721382   1.974   0.759   5.241
  186POPC   H7X21383   1.936   0.862   5.259
  186POPC   H7Y21384   1.887   0.694   5.224
  186POPC   C3821385   2.063   0.762   5.117
  186POPC   H8X21386   2.103   0.660   5.099
  186POPC   H8Y21387   2.152   0.826   5.137
  186POPC   C3921388   1.990   0.812   4.994
  186POPC   H9X21389   2.004   0.922   4.980
  186POPC   H9Y21390   1.882   0.795   5.012
  186POPC  C31021391   2.020   0.735   4.867
  186POPC  H10X21392   1.996   0.628   4.886
  186POPC  H10Y21393   2.128   0.741   4.839
  186POPC  C31121394   1.933   0.784   4.752
  186POPC  H11X21395   1.955   0.891   4.735
  186POPC  H11Y21396   1.826   0.776   4.781
  186POPC  C31221397   1.955   0.705   4.623
  186POPC  H12X21398   2.064   0.708   4.600
  186POPC  H12Y21399   1.902   0.752   4.538
  186POPC  C31321400   1.910   0.558   4.634
  186POPC  H13X21401   1.896   0.527   4.740
  186POPC  H13Y21402   1.993   0.498   4.592
  186POPC  C31421403   1.783   0.526   4.555
  186POPC  H14X21404   1.771   0.416   4.552
  186POPC  H14Y21405   1.797   0.561   4.451
  186POPC  C31521406   1.654   0.587   4.610
  186POPC  H15X21407   1.573   0.574   4.535
  186POPC  H15Y21408   1.669   0.697   4.622
  186POPC  C31621409   1.605   0.527   4.742
  186POPC  H16X21410   1.588   0.417   4.731
  186POPC  H16Y21411   1.510   0.575   4.773
  186POPC  H16Z21412   1.681   0.542   4.821
  187POPC     N21413   5.086   6.364   2.215
  187POPC   C1221414   5.126   6.217   2.212
  187POPC  H12A21415   5.108   6.178   2.113
  187POPC  H12B21416   5.062   6.162   2.280
  187POPC   C1321417   5.070   6.411   2.357
  187POPC  H13A21418   5.053   6.517   2.360
  187POPC  H13B21419   4.989   6.361   2.407
  187POPC  H13C21420   5.162   6.390   2.410
  187POPC   C1421421   5.195   6.447   2.154
  187POPC  H14A21422   5.218   6.414   2.054
  187POPC  H14B21423   5.168   6.551   2.152
  187POPC  H14C21424   5.285   6.436   2.213
  187POPC   C1521425   4.958   6.385   2.140
  187POPC  H15A21426   4.929   6.489   2.143
  187POPC  H15B21427   4.876   6.328   2.182
  187POPC  H15C21428   4.969   6.357   2.036
  187POPC   C1121429   5.273   6.182   2.249
  187POPC  H11A21430   5.338   6.218   2.166
  187POPC  H11B21431   5.284   6.072   2.253
  187POPC     P21432   5.460   6.280   2.402
  187POPC   O1321433   5.473   6.421   2.355
  187POPC   O1421434   5.549   6.182   2.337
  187POPC   O1221435   5.309   6.237   2.375
  187POPC   O1121436   5.469   6.270   2.559
  187POPC    C121437   5.370   6.202   2.638
  187POPC    HA21438   5.415   6.168   2.734
  187POPC    HB21439   5.332   6.111   2.587
  187POPC    C221440   5.251   6.296   2.673
  187POPC    HS21441   5.237   6.362   2.585
  187POPC   O2121442   5.284   6.374   2.789
  187POPC   C2121443   5.202   6.474   2.812
  187POPC   O2221444   5.128   6.526   2.730
  187POPC   C2221445   5.207   6.507   2.961
  187POPC   H2R21446   5.240   6.613   2.972
  187POPC   H2S21447   5.283   6.442   3.009
  187POPC    C321448   5.115   6.221   2.695
  187POPC    HX21449   5.106   6.142   2.617
  187POPC    HY21450   5.036   6.296   2.676
  187POPC   O3121451   5.105   6.161   2.827
  187POPC   C3121452   4.980   6.159   2.876
  187POPC   O3221453   4.882   6.200   2.817
  187POPC   C3221454   4.978   6.102   3.017
  187POPC   H2X21455   4.872   6.094   3.049
  187POPC   H2Y21456   5.030   6.173   3.084
  187POPC   C2321457   5.070   6.482   3.026
  187POPC   H3R21458   5.034   6.382   2.996
  187POPC   H3S21459   4.996   6.556   2.987
  187POPC   C2421460   5.070   6.485   3.179
  187POPC   H4R21461   5.101   6.584   3.217
  187POPC   H4S21462   5.143   6.410   3.219
  187POPC   C2521463   4.929   6.453   3.229
  187POPC   H5R21464   4.910   6.346   3.205
  187POPC   H5S21465   4.857   6.516   3.173
  187POPC   C2621466   4.907   6.477   3.378
  187POPC   H6R21467   4.798   6.483   3.399
  187POPC   H6S21468   4.952   6.575   3.407
  187POPC   C2721469   4.966   6.365   3.464
  187POPC   H7R21470   5.071   6.347   3.432
  187POPC   H7S21471   4.910   6.271   3.445
  187POPC   C2821472   4.964   6.396   3.613
  187POPC   H8R21473   4.979   6.300   3.667
  187POPC   H8S21474   4.864   6.435   3.643
  187POPC   C2921475   5.075   6.489   3.653
  187POPC   H9121476   5.146   6.518   3.574
  187POPC  C21021477   5.092   6.534   3.777
  187POPC  H10121478   5.175   6.603   3.800
  187POPC  C21121479   5.002   6.498   3.893
  187POPC  H11R21480   4.962   6.395   3.882
  187POPC  H11S21481   4.913   6.564   3.898
  187POPC  C21221482   5.077   6.509   4.025
  187POPC  H12R21483   5.154   6.588   4.018
  187POPC  H12S21484   5.129   6.412   4.043
  187POPC  C21321485   4.987   6.541   4.144
  187POPC  H13R21486   4.973   6.448   4.204
  187POPC  H13S21487   4.886   6.570   4.109
  187POPC  C21421488   5.041   6.656   4.232
  187POPC  H14R21489   4.978   6.662   4.323
  187POPC  H14S21490   5.032   6.751   4.174
  187POPC  C21521491   5.188   6.641   4.274
  187POPC  H15R21492   5.256   6.661   4.189
  187POPC  H15S21493   5.202   6.536   4.307
  187POPC  C21621494   5.230   6.725   4.395
  187POPC  H16R21495   5.330   6.693   4.429
  187POPC  H16S21496   5.159   6.697   4.476
  187POPC  C21721497   5.232   6.876   4.372
  187POPC  H17R21498   5.249   6.927   4.470
  187POPC  H17S21499   5.134   6.910   4.333
  187POPC  C21821500   5.343   6.920   4.276
  187POPC  H18R21501   5.442   6.882   4.311
  187POPC  H18S21502   5.348   7.030   4.268
  187POPC  H18T21503   5.323   6.877   4.176
  187POPC   C3321504   5.044   5.964   3.019
  187POPC   H3X21505   5.150   5.976   2.986
  187POPC   H3Y21506   4.994   5.899   2.945
  187POPC   C3421507   5.040   5.895   3.156
  187POPC   H4X21508   5.096   5.800   3.150
  187POPC   H4Y21509   4.934   5.870   3.179
  187POPC   C3521510   5.092   5.979   3.273
  187POPC   H5X21511   5.090   5.913   3.362
  187POPC   H5Y21512   5.023   6.063   3.292
  187POPC   C3621513   5.235   6.034   3.259
  187POPC   H6X21514   5.248   6.083   3.160
  187POPC   H6Y21515   5.308   5.950   3.265
  187POPC   C3721516   5.268   6.136   3.369
  187POPC   H7X21517   5.201   6.223   3.354
  187POPC   H7Y21518   5.372   6.174   3.359
  187POPC   C3821519   5.253   6.079   3.509
  187POPC   H8X21520   5.328   5.998   3.522
  187POPC   H8Y21521   5.152   6.033   3.522
  187POPC   C3921522   5.268   6.182   3.620
  187POPC   H9X21523   5.180   6.249   3.619
  187POPC   H9Y21524   5.358   6.246   3.603
  187POPC  C31021525   5.276   6.110   3.755
  187POPC  H10X21526   5.376   6.061   3.760
  187POPC  H10Y21527   5.203   6.026   3.754
  187POPC  C31121528   5.245   6.196   3.879
  187POPC  H11X21529   5.232   6.123   3.962
  187POPC  H11Y21530   5.151   6.253   3.865
  187POPC  C31221531   5.358   6.288   3.925
  187POPC  H12X21532   5.349   6.391   3.886
  187POPC  H12Y21533   5.444   6.239   3.874
  187POPC  C31321534   5.400   6.280   4.073
  187POPC  H13X21535   5.510   6.268   4.077
  187POPC  H13Y21536   5.356   6.192   4.124
  187POPC  C31421537   5.365   6.405   4.152
  187POPC  H14X21538   5.266   6.385   4.198
  187POPC  H14Y21539   5.354   6.491   4.082
  187POPC  C31521540   5.465   6.445   4.260
  187POPC  H15X21541   5.431   6.540   4.306
  187POPC  H15Y21542   5.564   6.465   4.214
  187POPC  C31621543   5.479   6.340   4.370
  187POPC  H16X21544   5.384   6.284   4.383
  187POPC  H16Y21545   5.506   6.385   4.467
  187POPC  H16Z21546   5.560   6.270   4.341
  188POPC     N21547   5.952   6.271   2.160
  188POPC   C1221548   5.850   6.273   2.273
  188POPC  H12A21549   5.778   6.193   2.261
  188POPC  H12B21550   5.793   6.364   2.270
  188POPC   C1321551   6.011   6.133   2.147
  188POPC  H13A21552   5.935   6.059   2.132
  188POPC  H13B21553   6.083   6.129   2.066
  188POPC  H13C21554   6.061   6.108   2.239
  188POPC   C1421555   5.890   6.308   2.029
  188POPC  H14A21556   5.807   6.243   2.006
  188POPC  H14B21557   5.853   6.410   2.031
  188POPC  H14C21558   5.962   6.300   1.949
  188POPC   C1521559   6.064   6.366   2.193
  188POPC  H15A21560   6.108   6.338   2.288
  188POPC  H15B21561   6.028   6.467   2.204
  188POPC  H15C21562   6.142   6.364   2.119
  188POPC   C1121563   5.906   6.258   2.417
  188POPC  H11A21564   5.819   6.250   2.486
  188POPC  H11B21565   5.962   6.349   2.446
  188POPC     P21566   6.127   6.129   2.491
  188POPC   O1321567   6.173   6.264   2.527
  188POPC   O1421568   6.209   6.054   2.393
  188POPC   O1221569   5.983   6.139   2.426
  188POPC   O1121570   6.098   6.041   2.619
  188POPC    C121571   5.963   6.017   2.664
  188POPC    HA21572   5.963   5.927   2.728
  188POPC    HB21573   5.894   5.995   2.580
  188POPC    C221574   5.909   6.136   2.748
  188POPC    HS21575   5.926   6.229   2.691
  188POPC   O2121576   5.985   6.133   2.870
  188POPC   C2121577   6.026   6.250   2.914
  188POPC   O2221578   5.977   6.358   2.889
  188POPC   C2221579   6.155   6.227   2.991
  188POPC   H2R21580   6.235   6.225   2.915
  188POPC   H2S21581   6.153   6.127   3.040
  188POPC    C321582   5.755   6.122   2.774
  188POPC    HX21583   5.739   6.022   2.820
  188POPC    HY21584   5.703   6.122   2.676
  188POPC   O3121585   5.699   6.222   2.862
  188POPC   C3121586   5.683   6.343   2.811
  188POPC   O3221587   5.721   6.379   2.701
  188POPC   C3221588   5.602   6.433   2.906
  188POPC   H2X21589   5.494   6.411   2.889
  188POPC   H2Y21590   5.623   6.535   2.868
  188POPC   C2321591   6.185   6.338   3.093
  188POPC   H3R21592   6.145   6.436   3.059
  188POPC   H3S21593   6.295   6.348   3.098
  188POPC   C2421594   6.130   6.309   3.233
  188POPC   H4R21595   6.153   6.204   3.260
  188POPC   H4S21596   6.020   6.322   3.230
  188POPC   C2521597   6.191   6.398   3.342
  188POPC   H5R21598   6.229   6.492   3.296
  188POPC   H5S21599   6.277   6.345   3.388
  188POPC   C2621600   6.092   6.441   3.449
  188POPC   H6R21601   5.998   6.473   3.401
  188POPC   H6S21602   6.131   6.528   3.507
  188POPC   C2721603   6.068   6.326   3.546
  188POPC   H7R21604   6.144   6.328   3.627
  188POPC   H7S21605   6.079   6.229   3.493
  188POPC   C2821606   5.928   6.333   3.605
  188POPC   H8R21607   5.907   6.437   3.638
  188POPC   H8S21608   5.929   6.270   3.696
  188POPC   C2921609   5.825   6.286   3.504
  188POPC   H9121610   5.825   6.339   3.408
  188POPC  C21021611   5.737   6.187   3.526
  188POPC  H10121612   5.663   6.162   3.449
  188POPC  C21121613   5.727   6.108   3.653
  188POPC  H11R21614   5.825   6.093   3.704
  188POPC  H11S21615   5.687   6.006   3.631
  188POPC  C21221616   5.631   6.180   3.747
  188POPC  H12R21617   5.615   6.115   3.836
  188POPC  H12S21618   5.534   6.187   3.693
  188POPC  C21321619   5.667   6.322   3.797
  188POPC  H13R21620   5.575   6.378   3.825
  188POPC  H13S21621   5.709   6.384   3.715
  188POPC  C21421622   5.758   6.321   3.919
  188POPC  H14R21623   5.848   6.261   3.893
  188POPC  H14S21624   5.710   6.269   4.005
  188POPC  C21521625   5.797   6.464   3.959
  188POPC  H15R21626   5.719   6.504   4.027
  188POPC  H15S21627   5.799   6.528   3.869
  188POPC  C21621628   5.935   6.473   4.026
  188POPC  H16R21629   5.936   6.406   4.115
  188POPC  H16S21630   5.948   6.577   4.060
  188POPC  C21721631   6.051   6.437   3.933
  188POPC  H17R21632   6.049   6.506   3.845
  188POPC  H17S21633   6.038   6.334   3.894
  188POPC  C21821634   6.189   6.443   3.999
  188POPC  H18R21635   6.211   6.546   4.034
  188POPC  H18S21636   6.268   6.412   3.928
  188POPC  H18T21637   6.192   6.376   4.088
  188POPC   C3321638   5.632   6.433   3.059
  188POPC   H3X21639   5.616   6.536   3.096
  188POPC   H3Y21640   5.739   6.409   3.078
  188POPC   C3421641   5.536   6.352   3.147
  188POPC   H4X21642   5.431   6.382   3.128
  188POPC   H4Y21643   5.558   6.376   3.253
  188POPC   C3521644   5.551   6.201   3.129
  188POPC   H5X21645   5.528   6.171   3.025
  188POPC   H5Y21646   5.481   6.146   3.195
  188POPC   C3621647   5.693   6.162   3.165
  188POPC   H6X21648   5.726   6.214   3.258
  188POPC   H6Y21649   5.762   6.197   3.085
  188POPC   C3721650   5.711   6.012   3.180
  188POPC   H7X21651   5.646   5.962   3.105
  188POPC   H7Y21652   5.682   5.976   3.281
  188POPC   C3821653   5.854   5.977   3.145
  188POPC   H8X21654   5.877   6.022   3.046
  188POPC   H8Y21655   5.855   5.867   3.128
  188POPC   C3921656   5.961   6.023   3.244
  188POPC   H9X21657   5.943   6.130   3.270
  188POPC   H9Y21658   6.059   6.016   3.191
  188POPC  C31021659   5.977   5.944   3.374
  188POPC  H10X21660   5.953   5.837   3.355
  188POPC  H10Y21661   5.905   5.982   3.450
  188POPC  C31121662   6.121   5.950   3.428
  188POPC  H11X21663   6.156   6.055   3.433
  188POPC  H11Y21664   6.190   5.899   3.357
  188POPC  C31221665   6.139   5.887   3.567
  188POPC  H12X21666   6.247   5.892   3.593
  188POPC  H12Y21667   6.109   5.780   3.566
  188POPC  C31321668   6.061   5.962   3.675
  188POPC  H13X21669   5.963   5.911   3.692
  188POPC  H13Y21670   6.038   6.065   3.639
  188POPC  C31421671   6.136   5.976   3.808
  188POPC  H14X21672   6.226   6.039   3.792
  188POPC  H14Y21673   6.170   5.875   3.841
  188POPC  C31521674   6.048   6.039   3.916
  188POPC  H15X21675   5.962   5.972   3.939
  188POPC  H15Y21676   6.006   6.132   3.872
  188POPC  C31621677   6.122   6.075   4.045
  188POPC  H16X21678   6.214   6.132   4.023
  188POPC  H16Y21679   6.149   5.983   4.101
  188POPC  H16Z21680   6.057   6.138   4.110
  189SAPI   C1221681   5.608   6.186   6.582
  189SAPI    H221682   5.582   6.099   6.518
  189SAPI    O221683   5.552   6.303   6.523
  189SAPI   HO221684   5.587   6.302   6.434
  189SAPI   C1321685   5.554   6.158   6.722
  189SAPI    H321686   5.603   6.065   6.759
  189SAPI    O321687   5.412   6.133   6.723
  189SAPI   HO321688   5.397   6.039   6.710
  189SAPI   C1421689   5.595   6.272   6.815
  189SAPI    H421690   5.550   6.365   6.776
  189SAPI    O421691   5.546   6.253   6.949
  189SAPI   HO421692   5.618   6.268   7.011
  189SAPI   C1521693   5.747   6.288   6.816
  189SAPI    H521694   5.791   6.193   6.853
  189SAPI    O521695   5.790   6.392   6.904
  189SAPI   HO521696   5.872   6.424   6.866
  189SAPI   C1621697   5.801   6.312   6.676
  189SAPI    H621698   5.761   6.408   6.636
  189SAPI    O621699   5.944   6.322   6.681
  189SAPI   HO621700   5.980   6.270   6.609
  189SAPI   C1121701   5.759   6.198   6.587
  189SAPI    H121702   5.795   6.104   6.635
  189SAPI     P21703   5.931   6.114   6.403
  189SAPI   O1321704   5.888   5.975   6.427
  189SAPI   O1421705   6.050   6.162   6.478
  189SAPI   O1221706   5.807   6.213   6.452
  189SAPI   O1121707   5.948   6.145   6.251
  189SAPI    C121708   5.921   6.271   6.189
  189SAPI    HA21709   5.938   6.357   6.258
  189SAPI    HB21710   5.992   6.285   6.105
  189SAPI    C221711   5.777   6.278   6.131
  189SAPI    HS21712   5.707   6.270   6.217
  189SAPI   O2121713   5.761   6.170   6.038
  189SAPI   C2121714   5.639   6.122   6.026
  189SAPI   O2221715   5.544   6.149   6.098
  189SAPI   C2221716   5.635   6.031   5.903
  189SAPI   H2R21717   5.736   6.030   5.857
  189SAPI   H2S21718   5.610   5.928   5.936
  189SAPI    C321719   5.752   6.413   6.059
  189SAPI    HX21720   5.764   6.495   6.134
  189SAPI    HY21721   5.647   6.417   6.024
  189SAPI   O3121722   5.850   6.433   5.955
  189SAPI   C3121723   5.810   6.400   5.832
  189SAPI   O3221724   5.695   6.381   5.798
  189SAPI   C3221725   5.932   6.387   5.742
  189SAPI   H2X21726   5.969   6.283   5.746
  189SAPI   H2Y21727   6.013   6.453   5.782
  189SAPI   C2321728   5.533   6.081   5.798
  189SAPI   H3R21729   5.524   6.191   5.802
  189SAPI   H3S21730   5.433   6.038   5.821
  189SAPI   C2421731   5.577   6.044   5.655
  189SAPI   H4R21732   5.596   5.934   5.652
  189SAPI   H4S21733   5.673   6.095   5.634
  189SAPI   C2521734   5.470   6.080   5.555
  189SAPI   H5R21735   5.372   6.036   5.577
  189SAPI   C2621736   5.482   6.157   5.446
  189SAPI   H6R21737   5.393   6.170   5.382
  189SAPI   C2721738   5.605   6.227   5.393
  189SAPI   H7R21739   5.616   6.207   5.285
  189SAPI   H7S21740   5.698   6.186   5.439
  189SAPI   C2821741   5.598   6.375   5.422
  189SAPI   H8R21742   5.606   6.400   5.529
  189SAPI   C2921743   5.583   6.476   5.334
  189SAPI   H9R21744   5.579   6.579   5.373
  189SAPI  C21021745   5.569   6.466   5.184
  189SAPI  H10R21746   5.476   6.521   5.155
  189SAPI  H10S21747   5.553   6.361   5.152
  189SAPI  C21121748   5.684   6.529   5.109
  189SAPI  H11R21749   5.734   6.612   5.160
  189SAPI  C21221750   5.730   6.492   4.988
  189SAPI  H12R21751   5.817   6.546   4.946
  189SAPI  C21321752   5.679   6.381   4.899
  189SAPI  H13R21753   5.656   6.423   4.799
  189SAPI  H13S21754   5.582   6.340   4.936
  189SAPI  C21421755   5.780   6.270   4.888
  189SAPI  H14R21756   5.775   6.196   4.970
  189SAPI  C21521757   5.873   6.255   4.792
  189SAPI  H15R21758   5.942   6.170   4.797
  189SAPI  C21621759   5.895   6.346   4.674
  189SAPI  H16R21760   6.002   6.347   4.646
  189SAPI  H16S21761   5.868   6.450   4.702
  189SAPI  C21721762   5.812   6.305   4.551
  189SAPI  H17R21763   5.705   6.301   4.578
  189SAPI  H17S21764   5.842   6.203   4.518
  189SAPI  C21821765   5.830   6.401   4.432
  189SAPI  H18R21766   5.761   6.371   4.350
  189SAPI  H18S21767   5.934   6.389   4.394
  189SAPI  C21921768   5.807   6.550   4.464
  189SAPI  H19R21769   5.820   6.610   4.371
  189SAPI  H19S21770   5.888   6.583   4.534
  189SAPI  C22021771   5.673   6.587   4.527
  189SAPI  H20R21772   5.645   6.515   4.607
  189SAPI  H20S21773   5.593   6.588   4.450
  189SAPI  H20T21774   5.677   6.689   4.572
  189SAPI   C3321775   5.901   6.425   5.596
  189SAPI   H3X21776   5.810   6.490   5.590
  189SAPI   H3Y21777   5.878   6.333   5.539
  189SAPI   C3421778   6.014   6.503   5.528
  189SAPI   H4X21779   6.108   6.443   5.530
  189SAPI   H4Y21780   6.040   6.595   5.584
  189SAPI   C3521781   5.978   6.546   5.385
  189SAPI   H5X21782   6.064   6.604   5.345
  189SAPI   H5Y21783   5.890   6.614   5.387
  189SAPI   C3621784   5.950   6.430   5.290
  189SAPI   H6X21785   5.948   6.466   5.185
  189SAPI   H6Y21786   5.851   6.386   5.313
  189SAPI   C3721787   6.055   6.320   5.302
  189SAPI   H7X21788   6.070   6.291   5.409
  189SAPI   H7Y21789   6.152   6.358   5.265
  189SAPI   C3821790   6.015   6.190   5.235
  189SAPI   H8X21791   6.011   6.204   5.125
  189SAPI   H8Y21792   5.913   6.161   5.268
  189SAPI   C3921793   6.113   6.081   5.277
  189SAPI   H9X21794   6.101   6.063   5.386
  189SAPI   H9Y21795   6.218   6.116   5.260
  189SAPI  C31021796   6.090   5.952   5.201
  189SAPI  H10X21797   5.980   5.933   5.204
  189SAPI  H10Y21798   6.137   5.866   5.253
  189SAPI  C31121799   6.146   5.959   5.059
  189SAPI  H11X21800   6.252   5.928   5.059
  189SAPI  H11Y21801   6.143   6.064   5.023
  189SAPI  C31221802   6.065   5.875   4.962
  189SAPI  H12X21803   6.068   5.769   4.995
  189SAPI  H12Y21804   6.115   5.880   4.862
  189SAPI  C31321805   5.920   5.924   4.954
  189SAPI  H13X21806   5.919   6.035   4.958
  189SAPI  H13Y21807   5.864   5.888   5.043
  189SAPI  C31421808   5.844   5.876   4.832
  189SAPI  H14X21809   5.738   5.909   4.837
  189SAPI  H14Y21810   5.843   5.765   4.837
  189SAPI  C31521811   5.900   5.920   4.696
  189SAPI  H15X21812   6.010   5.937   4.697
  189SAPI  H15Y21813   5.851   6.016   4.669
  189SAPI  C31621814   5.864   5.816   4.590
  189SAPI  H16X21815   5.828   5.871   4.500
  189SAPI  H16Y21816   5.778   5.758   4.628
  189SAPI  C31721817   5.977   5.722   4.548
  189SAPI  H17X21818   6.051   5.712   4.631
  189SAPI  H17Y21819   6.033   5.767   4.463
  189SAPI  C31821820   5.924   5.583   4.509
  189SAPI  H18X21821   6.004   5.517   4.471
  189SAPI  H18Y21822   5.843   5.591   4.434
  189SAPI  H18Z21823   5.880   5.532   4.598
  190SAPI   C1221824   0.477   1.383   6.693
  190SAPI    H221825   0.431   1.312   6.620
  190SAPI    O221826   0.380   1.484   6.722
  190SAPI   HO221827   0.379   1.539   6.644
  190SAPI   C1321828   0.517   1.304   6.816
  190SAPI    H321829   0.589   1.225   6.783
  190SAPI    O321830   0.406   1.237   6.875
  190SAPI   HO321831   0.413   1.251   6.970
  190SAPI   C1421832   0.589   1.393   6.916
  190SAPI    H421833   0.519   1.474   6.946
  190SAPI    O421834   0.624   1.321   7.034
  190SAPI   HO421835   0.680   1.379   7.086
  190SAPI   C1521836   0.710   1.458   6.853
  190SAPI    H521837   0.780   1.378   6.821
  190SAPI    O521838   0.781   1.541   6.945
  190SAPI   HO521839   0.839   1.594   6.891
  190SAPI   C1621840   0.671   1.538   6.729
  190SAPI    H621841   0.604   1.622   6.758
  190SAPI    O621842   0.786   1.591   6.667
  190SAPI   HO621843   0.768   1.586   6.572
  190SAPI   C1121844   0.600   1.447   6.631
  190SAPI    H121845   0.672   1.366   6.608
  190SAPI     P21846   0.557   1.433   6.371
  190SAPI   O1321847   0.427   1.362   6.374
  190SAPI   O1421848   0.681   1.355   6.365
  190SAPI   O1221849   0.563   1.521   6.512
  190SAPI   O1121850   0.551   1.548   6.264
  190SAPI    C121851   0.614   1.676   6.268
  190SAPI    HA21852   0.536   1.754   6.274
  190SAPI    HB21853   0.682   1.689   6.354
  190SAPI    C221854   0.693   1.706   6.137
  190SAPI    HS21855   0.711   1.815   6.132
  190SAPI   O2121856   0.620   1.657   6.023
  190SAPI   C2121857   0.551   1.741   5.950
  190SAPI   O2221858   0.545   1.862   5.968
  190SAPI   C2221859   0.475   1.660   5.844
  190SAPI   H2R21860   0.538   1.574   5.813
  190SAPI   H2S21861   0.385   1.620   5.894
  190SAPI    C321862   0.833   1.637   6.141
  190SAPI    HX21863   0.881   1.662   6.238
  190SAPI    HY21864   0.898   1.679   6.062
  190SAPI   O3121865   0.822   1.494   6.131
  190SAPI   C3121866   0.808   1.451   6.005
  190SAPI   O3221867   0.832   1.518   5.905
  190SAPI   C3221868   0.738   1.316   6.008
  190SAPI   H2X21869   0.637   1.330   6.053
  190SAPI   H2Y21870   0.797   1.250   6.076
  190SAPI   C2321871   0.428   1.740   5.720
  190SAPI   H3R21872   0.375   1.832   5.754
  190SAPI   H3S21873   0.355   1.678   5.663
  190SAPI   C2421874   0.542   1.780   5.628
  190SAPI   H4R21875   0.616   1.836   5.690
  190SAPI   H4S21876   0.503   1.851   5.552
  190SAPI   C2521877   0.619   1.670   5.563
  190SAPI   H5R21878   0.693   1.621   5.628
  190SAPI   C2621879   0.607   1.627   5.437
  190SAPI   H6R21880   0.683   1.555   5.403
  190SAPI   C2721881   0.516   1.676   5.327
  190SAPI   H7R21882   0.574   1.736   5.254
  190SAPI   H7S21883   0.438   1.743   5.368
  190SAPI   C2821884   0.454   1.555   5.260
  190SAPI   H8R21885   0.397   1.489   5.327
  190SAPI   C2921886   0.462   1.523   5.129
  190SAPI   H9R21887   0.412   1.432   5.095
  190SAPI  C21021888   0.535   1.599   5.022
  190SAPI  H10R21889   0.558   1.528   4.939
  190SAPI  H10S21890   0.635   1.629   5.061
  190SAPI  C21121891   0.470   1.723   4.965
  190SAPI  H11R21892   0.465   1.808   5.034
  190SAPI  C21221893   0.418   1.738   4.842
  190SAPI  H12R21894   0.374   1.835   4.816
  190SAPI  C21321895   0.411   1.634   4.732
  190SAPI  H13R21896   0.335   1.666   4.657
  190SAPI  H13S21897   0.370   1.540   4.775
  190SAPI  C21421898   0.540   1.599   4.664
  190SAPI  H14R21899   0.622   1.570   4.731
  190SAPI  C21521900   0.565   1.604   4.532
  190SAPI  H15R21901   0.665   1.571   4.499
  190SAPI  C21621902   0.473   1.646   4.421
  190SAPI  H16R21903   0.535   1.682   4.336
  190SAPI  H16S21904   0.411   1.733   4.451
  190SAPI  C21721905   0.379   1.537   4.367
  190SAPI  H17R21906   0.289   1.534   4.431
  190SAPI  H17S21907   0.428   1.437   4.374
  190SAPI  C21821908   0.343   1.561   4.219
  190SAPI  H18R21909   0.429   1.529   4.157
  190SAPI  H18S21910   0.330   1.670   4.202
  190SAPI  C21921911   0.216   1.490   4.168
  190SAPI  H19R21912   0.221   1.485   4.057
  190SAPI  H19S21913   0.127   1.552   4.193
  190SAPI  C22021914   0.192   1.350   4.224
  190SAPI  H20R21915   0.176   1.354   4.334
  190SAPI  H20S21916   0.280   1.286   4.204
  190SAPI  H20T21917   0.103   1.303   4.178
  190SAPI   C3321918   0.726   1.248   5.870
  190SAPI   H3X21919   0.687   1.146   5.889
  190SAPI   H3Y21920   0.827   1.237   5.827
  190SAPI   C3421921   0.630   1.315   5.768
  190SAPI   H4X21922   0.666   1.418   5.749
  190SAPI   H4Y21923   0.528   1.321   5.810
  190SAPI   C3521924   0.629   1.236   5.635
  190SAPI   H5X21925   0.541   1.170   5.629
  190SAPI   H5Y21926   0.721   1.174   5.641
  190SAPI   C3621927   0.645   1.319   5.507
  190SAPI   H6X21928   0.718   1.399   5.531
  190SAPI   H6Y21929   0.548   1.367   5.482
  190SAPI   C3721930   0.701   1.244   5.385
  190SAPI   H7X21931   0.618   1.191   5.332
  190SAPI   H7Y21932   0.774   1.167   5.417
  190SAPI   C3821933   0.774   1.338   5.288
  190SAPI   H8X21934   0.864   1.381   5.339
  190SAPI   H8Y21935   0.707   1.423   5.264
  190SAPI   C3921936   0.816   1.275   5.155
  190SAPI   H9X21937   0.809   1.164   5.162
  190SAPI   H9Y21938   0.921   1.302   5.131
  190SAPI  C31021939   0.725   1.329   5.045
  190SAPI  H10X21940   0.738   1.440   5.041
  190SAPI  H10Y21941   0.620   1.305   5.072
  190SAPI  C31121942   0.756   1.273   4.908
  190SAPI  H11X21943   0.787   1.168   4.924
  190SAPI  H11Y21944   0.843   1.327   4.864
  190SAPI  C31221945   0.638   1.273   4.810
  190SAPI  H12X21946   0.588   1.372   4.809
  190SAPI  H12Y21947   0.563   1.198   4.843
  190SAPI  C31321948   0.687   1.241   4.669
  190SAPI  H13X21949   0.754   1.153   4.674
  190SAPI  H13Y21950   0.748   1.326   4.632
  190SAPI  C31421951   0.574   1.210   4.572
  190SAPI  H14X21952   0.510   1.300   4.559
  190SAPI  H14Y21953   0.511   1.130   4.616
  190SAPI  C31521954   0.628   1.165   4.436
  190SAPI  H15X21955   0.548   1.130   4.368
  190SAPI  H15Y21956   0.696   1.079   4.451
  190SAPI  C31621957   0.702   1.278   4.364
  190SAPI  H16X21958   0.809   1.249   4.371
  190SAPI  H16Y21959   0.688   1.374   4.418
  190SAPI  C31721960   0.659   1.297   4.219
  190SAPI  H17X21961   0.548   1.309   4.220
  190SAPI  H17Y21962   0.684   1.203   4.165
  190SAPI  C31821963   0.718   1.416   4.142
  190SAPI  H18X21964   0.671   1.426   4.042
  190SAPI  H18Y21965   0.827   1.403   4.126
  190SAPI  H18Z21966   0.701   1.511   4.197
  191SAPI   C1221967   4.721   3.506   1.785
  191SAPI    H221968   4.624   3.546   1.823
  191SAPI    O221969   4.705   3.366   1.763
  191SAPI   HO221970   4.704   3.327   1.850
  191SAPI   C1321971   4.752   3.578   1.655
  191SAPI    H321972   4.758   3.687   1.675
  191SAPI    O321973   4.646   3.554   1.562
  191SAPI   HO321974   4.616   3.465   1.584
  191SAPI   C1421975   4.888   3.531   1.603
  191SAPI    H421976   4.880   3.422   1.585
  191SAPI    O421977   4.921   3.594   1.479
  191SAPI   HO421978   5.017   3.594   1.474
  191SAPI   C1521979   4.998   3.554   1.707
  191SAPI    H521980   5.003   3.664   1.727
  191SAPI    O521981   5.125   3.513   1.654
  191SAPI   HO521982   5.194   3.562   1.701
  191SAPI   C1621983   4.965   3.484   1.838
  191SAPI    H621984   4.964   3.374   1.823
  191SAPI    O621985   5.059   3.516   1.940
  191SAPI   HO621986   5.003   3.521   2.018
  191SAPI   C1121987   4.829   3.531   1.887
  191SAPI    H121988   4.838   3.641   1.901
  191SAPI     P21989   4.714   3.552   2.124
  191SAPI   O1321990   4.587   3.598   2.064
  191SAPI   O1421991   4.812   3.652   2.172
  191SAPI   O1221992   4.793   3.464   2.009
  191SAPI   O1121993   4.683   3.440   2.231
  191SAPI    C121994   4.559   3.442   2.304
  191SAPI    HA21995   4.474   3.472   2.239
  191SAPI    HB21996   4.537   3.339   2.339
  191SAPI    C221997   4.558   3.533   2.430
  191SAPI    HS21998   4.600   3.633   2.407
  191SAPI   O2121999   4.630   3.467   2.536
  191SAPI   C2122000   4.762   3.478   2.529
  191SAPI   O2222001   4.824   3.554   2.457
  191SAPI   C2222002   4.824   3.380   2.627
  191SAPI   H2R22003   4.769   3.387   2.724
  191SAPI   H2S22004   4.808   3.278   2.586
  191SAPI    C322005   4.411   3.553   2.475
  191SAPI    HX22006   4.365   3.453   2.493
  191SAPI    HY22007   4.356   3.598   2.390
  191SAPI   O3122008   4.397   3.642   2.588
  191SAPI   C3122009   4.375   3.585   2.706
  191SAPI   O3222010   4.375   3.466   2.730
  191SAPI   C3222011   4.335   3.694   2.806
  191SAPI   H2X22012   4.229   3.675   2.831
  191SAPI   H2Y22013   4.344   3.794   2.757
  191SAPI   C2322014   4.975   3.404   2.646
  191SAPI   H3R22015   5.028   3.394   2.549
  191SAPI   H3S22016   5.014   3.323   2.712
  191SAPI   C2422017   5.012   3.540   2.709
  191SAPI   H4R22018   4.987   3.619   2.635
  191SAPI   H4S22019   5.123   3.543   2.722
  191SAPI   C2522020   4.939   3.569   2.838
  191SAPI   H5R22021   4.830   3.579   2.827
  191SAPI   C2622022   4.993   3.587   2.959
  191SAPI   H6R22023   4.926   3.603   3.045
  191SAPI   C2722024   5.139   3.584   2.995
  191SAPI   H7R22025   5.158   3.649   3.083
  191SAPI   H7S22026   5.201   3.626   2.912
  191SAPI   C2822027   5.184   3.443   3.020
  191SAPI   H8R22028   5.233   3.395   2.935
  191SAPI   C2922029   5.170   3.374   3.135
  191SAPI   H9R22030   5.202   3.269   3.135
  191SAPI  C21022031   5.107   3.422   3.264
  191SAPI  H10R22032   5.005   3.380   3.272
  191SAPI  H10S22033   5.096   3.532   3.265
  191SAPI  C21122034   5.190   3.377   3.382
  191SAPI  H11R22035   5.282   3.321   3.359
  191SAPI  C21222036   5.165   3.407   3.510
  191SAPI  H12R22037   5.235   3.369   3.587
  191SAPI  C21322038   5.050   3.488   3.563
  191SAPI  H13R22039   5.045   3.585   3.509
  191SAPI  H13S22040   5.073   3.513   3.669
  191SAPI  C21422041   4.916   3.419   3.556
  191SAPI  H14R22042   4.919   3.311   3.534
  191SAPI  C21522043   4.796   3.477   3.575
  191SAPI  H15R22044   4.705   3.415   3.565
  191SAPI  C21622045   4.773   3.622   3.607
  191SAPI  H16R22046   4.665   3.646   3.597
  191SAPI  H16S22047   4.826   3.686   3.533
  191SAPI  C21722048   4.820   3.664   3.747
  191SAPI  H17R22049   4.805   3.773   3.759
  191SAPI  H17S22050   4.929   3.645   3.756
  191SAPI  C21822051   4.753   3.591   3.865
  191SAPI  H18R22052   4.750   3.482   3.844
  191SAPI  H18S22053   4.649   3.627   3.876
  191SAPI  C21922054   4.831   3.612   3.996
  191SAPI  H19R22055   4.931   3.566   3.984
  191SAPI  H19S22056   4.779   3.557   4.078
  191SAPI  C22022057   4.848   3.758   4.036
  191SAPI  H20R22058   4.904   3.815   3.959
  191SAPI  H20S22059   4.906   3.765   4.131
  191SAPI  H20T22060   4.750   3.807   4.051
  191SAPI   C3322061   4.418   3.692   2.936
  191SAPI   H3X22062   4.400   3.597   2.990
  191SAPI   H3Y22063   4.382   3.774   3.001
  191SAPI   C3422064   4.567   3.711   2.909
  191SAPI   H4X22065   4.582   3.793   2.836
  191SAPI   H4Y22066   4.608   3.618   2.864
  191SAPI   C3522067   4.648   3.746   3.035
  191SAPI   H5X22068   4.624   3.849   3.067
  191SAPI   H5Y22069   4.755   3.744   3.006
  191SAPI   C3622070   4.629   3.651   3.155
  191SAPI   H6X22071   4.527   3.665   3.197
  191SAPI   H6Y22072   4.702   3.680   3.234
  191SAPI   C3722073   4.650   3.503   3.120
  191SAPI   H7X22074   4.745   3.491   3.064
  191SAPI   H7Y22075   4.568   3.468   3.054
  191SAPI   C3822076   4.655   3.415   3.245
  191SAPI   H8X22077   4.563   3.430   3.306
  191SAPI   H8Y22078   4.742   3.446   3.306
  191SAPI   C3922079   4.670   3.267   3.208
  191SAPI   H9X22080   4.758   3.258   3.142
  191SAPI   H9Y22081   4.581   3.233   3.150
  191SAPI  C31022082   4.691   3.177   3.331
  191SAPI  H10X22083   4.767   3.223   3.397
  191SAPI  H10Y22084   4.731   3.080   3.294
  191SAPI  C31122085   4.563   3.146   3.409
  191SAPI  H11X22086   4.490   3.106   3.335
  191SAPI  H11Y22087   4.520   3.239   3.453
  191SAPI  C31222088   4.582   3.039   3.518
  191SAPI  H12X22089   4.624   2.948   3.470
  191SAPI  H12Y22090   4.484   3.011   3.561
  191SAPI  C31322091   4.675   3.080   3.634
  191SAPI  H13X22092   4.768   3.124   3.591
  191SAPI  H13Y22093   4.704   2.990   3.691
  191SAPI  C31422094   4.614   3.181   3.733
  191SAPI  H14X22095   4.569   3.266   3.677
  191SAPI  H14Y22096   4.695   3.222   3.796
  191SAPI  C31522097   4.508   3.118   3.825
  191SAPI  H15X22098   4.552   3.033   3.880
  191SAPI  H15Y22099   4.427   3.077   3.761
  191SAPI  C31622100   4.445   3.219   3.922
  191SAPI  H16X22101   4.349   3.178   3.958
  191SAPI  H16Y22102   4.423   3.313   3.867
  191SAPI  C31722103   4.530   3.250   4.046
  191SAPI  H17X22104   4.483   3.335   4.100
  191SAPI  H17Y22105   4.631   3.284   4.015
  191SAPI  C31822106   4.543   3.132   4.144
  191SAPI  H18X22107   4.595   3.164   4.237
  191SAPI  H18Y22108   4.600   3.049   4.098
  191SAPI  H18Z22109   4.442   3.094   4.171
  192SAPI   C1222110   1.080   2.013   1.840
  192SAPI    H222111   1.100   1.917   1.891
  192SAPI    O222112   1.197   2.094   1.851
  192SAPI   HO222113   1.203   2.114   1.944
  192SAPI   C1322114   1.044   1.985   1.696
  192SAPI    H322115   0.952   1.922   1.699
  192SAPI    O322116   1.146   1.909   1.632
  192SAPI   HO322117   1.230   1.947   1.660
  192SAPI   C1422118   1.009   2.114   1.623
  192SAPI    H422119   1.099   2.179   1.623
  192SAPI    O422120   0.974   2.087   1.487
  192SAPI   HO422121   0.898   2.029   1.488
  192SAPI   C1522122   0.896   2.188   1.694
  192SAPI    H522123   0.806   2.123   1.693
  192SAPI    O522124   0.864   2.309   1.625
  192SAPI   HO522125   0.803   2.287   1.554
  192SAPI   C1622126   0.931   2.214   1.841
  192SAPI    H622127   1.020   2.280   1.847
  192SAPI    O622128   0.824   2.279   1.909
  192SAPI   HO622129   0.787   2.218   1.973
  192SAPI   C1122130   0.962   2.080   1.908
  192SAPI    H122131   0.875   2.013   1.890
  192SAPI     P22132   0.878   2.051   2.157
  192SAPI   O1322133   0.884   1.906   2.188
  192SAPI   O1422134   0.751   2.104   2.102
  192SAPI   O1222135   0.995   2.089   2.047
  192SAPI   O1122136   0.923   2.140   2.279
  192SAPI    C122137   0.942   2.281   2.267
  192SAPI    HA22138   1.049   2.304   2.287
  192SAPI    HB22139   0.920   2.320   2.165
  192SAPI    C222140   0.852   2.358   2.368
  192SAPI    HS22141   0.883   2.465   2.372
  192SAPI   O2122142   0.860   2.302   2.500
  192SAPI   C2122143   0.980   2.288   2.551
  192SAPI   O2222144   1.079   2.353   2.521
  192SAPI   C2222145   0.972   2.174   2.651
  192SAPI   H2R22146   1.071   2.168   2.701
  192SAPI   H2S22147   0.897   2.203   2.728
  192SAPI    C322148   0.703   2.352   2.326
  192SAPI    HX22149   0.678   2.247   2.302
  192SAPI    HY22150   0.691   2.409   2.231
  192SAPI   O3122151   0.618   2.410   2.428
  192SAPI   C3122152   0.567   2.320   2.514
  192SAPI   O3222153   0.566   2.199   2.500
  192SAPI   C3222154   0.511   2.394   2.635
  192SAPI   H2X22155   0.436   2.467   2.598
  192SAPI   H2Y22156   0.595   2.448   2.684
  192SAPI   C2322157   0.933   2.040   2.582
  192SAPI   H3R22158   1.022   1.997   2.532
  192SAPI   H3S22159   0.858   2.060   2.502
  192SAPI   C2422160   0.867   1.933   2.673
  192SAPI   H4R22161   0.939   1.895   2.748
  192SAPI   H4S22162   0.842   1.846   2.608
  192SAPI   C2522163   0.742   1.984   2.738
  192SAPI   H5R22164   0.664   2.010   2.666
  192SAPI   C2622165   0.718   2.005   2.869
  192SAPI   H6R22166   0.620   2.050   2.894
  192SAPI   C2722167   0.805   1.987   2.990
  192SAPI   H7R22168   0.773   2.070   3.057
  192SAPI   H7S22169   0.910   2.013   2.964
  192SAPI   C2822170   0.809   1.859   3.072
  192SAPI   H8R22171   0.826   1.767   3.014
  192SAPI   C2922172   0.795   1.851   3.207
  192SAPI   H9R22173   0.802   1.752   3.255
  192SAPI  C21022174   0.772   1.967   3.301
  192SAPI  H10R22175   0.662   1.966   3.320
  192SAPI  H10S22176   0.794   2.064   3.252
  192SAPI  C21122177   0.842   1.974   3.434
  192SAPI  H11R22178   0.943   1.931   3.436
  192SAPI  C21222179   0.795   2.033   3.546
  192SAPI  H12R22180   0.857   2.032   3.637
  192SAPI  C21322181   0.661   2.102   3.561
  192SAPI  H13R22182   0.604   2.052   3.642
  192SAPI  H13S22183   0.600   2.087   3.469
  192SAPI  C21422184   0.658   2.251   3.584
  192SAPI  H14R22185   0.663   2.310   3.491
  192SAPI  C21522186   0.651   2.317   3.700
  192SAPI  H15R22187   0.640   2.426   3.694
  192SAPI  C21622188   0.646   2.263   3.841
  192SAPI  H16R22189   0.541   2.235   3.864
  192SAPI  H16S22190   0.670   2.346   3.912
  192SAPI  C21722191   0.742   2.147   3.874
  192SAPI  H17R22192   0.842   2.170   3.831
  192SAPI  H17S22193   0.707   2.054   3.823
  192SAPI  C21822194   0.760   2.117   4.024
  192SAPI  H18R22195   0.706   2.194   4.083
  192SAPI  H18S22196   0.867   2.127   4.052
  192SAPI  C21922197   0.711   1.978   4.066
  192SAPI  H19R22198   0.605   1.969   4.036
  192SAPI  H19S22199   0.713   1.972   4.177
  192SAPI  C22022200   0.779   1.855   4.004
  192SAPI  H20R22201   0.715   1.765   4.016
  192SAPI  H20S22202   0.877   1.833   4.053
  192SAPI  H20T22203   0.796   1.871   3.895
  192SAPI   C3322204   0.443   2.299   2.737
  192SAPI   H3X22205   0.518   2.231   2.782
  192SAPI   H3Y22206   0.368   2.237   2.684
  192SAPI   C3422207   0.369   2.377   2.847
  192SAPI   H4X22208   0.299   2.310   2.901
  192SAPI   H4Y22209   0.309   2.456   2.797
  192SAPI   C3522210   0.459   2.448   2.948
  192SAPI   H5X22211   0.396   2.521   3.003
  192SAPI   H5Y22212   0.539   2.505   2.896
  192SAPI   C3622213   0.521   2.356   3.053
  192SAPI   H6X22214   0.589   2.283   3.005
  192SAPI   H6Y22215   0.439   2.297   3.102
  192SAPI   C3722216   0.594   2.436   3.162
  192SAPI   H7X22217   0.629   2.366   3.241
  192SAPI   H7Y22218   0.521   2.505   3.210
  192SAPI   C3822219   0.713   2.519   3.111
  192SAPI   H8X22220   0.766   2.562   3.198
  192SAPI   H8Y22221   0.676   2.605   3.050
  192SAPI   C3922222   0.815   2.440   3.028
  192SAPI   H9X22223   0.904   2.503   3.005
  192SAPI   H9Y22224   0.768   2.414   2.930
  192SAPI  C31022225   0.861   2.310   3.094
  192SAPI  H10X22226   0.907   2.248   3.013
  192SAPI  H10Y22227   0.775   2.253   3.135
  192SAPI  C31122228   0.966   2.325   3.204
  192SAPI  H11X22229   1.040   2.402   3.175
  192SAPI  H11Y22230   1.018   2.227   3.209
  192SAPI  C31222231   0.912   2.351   3.344
  192SAPI  H12X22232   0.864   2.257   3.379
  192SAPI  H12Y22233   0.834   2.430   3.345
  192SAPI  C31322234   1.022   2.391   3.442
  192SAPI  H13X22235   1.046   2.499   3.431
  192SAPI  H13Y22236   1.115   2.334   3.420
  192SAPI  C31422237   0.987   2.358   3.587
  192SAPI  H14X22238   0.966   2.249   3.596
  192SAPI  H14Y22239   0.894   2.412   3.617
  192SAPI  C31522240   1.102   2.393   3.681
  192SAPI  H15X22241   1.121   2.502   3.679
  192SAPI  H15Y22242   1.193   2.342   3.643
  192SAPI  C31622243   1.078   2.345   3.824
  192SAPI  H16X22244   1.175   2.352   3.877
  192SAPI  H16Y22245   1.046   2.238   3.818
  192SAPI  C31722246   0.975   2.425   3.904
  192SAPI  H17X22247   0.873   2.391   3.877
  192SAPI  H17Y22248   0.985   2.530   3.868
  192SAPI  C31822249   0.991   2.425   4.057
  192SAPI  H18X22250   1.098   2.430   4.086
  192SAPI  H18Y22251   0.947   2.333   4.101
  192SAPI  H18Z22252   0.940   2.512   4.103
  193SOD    SOD22253   2.848   7.092   1.075
  194SOD    SOD22254   7.007   3.588   1.160
  195SOD    SOD22255   2.249   4.544   8.468
  196SOD    SOD22256   0.843   7.183   7.054
  197SOD    SOD22257   0.844   5.889   7.754
  198SOD    SOD22258   3.501   0.028   7.380
  199SOD    SOD22259   5.278   0.550   7.103
  200SOD    SOD22260   5.011   6.534   0.862
  201SOD    SOD22261   3.083   1.219   1.082
  202SOD    SOD22262   7.299   5.892   0.798
  203SOD    SOD22263   6.393   0.421   6.784
  204SOD    SOD22264   3.159   1.133   8.094
  205SOD    SOD22265   4.649   3.193   8.279
  206SOD    SOD22266   5.878   3.843   8.184
  207SOD    SOD22267   6.494   3.463   0.167
  208SOD    SOD22268   1.004   1.380   7.992
  209SOD    SOD22269   7.024   2.498   0.518
  210SOD    SOD22270   5.945   7.101   7.303
  211SOD    SOD22271   0.005   5.846   7.855
  212SOD    SOD22272   3.739   7.268   8.500
  213SOD    SOD22273   5.952   2.279   0.011
  214SOD    SOD22274   3.779   2.039   1.065
  215SOD    SOD22275   3.065   4.327   8.329
  216SOD    SOD22276   3.977   2.213   6.835
  217SOD    SOD22277   0.322   0.768   8.337
  218SOD    SOD22278   6.476   1.738   0.016
  219SOD    SOD22279   3.916   0.426   0.115
  220SOD    SOD22280   1.068   2.047   7.952
  221SOD    SOD22281   2.921   3.915   0.412
  222SOD    SOD22282   3.373   6.260   7.713
  223SOD    SOD22283   5.354   4.806   0.344
  224SOD    SOD22284   2.708   2.591   7.742
  225SOD    SOD22285   3.315   0.158   0.192
  226SOD    SOD22286   5.536   2.145   1.458
  227SOD    SOD22287   7.284   7.263   8.399
  228SOD    SOD22288   2.156   4.538   6.825
  229SOD    SOD22289   5.835   7.234   1.649
  230SOD    SOD22290   0.971   0.672   0.778
  231SOD    SOD22291   4.202   2.461   7.784
  232SOD    SOD22292   3.075   3.817   7.224
  233SOD    SOD22293   0.640   3.931   0.518
  234CLA    CLA22294   0.692   4.906   7.074
  235CLA    CLA22295   5.620   1.521   0.465
  236CLA    CLA22296   7.219   6.599   0.893
  237CLA    CLA22297   1.296   7.240   7.563
  238CLA    CLA22298   0.452   7.299   0.653
  239CLA    CLA22299   1.730   4.714   1.407
  240CLA    CLA22300   4.080   6.745   1.221
  241CLA    CLA22301   5.433   6.534   8.102
  242CLA    CLA22302   2.150   3.651   0.419
  243CLA    CLA22303   2.296   0.473   8.490
  244CLA    CLA22304   2.667   4.593   6.654
  245CLA    CLA22305   0.027   0.078   2.241
  246CLA    CLA22306   5.097   4.963   8.126
  247CLA    CLA22307   2.097   0.326   6.813
  248CLA    CLA22308   3.091   0.586   1.322
  249CLA    CLA22309   0.885   1.760   0.744
  250CLA    CLA22310   2.440   2.685   7.549
  251TIP3   OH222311   3.520   3.793   6.136
  251TIP3    H122312   3.548   3.797   6.044
  251TIP3    H222313   3.425   3.805   6.132
  252TIP3   OH222314   3.182   2.850   6.260
  252TIP3    H122315   3.184   2.940   6.227
  252TIP3    H222316   3.257   2.807   6.220
  253TIP3   OH222317   3.149   3.341   6.212
  253TIP3    H122318   3.222   3.373   6.266
  253TIP3    H222319   3.084   3.411   6.214
  254TIP3   OH222320   2.732   3.687   6.255
  254TIP3    H122321   2.687   3.626   6.196
  254TIP3    H222322   2.662   3.740   6.292
  255TIP3   OH222323   2.392   3.510   6.366
  255TIP3    H122324   2.444   3.511   6.286
  255TIP3    H222325   2.321   3.572   6.349
  256TIP3   OH222326   2.690   3.291   6.279
  256TIP3    H122327   2.728   3.334   6.356
  256TIP3    H222328   2.748   3.217   6.263
  257TIP3   OH222329   2.909   4.940   6.055
  257TIP3    H122330   2.977   5.005   6.072
  257TIP3    H222331   2.828   4.981   6.084
  258TIP3   OH222332   3.018   4.706   6.383
  258TIP3    H122333   2.941   4.759   6.362
  258TIP3    H222334   3.057   4.684   6.298
  259TIP3   OH222335   4.145   4.986   6.336
  259TIP3    H122336   4.237   4.999   6.313
  259TIP3    H222337   4.097   5.026   6.263
  260TIP3   OH222338   3.256   2.500   6.341
  260TIP3    H122339   3.172   2.541   6.322
  260TIP3    H222340   3.263   2.427   6.279
  261TIP3   OH222341   2.386   2.887   6.278
  261TIP3    H122342   2.440   2.884   6.357
  261TIP3    H222343   2.441   2.848   6.210
  262TIP3   OH222344   4.456   1.990   6.230
  262TIP3    H122345   4.494   2.071   6.194
  262TIP3    H222346   4.364   2.011   6.243
  263TIP3   OH222347   4.830   2.112   6.283
  263TIP3    H122348   4.750   2.138   6.237
  263TIP3    H222349   4.855   2.189   6.334
  264TIP3   OH222350   1.895   3.776   6.438
  264TIP3    H122351   1.853   3.776   6.352
  264TIP3    H222352   1.949   3.855   6.439
  265TIP3   OH222353   2.879   5.618   6.212
  265TIP3    H122354   2.793   5.622   6.254
  265TIP3    H222355   2.901   5.709   6.192
  266TIP3   OH222356   1.848   4.865   6.236
  266TIP3    H122357   1.893   4.799   6.184
  266TIP3    H222358   1.755   4.851   6.217
  267TIP3   OH222359   1.372   4.633   6.249
  267TIP3    H122360   1.371   4.654   6.343
  267TIP3    H222361   1.297   4.575   6.237
  268TIP3   OH222362   1.641   4.582   6.425
  268TIP3    H122363   1.559   4.620   6.456
  268TIP3    H222364   1.655   4.622   6.340
  269TIP3   OH222365   4.636   1.788   6.207
  269TIP3    H122366   4.572   1.858   6.220
  269TIP3    H222367   4.613   1.749   6.123
  270TIP3   OH222368   4.531   1.564   6.351
  270TIP3    H122369   4.517   1.498   6.284
  270TIP3    H222370   4.553   1.644   6.302
  271TIP3   OH222371   4.568   1.120   6.245
  271TIP3    H122372   4.515   1.093   6.320
  271TIP3    H222373   4.572   1.043   6.189
  272TIP3   OH222374   1.273   3.839   6.250
  272TIP3    H122375   1.300   3.774   6.314
  272TIP3    H222376   1.203   3.887   6.292
  273TIP3   OH222377   2.199   5.775   6.332
  273TIP3    H122378   2.115   5.817   6.314
  273TIP3    H222379   2.239   5.830   6.399
  274TIP3   OH222380   3.034   6.080   6.465
  274TIP3    H122381   2.943   6.099   6.442
  274TIP3    H222382   3.066   6.028   6.391
  275TIP3   OH222383   3.172   6.405   6.321
  275TIP3    H122384   3.119   6.428   6.397
  275TIP3    H222385   3.223   6.483   6.302
  276TIP3   OH222386   3.101   5.948   6.232
  276TIP3    H122387   3.111   6.032   6.186
  276TIP3    H222388   3.166   5.891   6.191
  277TIP3   OH222389   0.824   4.061   6.311
  277TIP3    H122390   0.807   3.967   6.314
  277TIP3    H222391   0.832   4.087   6.403
  278TIP3   OH222392   3.448   0.758   6.217
  278TIP3    H122393   3.489   0.707   6.148
  278TIP3    H222394   3.519   0.810   6.254
  279TIP3   OH222395   2.895   0.573   6.336
  279TIP3    H122396   2.907   0.573   6.241
  279TIP3    H222397   2.807   0.537   6.348
  280TIP3   OH222398   4.081   0.587   6.276
  280TIP3    H122399   4.011   0.648   6.253
  280TIP3    H222400   4.041   0.500   6.266
  281TIP3   OH222401   2.642   6.830   6.189
  281TIP3    H122402   2.646   6.886   6.266
  281TIP3    H222403   2.708   6.865   6.130
  282TIP3   OH222404   2.197   6.765   6.271
  282TIP3    H122405   2.131   6.792   6.208
  282TIP3    H222406   2.266   6.724   6.218
  283TIP3   OH222407   1.734   6.041   6.406
  283TIP3    H122408   1.757   6.070   6.318
  283TIP3    H222409   1.705   5.951   6.394
  284TIP3   OH222410   1.369   6.225   6.372
  284TIP3    H122411   1.434   6.223   6.302
  284TIP3    H222412   1.369   6.316   6.402
  285TIP3   OH222413   1.751   6.433   6.331
  285TIP3    H122414   1.707   6.515   6.305
  285TIP3    H222415   1.741   6.376   6.255
  286TIP3   OH222416   1.529   6.033   6.186
  286TIP3    H122417   1.524   5.960   6.124
  286TIP3    H222418   1.550   5.992   6.270
  287TIP3   OH222419   4.953   6.396   6.287
  287TIP3    H122420   5.022   6.420   6.225
  287TIP3    H222421   4.969   6.452   6.363
  288TIP3   OH222422   0.433   2.194   6.356
  288TIP3    H122423   0.468   2.222   6.271
  288TIP3    H222424   0.471   2.107   6.370
  289TIP3   OH222425   0.331   2.451   6.348
  289TIP3    H122426   0.365   2.362   6.355
  289TIP3    H222427   0.319   2.465   6.254
  290TIP3   OH222428   0.792   2.477   6.267
  290TIP3    H122429   0.831   2.398   6.304
  290TIP3    H222430   0.866   2.537   6.253
  291TIP3   OH222431   0.055   4.792   6.269
  291TIP3    H122432   0.052   4.880   6.232
  291TIP3    H222433   0.117   4.798   6.342
  292TIP3   OH222434   0.079   5.336   6.447
  292TIP3    H122435   0.160   5.302   6.409
  292TIP3    H222436   0.070   5.424   6.411
  293TIP3   OH222437   7.239   5.490   6.181
  293TIP3    H122438   0.027   5.494   6.152
  293TIP3    H222439   7.193   5.550   6.123
  294TIP3   OH222440   0.217   5.757   6.215
  294TIP3    H122441   0.212   5.671   6.173
  294TIP3    H222442   0.275   5.808   6.159
  295TIP3   OH222443   1.594   6.643   6.205
  295TIP3    H122444   1.507   6.668   6.172
  295TIP3    H222445   1.654   6.703   6.161
  296TIP3   OH222446   0.967   6.699   6.304
  296TIP3    H122447   0.926   6.772   6.259
  296TIP3    H222448   0.901   6.629   6.301
  297TIP3   OH222449   1.460   0.440   6.308
  297TIP3    H122450   1.540   0.493   6.301
  297TIP3    H222451   1.491   0.350   6.306
  298TIP3   OH222452   6.498   0.429   6.211
  298TIP3    H122453   6.559   0.376   6.262
  298TIP3    H222454   6.499   0.389   6.124
  299TIP3   OH222455   6.671   0.214   6.249
  299TIP3    H122456   6.766   0.219   6.242
  299TIP3    H222457   6.643   0.164   6.171
  300TIP3   OH222458   6.187   0.082   6.414
  300TIP3    H122459   6.203   7.292   6.424
  300TIP3    H222460   6.145   0.090   6.328
  301TIP3   OH222461   4.165   3.739   2.256
  301TIP3    H122462   4.248   3.756   2.211
  301TIP3    H222463   4.098   3.765   2.193
  302TIP3   OH222464   3.929   3.782   2.106
  302TIP3    H122465   3.872   3.854   2.078
  302TIP3    H222466   3.896   3.758   2.193
  303TIP3   OH222467   4.129   4.173   2.347
  303TIP3    H122468   4.059   4.238   2.348
  303TIP3    H222469   4.114   4.122   2.268
  304TIP3   OH222470   4.325   4.982   2.208
  304TIP3    H122471   4.332   5.036   2.129
  304TIP3    H222472   4.267   5.032   2.266
  305TIP3   OH222473   3.865   5.195   2.254
  305TIP3    H122474   3.800   5.128   2.230
  305TIP3    H222475   3.912   5.213   2.173
  306TIP3   OH222476   4.036   5.230   2.033
  306TIP3    H122477   4.127   5.256   2.022
  306TIP3    H222478   4.039   5.135   2.042
  307TIP3   OH222479   4.034   4.961   2.085
  307TIP3    H122480   4.105   4.932   2.142
  307TIP3    H222481   4.010   4.883   2.034
  308TIP3   OH222482   3.422   5.178   2.135
  308TIP3    H122483   3.380   5.263   2.129
  308TIP3    H222484   3.360   5.123   2.183
  309TIP3   OH222485   3.258   5.039   2.299
  309TIP3    H122486   3.190   4.993   2.250
  309TIP3    H222487   3.224   5.042   2.389
  310TIP3   OH222488   3.656   5.015   2.170
  310TIP3    H122489   3.580   5.073   2.174
  310TIP3    H222490   3.674   5.004   2.077
  311TIP3   OH222491   3.752   5.426   2.365
  311TIP3    H122492   3.661   5.405   2.386
  311TIP3    H222493   3.790   5.343   2.337
  312TIP3   OH222494   2.783   5.658   2.268
  312TIP3    H122495   2.766   5.575   2.312
  312TIP3    H222496   2.875   5.653   2.242
  313TIP3   OH222497   2.464   5.450   2.226
  313TIP3    H122498   2.462   5.375   2.167
  313TIP3    H222499   2.488   5.524   2.170
  314TIP3   OH222500   5.052   1.939   2.106
  314TIP3    H122501   5.132   1.922   2.057
  314TIP3    H222502   5.081   1.951   2.196
  315TIP3   OH222503   5.214   1.674   2.250
  315TIP3    H122504   5.210   1.641   2.161
  315TIP3    H222505   5.284   1.623   2.292
  316TIP3   OH222506   5.009   1.595   2.418
  316TIP3    H122507   5.075   1.622   2.354
  316TIP3    H222508   4.936   1.563   2.364
  317TIP3   OH222509   6.084   3.986   2.226
  317TIP3    H122510   6.045   4.064   2.265
  317TIP3    H222511   6.160   3.967   2.281
  318TIP3   OH222512   4.802   1.546   2.231
  318TIP3    H122513   4.794   1.505   2.145
  318TIP3    H222514   4.789   1.640   2.214
  319TIP3   OH222515   4.694   1.108   2.186
  319TIP3    H122516   4.681   1.172   2.256
  319TIP3    H222517   4.611   1.060   2.181
  320TIP3   OH222518   4.444   1.292   2.168
  320TIP3    H122519   4.414   1.204   2.193
  320TIP3    H222520   4.494   1.323   2.244
  321TIP3   OH222521   5.974   2.156   2.068
  321TIP3    H122522   5.949   2.187   2.155
  321TIP3    H222523   6.070   2.157   2.070
  322TIP3   OH222524   5.731   2.352   2.236
  322TIP3    H122525   5.744   2.440   2.199
  322TIP3    H222526   5.807   2.338   2.292
  323TIP3   OH222527   4.281   0.487   2.282
  323TIP3    H122528   4.214   0.418   2.274
  323TIP3    H222529   4.232   0.569   2.270
  324TIP3   OH222530   4.424   1.022   2.264
  324TIP3    H122531   4.348   0.965   2.268
  324TIP3    H222532   4.474   1.001   2.343
  325TIP3   OH222533   4.121   0.975   1.995
  325TIP3    H122534   4.077   0.995   2.077
  325TIP3    H222535   4.167   0.893   2.011
  326TIP3   OH222536   4.428   6.640   2.130
  326TIP3    H122537   4.339   6.673   2.142
  326TIP3    H222538   4.458   6.618   2.218
  327TIP3   OH222539   4.285   6.377   2.319
  327TIP3    H122540   4.198   6.416   2.318
  327TIP3    H222541   4.299   6.344   2.231
  328TIP3   OH222542   6.533   2.720   2.068
  328TIP3    H122543   6.439   2.737   2.073
  328TIP3    H222544   6.557   2.691   2.157
  329TIP3   OH222545   6.233   2.646   2.197
  329TIP3    H122546   6.205   2.559   2.167
  329TIP3    H222547   6.155   2.701   2.184
  330TIP3   OH222548   6.493   2.955   2.438
  330TIP3    H122549   6.498   2.866   2.401
  330TIP3    H222550   6.550   3.007   2.382
  331TIP3   OH222551   1.553   1.112   2.173
  331TIP3    H122552   1.590   1.151   2.252
  331TIP3    H222553   1.624   1.058   2.137
  332TIP3   OH222554   6.405   4.893   2.185
  332TIP3    H122555   6.420   4.966   2.246
  332TIP3    H222556   6.409   4.815   2.241
  333TIP3   OH222557   1.351   5.697   2.278
  333TIP3    H122558   1.378   5.788   2.293
  333TIP3    H222559   1.428   5.645   2.300
  334TIP3   OH222560   0.949   5.902   2.169
  334TIP3    H122561   0.862   5.878   2.202
  334TIP3    H222562   1.009   5.869   2.236
  335TIP3   OH222563   1.038   1.697   2.252
  335TIP3    H122564   1.127   1.725   2.231
  335TIP3    H222565   0.984   1.775   2.237
  336TIP3   OH222566   0.788   1.289   2.215
  336TIP3    H122567   0.841   1.348   2.269
  336TIP3    H222568   0.773   1.213   2.271
  337TIP3   OH222569   6.927   3.458   2.134
  337TIP3    H122570   6.913   3.553   2.126
  337TIP3    H222571   6.895   3.437   2.222
  338TIP3   OH222572   7.225   3.079   2.234
  338TIP3    H122573   0.015   3.102   2.239
  338TIP3    H222574   7.224   2.986   2.215
  339TIP3   OH222575   6.736   3.139   2.345
  339TIP3    H122576   6.684   3.186   2.410
  339TIP3    H222577   6.827   3.166   2.364
  340TIP3   OH222578   4.230   7.072   2.313
  340TIP3    H122579   4.162   7.020   2.355
  340TIP3    H222580   4.219   7.054   2.219
  341TIP3   OH222581   4.151   0.224   2.230
  341TIP3    H122582   4.195   0.157   2.283
  341TIP3    H222583   4.059   0.220   2.257
  342TIP3   OH222584   1.910   6.774   2.125
  342TIP3    H122585   2.003   6.788   2.138
  342TIP3    H222586   1.870   6.798   2.209
  343TIP3   OH222587   1.970   7.193   2.174
  343TIP3    H122588   2.040   7.139   2.211
  343TIP3    H222589   1.898   7.184   2.236
  344TIP3   OH222590   4.975   6.754   2.287
  344TIP3    H122591   4.957   6.753   2.381
  344TIP3    H222592   4.891   6.776   2.246
  345TIP3   OH222593   5.171   6.912   2.166
  345TIP3    H122594   5.227   6.858   2.109
  345TIP3    H222595   5.105   6.852   2.198
  346TIP3   OH222596   5.156   7.190   2.080
  346TIP3    H122597   5.126   7.210   2.168
  346TIP3    H222598   5.150   7.094   2.073
  347TIP3   OH222599   7.236   2.754   2.297
  347TIP3    H122600   7.151   2.754   2.252
  347TIP3    H222601   7.214   2.778   2.387
  348TIP3   OH222602   5.650   7.015   2.203
  348TIP3    H122603   5.709   6.963   2.259
  348TIP3    H222604   5.576   6.958   2.186
  349TIP3   OH222605   6.832   1.136   2.160
  349TIP3    H122606   6.891   1.151   2.233
  349TIP3    H222607   6.744   1.137   2.199
  350TIP3   OH222608   7.026   1.440   2.159
  350TIP3    H122609   7.077   1.385   2.218
  350TIP3    H222610   6.935   1.422   2.182
  351TIP3   OH222611   6.581   1.144   2.272
  351TIP3    H122612   6.525   1.110   2.201
  351TIP3    H222613   6.587   1.071   2.334
  352TIP3   OH222614   1.428   7.231   2.093
  352TIP3    H122615   1.394   7.242   2.182
  352TIP3    H222616   1.519   7.261   2.098
  353TIP3   OH222617   1.208   7.043   2.287
  353TIP3    H122618   1.164   6.972   2.334
  353TIP3    H222619   1.138   7.092   2.244
  354TIP3   OH222620   0.504   7.189   2.164
  354TIP3    H122621   0.596   7.214   2.151
  354TIP3    H222622   0.481   7.226   2.249
  355TIP3   OH222623   0.600   0.405   2.256
  355TIP3    H122624   0.511   0.404   2.221
  355TIP3    H222625   0.610   0.493   2.293
  356TIP3   OH222626   7.081   7.277   2.105
  356TIP3    H122627   7.165   0.006   2.138
  356TIP3    H222628   7.019   7.293   2.177
  357TIP3   OH222629   1.158   1.007   6.949
  357TIP3    H122630   1.162   1.086   6.896
  357TIP3    H222631   1.088   0.955   6.909
  358TIP3   OH222632   1.079   0.929   7.307
  358TIP3    H122633   1.110   0.880   7.383
  358TIP3    H222634   1.039   0.863   7.250
  359TIP3   OH222635   0.315   0.867   7.423
  359TIP3    H122636   0.314   0.791   7.481
  359TIP3    H222637   0.408   0.877   7.399
  360TIP3   OH222638   1.440   1.256   7.145
  360TIP3    H122639   1.413   1.174   7.187
  360TIP3    H222640   1.466   1.312   7.217
  361TIP3   OH222641   0.373   1.336   7.271
  361TIP3    H122642   0.375   1.249   7.230
  361TIP3    H222643   0.429   1.328   7.348
  362TIP3   OH222644   0.088   0.765   6.740
  362TIP3    H122645   0.055   0.838   6.688
  362TIP3    H222646   0.021   0.753   6.808
  363TIP3   OH222647   0.112   0.926   7.082
  363TIP3    H122648   0.173   0.853   7.095
  363TIP3    H222649   0.156   0.983   7.018
  364TIP3   OH222650   1.188   1.713   7.164
  364TIP3    H122651   1.228   1.670   7.088
  364TIP3    H222652   1.173   1.641   7.226
  365TIP3   OH222653   0.949   1.166   7.380
  365TIP3    H122654   0.973   1.093   7.324
  365TIP3    H222655   1.032   1.193   7.421
  366TIP3   OH222656   1.834   0.320   7.423
  366TIP3    H122657   1.842   0.393   7.485
  366TIP3    H222658   1.892   0.343   7.351
  367TIP3   OH222659   1.225   0.604   7.326
  367TIP3    H122660   1.247   0.512   7.340
  367TIP3    H222661   1.218   0.613   7.231
  368TIP3   OH222662   0.569   0.420   7.048
  368TIP3    H122663   0.585   0.505   7.008
  368TIP3    H222664   0.513   0.373   6.986
  369TIP3   OH222665   1.351   0.455   6.911
  369TIP3    H122666   1.396   0.420   6.988
  369TIP3    H222667   1.422   0.483   6.852
  370TIP3   OH222668   0.238   0.682   7.140
  370TIP3    H122669   0.303   0.634   7.191
  370TIP3    H222670   0.255   0.657   7.049
  371TIP3   OH222671   0.704   0.805   7.112
  371TIP3    H122672   0.792   0.776   7.135
  371TIP3    H222673   0.673   0.742   7.047
  372TIP3   OH222674   1.849   0.499   7.635
  372TIP3    H122675   1.769   0.548   7.618
  372TIP3    H222676   1.861   0.505   7.730
  373TIP3   OH222677   0.437   0.326   7.484
  373TIP3    H122678   0.411   0.385   7.413
  373TIP3    H222679   0.367   0.336   7.549
  374TIP3   OH222680   1.139   1.220   6.768
  374TIP3    H122681   1.061   1.206   6.714
  374TIP3    H222682   1.135   1.312   6.793
  375TIP3   OH222683   0.695   1.110   7.463
  375TIP3    H122684   0.640   1.185   7.484
  375TIP3    H222685   0.775   1.148   7.427
  376TIP3   OH222686   1.456   0.389   7.152
  376TIP3    H122687   1.400   0.370   7.228
  376TIP3    H222688   1.527   0.443   7.188
  377TIP3   OH222689   0.421   0.503   7.264
  377TIP3    H122690   0.480   0.553   7.321
  377TIP3    H222691   0.478   0.468   7.195
  378TIP3   OH222692   0.529   1.323   7.547
  378TIP3    H122693   0.548   1.417   7.549
  378TIP3    H222694   0.446   1.314   7.593
  379TIP3   OH222695   0.131   1.309   6.711
  379TIP3    H122696   0.126   1.284   6.618
  379TIP3    H222697   0.216   1.353   6.719
  380TIP3   OH222698   1.476   1.458   7.346
  380TIP3    H122699   1.382   1.471   7.361
  380TIP3    H222700   1.508   1.542   7.313
  381TIP3   OH222701   1.584   0.267   7.530
  381TIP3    H122702   1.510   0.251   7.472
  381TIP3    H222703   1.658   0.283   7.471
  382TIP3   OH222704   0.785   0.021   7.238
  382TIP3    H122705   0.813   7.296   7.325
  382TIP3    H222706   0.703   0.068   7.253
  383TIP3   OH222707   1.329   1.604   6.956
  383TIP3    H122708   1.353   1.515   6.932
  383TIP3    H222709   1.412   1.652   6.959
  384TIP3   OH222710   1.392   1.347   6.891
  384TIP3    H122711   1.361   1.269   6.844
  384TIP3    H222712   1.420   1.314   6.976
  385TIP3   OH222713   1.597   1.234   7.682
  385TIP3    H122714   1.597   1.174   7.607
  385TIP3    H222715   1.618   1.319   7.644
  386TIP3   OH222716   1.776   0.894   7.520
  386TIP3    H122717   1.702   0.954   7.506
  386TIP3    H222718   1.834   0.911   7.445
  387TIP3   OH222719   1.376   0.760   7.707
  387TIP3    H122720   1.370   0.831   7.770
  387TIP3    H222721   1.310   0.780   7.641
  388TIP3   OH222722   0.526   0.967   6.962
  388TIP3    H122723   0.580   1.035   6.921
  388TIP3    H222724   0.589   0.909   7.005
  389TIP3   OH222725   0.573   0.898   7.337
  389TIP3    H122726   0.623   0.875   7.259
  389TIP3    H222727   0.621   0.972   7.375
  390TIP3   OH222728   1.210   1.465   7.442
  390TIP3    H122729   1.219   1.473   7.537
  390TIP3    H222730   1.200   1.371   7.426
  391TIP3   OH222731   0.697   1.329   7.784
  391TIP3    H122732   0.635   1.387   7.828
  391TIP3    H222733   0.654   1.305   7.702
  392TIP3   OH222734   0.387   0.943   7.744
  392TIP3    H122735   0.388   1.015   7.807
  392TIP3    H222736   0.334   0.975   7.671
  393TIP3   OH222737   0.509   1.517   7.871
  393TIP3    H122738   0.520   1.550   7.781
  393TIP3    H222739   0.414   1.515   7.884
  394TIP3   OH222740   1.668   0.082   6.511
  394TIP3    H122741   1.609   0.032   6.455
  394TIP3    H222742   1.721   0.133   6.450
  395TIP3   OH222743   0.380   1.010   6.715
  395TIP3    H122744   0.358   1.097   6.747
  395TIP3    H222745   0.415   0.964   6.791
  396TIP3   OH222746   0.194   1.102   7.601
  396TIP3    H122747   0.160   1.090   7.512
  396TIP3    H222748   0.138   1.047   7.655
  397TIP3   OH222749   0.126   1.467   7.245
  397TIP3    H122750   0.208   1.418   7.241
  397TIP3    H222751   0.097   1.458   7.335
  398TIP3   OH222752   1.862   1.513   7.888
  398TIP3    H122753   1.850   1.418   7.880
  398TIP3    H222754   1.780   1.543   7.928
  399TIP3   OH222755   0.937   1.478   7.788
  399TIP3    H122756   0.912   1.570   7.793
  399TIP3    H222757   0.857   1.432   7.766
  400TIP3   OH222758   1.032   1.827   6.732
  400TIP3    H122759   1.003   1.813   6.642
  400TIP3    H222760   0.993   1.911   6.757
  401TIP3   OH222761   0.374   1.698   6.915
  401TIP3    H122762   0.390   1.655   6.999
  401TIP3    H222763   0.361   1.627   6.853
  402TIP3   OH222764   1.292   1.751   6.449
  402TIP3    H122765   1.359   1.692   6.416
  402TIP3    H222766   1.299   1.746   6.544
  403TIP3   OH222767   1.290   1.752   6.723
  403TIP3    H122768   1.197   1.772   6.729
  403TIP3    H222769   1.306   1.694   6.798
  404TIP3   OH222770   1.552   0.648   7.904
  404TIP3    H122771   1.493   0.672   7.834
  404TIP3    H222772   1.566   0.554   7.894
  405TIP3   OH222773   0.305   1.324   7.713
  405TIP3    H122774   0.335   1.277   7.791
  405TIP3    H222775   0.251   1.260   7.667
  406TIP3   OH222776   0.525   0.113   7.316
  406TIP3    H122777   0.439   0.119   7.274
  406TIP3    H222778   0.523   0.178   7.385
  407TIP3   OH222779   1.039   0.088   7.644
  407TIP3    H122780   1.123   0.052   7.614
  407TIP3    H222781   1.011   0.029   7.714
  408TIP3   OH222782   1.318   0.485   7.731
  408TIP3    H122783   1.246   0.476   7.793
  408TIP3    H222784   1.325   0.579   7.716
  409TIP3   OH222785   0.567   0.646   7.449
  409TIP3    H122786   0.499   0.649   7.516
  409TIP3    H222787   0.575   0.736   7.419
  410TIP3   OH222788   0.575   0.657   6.918
  410TIP3    H122789   0.480   0.660   6.905
  410TIP3    H222790   0.612   0.656   6.830
  411TIP3   OH222791   1.114   0.688   6.767
  411TIP3    H122792   1.065   0.732   6.698
  411TIP3    H222793   1.196   0.661   6.725
  412TIP3   OH222794   1.023   0.708   7.933
  412TIP3    H122795   0.972   0.634   7.963
  412TIP3    H222796   1.112   0.690   7.964
  413TIP3   OH222797   1.200   0.637   7.050
  413TIP3    H122798   1.167   0.690   6.978
  413TIP3    H222799   1.246   0.565   7.008
  414TIP3   OH222800   0.339   0.655   7.608
  414TIP3    H122801   0.330   0.710   7.685
  414TIP3    H222802   0.296   0.572   7.632
  415TIP3   OH222803   0.052   0.411   6.969
  415TIP3    H122804   0.101   0.393   7.049
  415TIP3    H222805   0.061   0.331   6.917
  416TIP3   OH222806   0.163   0.475   6.605
  416TIP3    H122807   0.258   0.473   6.614
  416TIP3    H222808   0.147   0.486   6.511
  417TIP3   OH222809   1.156   0.771   7.527
  417TIP3    H122810   1.191   0.715   7.457
  417TIP3    H222811   1.094   0.716   7.574
  418TIP3   OH222812   0.848   0.382   7.002
  418TIP3    H122813   0.761   0.395   7.039
  418TIP3    H222814   0.898   0.339   7.071
  419TIP3   OH222815   0.301   0.607   6.880
  419TIP3    H122816   0.233   0.643   6.823
  419TIP3    H222817   0.301   0.513   6.859
  420TIP3   OH222818   0.658   0.641   6.661
  420TIP3    H122819   0.740   0.592   6.668
  420TIP3    H222820   0.651   0.663   6.568
  421TIP3   OH222821   1.271   0.328   7.346
  421TIP3    H122822   1.211   0.323   7.420
  421TIP3    H222823   1.250   0.252   7.293
  422TIP3   OH222824   1.617   1.885   7.986
  422TIP3    H122825   1.637   1.925   7.901
  422TIP3    H222826   1.688   1.913   8.044
  423TIP3   OH222827   0.364   1.154   7.929
  423TIP3    H122828   0.416   1.144   8.009
  423TIP3    H222829   0.274   1.160   7.959
  424TIP3   OH222830   0.946   0.700   7.199
  424TIP3    H122831   1.018   0.654   7.155
  424TIP3    H222832   0.918   0.641   7.269
  425TIP3   OH222833   0.410   0.319   6.841
  425TIP3    H122834   0.373   0.236   6.871
  425TIP3    H222835   0.472   0.295   6.772
  426TIP3   OH222836   0.832   0.567   7.420
  426TIP3    H122837   0.745   0.601   7.439
  426TIP3    H222838   0.881   0.581   7.501
  427TIP3   OH222839   0.920   1.180   6.603
  427TIP3    H122840   0.892   1.230   6.527
  427TIP3    H222841   0.858   1.107   6.608
  428TIP3   OH222842   1.576   1.080   7.455
  428TIP3    H122843   1.641   1.129   7.405
  428TIP3    H222844   1.508   1.058   7.391
  429TIP3   OH222845   1.026   1.193   7.854
  429TIP3    H122846   1.061   1.115   7.898
  429TIP3    H222847   1.006   1.163   7.765
  430TIP3   OH222848   1.337   0.629   6.608
  430TIP3    H122849   1.418   0.608   6.656
  430TIP3    H222850   1.356   0.604   6.518
  431TIP3   OH222851   0.393   1.078   7.177
  431TIP3    H122852   0.429   1.048   7.094
  431TIP3    H222853   0.424   1.014   7.242
  432TIP3   OH222854   0.061   0.923   7.756
  432TIP3    H122855   0.092   0.893   7.841
  432TIP3    H222856   0.027   0.845   7.713
  433TIP3   OH222857   0.806   0.879   7.943
  433TIP3    H122858   0.745   0.843   7.878
  433TIP3    H222859   0.889   0.834   7.925
  434TIP3   OH222860   1.213   1.455   7.722
  434TIP3    H122861   1.117   1.455   7.726
  434TIP3    H222862   1.241   1.454   7.813
  435TIP3   OH222863   1.770   0.620   6.589
  435TIP3    H122864   1.740   0.600   6.500
  435TIP3    H222865   1.778   0.716   6.591
  436TIP3   OH222866   1.817   1.228   7.844
  436TIP3    H122867   1.730   1.240   7.806
  436TIP3    H222868   1.875   1.214   7.769
  437TIP3   OH222869   1.702   1.480   6.628
  437TIP3    H122870   1.654   1.406   6.665
  437TIP3    H222871   1.789   1.445   6.609
  438TIP3   OH222872   1.355   1.014   7.278
  438TIP3    H122873   1.263   1.000   7.257
  438TIP3    H222874   1.401   0.942   7.236
  439TIP3   OH222875   0.848   1.617   7.491
  439TIP3    H122876   0.888   1.704   7.484
  439TIP3    H222877   0.921   1.556   7.479
  440TIP3   OH222878   1.210   1.185   7.481
  440TIP3    H122879   1.249   1.163   7.565
  440TIP3    H222880   1.253   1.126   7.418
  441TIP3   OH222881   1.442   1.642   7.710
  441TIP3    H122882   1.354   1.606   7.697
  441TIP3    H222883   1.445   1.719   7.654
  442TIP3   OH222884   1.813   1.809   6.361
  442TIP3    H122885   1.891   1.822   6.414
  442TIP3    H222886   1.742   1.848   6.411
  443TIP3   OH222887   0.232   0.376   7.679
  443TIP3    H122888   0.137   0.383   7.683
  443TIP3    H222889   0.252   0.297   7.730
  444TIP3   OH222890   0.235   1.603   7.521
  444TIP3    H122891   0.213   1.530   7.578
  444TIP3    H222892   0.250   1.676   7.581
  445TIP3   OH222893   1.118   0.348   7.581
  445TIP3    H122894   1.197   0.363   7.632
  445TIP3    H222895   1.086   0.262   7.608
  446TIP3   OH222896   1.200   0.323   6.715
  446TIP3    H122897   1.219   0.371   6.634
  446TIP3    H222898   1.255   0.364   6.781
  447TIP3   OH222899   0.886   0.509   6.757
  447TIP3    H122900   0.972   0.551   6.766
  447TIP3    H222901   0.871   0.468   6.842
  448TIP3   OH222902   0.991   0.587   7.649
  448TIP3    H122903   1.001   0.594   7.744
  448TIP3    H222904   1.029   0.502   7.627
  449TIP3   OH222905   0.999   0.191   6.847
  449TIP3    H122906   0.968   0.269   6.894
  449TIP3    H222907   1.067   0.225   6.789
  450TIP3   OH222908   1.568   0.390   7.780
  450TIP3    H122909   1.475   0.409   7.773
  450TIP3    H222910   1.592   0.354   7.695
  451TIP3   OH222911   1.444   0.772   7.160
  451TIP3    H122912   1.365   0.727   7.131
  451TIP3    H222913   1.493   0.706   7.210
  452TIP3   OH222914   1.572   1.717   7.316
  452TIP3    H122915   1.554   1.789   7.256
  452TIP3    H222916   1.666   1.721   7.332
  453TIP3   OH222917   0.275   0.124   7.200
  453TIP3    H122918   0.288   0.111   7.106
  453TIP3    H222919   0.233   0.043   7.229
  454TIP3   OH222920   0.189   1.801   8.006
  454TIP3    H122921   0.235   1.798   8.090
  454TIP3    H222922   0.198   1.713   7.970
  455TIP3   OH222923   0.558   1.631   8.121
  455TIP3    H122924   0.635   1.585   8.155
  455TIP3    H222925   0.544   1.594   8.034
  456TIP3   OH222926   1.257   1.432   7.989
  456TIP3    H122927   1.252   1.350   8.039
  456TIP3    H222928   1.328   1.480   8.031
  457TIP3   OH222929   0.093   1.161   7.991
  457TIP3    H122930   0.095   1.065   7.986
  457TIP3    H222931   0.039   1.188   7.916
  458TIP3   OH222932   0.741   1.144   7.993
  458TIP3    H122933   0.735   1.189   7.909
  458TIP3    H222934   0.775   1.057   7.973
  459TIP3   OH222935   1.335   1.182   7.739
  459TIP3    H122936   1.428   1.199   7.724
  459TIP3    H222937   1.294   1.269   7.740
  460TIP3   OH222938   0.185   0.889   8.000
  460TIP3    H122939   0.272   0.860   7.974
  460TIP3    H222940   0.189   0.894   8.096
  461TIP3   OH222941   0.732   0.979   6.582
  461TIP3    H122942   0.685   0.898   6.603
  461TIP3    H222943   0.750   0.972   6.488
  462TIP3   OH222944   0.616   0.787   7.756
  462TIP3    H122945   0.538   0.841   7.748
  462TIP3    H222946   0.678   0.823   7.693
  463TIP3   OH222947   1.130   0.991   8.030
  463TIP3    H122948   1.213   0.959   7.996
  463TIP3    H222949   1.096   0.919   8.084
  464TIP3   OH222950   0.654   0.523   7.821
  464TIP3    H122951   0.669   0.467   7.745
  464TIP3    H222952   0.647   0.611   7.786
  465TIP3   OH222953   0.688   0.374   7.590
  465TIP3    H122954   0.745   0.406   7.520
  465TIP3    H222955   0.603   0.361   7.548
  466TIP3   OH222956   0.808   0.899   7.602
  466TIP3    H122957   0.893   0.880   7.564
  466TIP3    H222958   0.776   0.974   7.553
  467TIP3   OH222959   1.264   0.649   8.075
  467TIP3    H122960   1.275   0.554   8.079
  467TIP3    H222961   1.354   0.683   8.077
  468TIP3   OH222962   1.393   0.967   7.908
  468TIP3    H122963   1.369   1.043   7.855
  468TIP3    H222964   1.489   0.968   7.909
  469TIP3   OH222965   0.479   0.564   8.028
  469TIP3    H122966   0.404   0.509   8.006
  469TIP3    H222967   0.536   0.558   7.951
  470TIP3   OH222968   0.700   0.129   7.720
  470TIP3    H122969   0.704   0.216   7.680
  470TIP3    H222970   0.741   0.071   7.655
  471TIP3   OH222971   0.863   0.493   8.002
  471TIP3    H122972   0.825   0.452   8.079
  471TIP3    H222973   0.792   0.495   7.938
  472TIP3   OH222974   1.114   0.430   7.899
  472TIP3    H122975   1.027   0.428   7.940
  472TIP3    H222976   1.172   0.394   7.966
  473TIP3   OH222977   1.303   0.369   8.090
  473TIP3    H122978   1.310   0.275   8.074
  473TIP3    H222979   1.292   0.376   8.185
  474TIP3   OH222980   0.271   0.388   8.012
  474TIP3    H122981   0.263   0.320   7.945
  474TIP3    H222982   0.280   0.340   8.094
  475TIP3   OH222983   0.782   0.034   7.960
  475TIP3    H122984   0.849   7.275   7.932
  475TIP3    H222985   0.748   0.071   7.879
  476TIP3   OH222986   0.840   0.186   8.203
  476TIP3    H122987   0.859   0.121   8.135
  476TIP3    H222988   0.771   0.240   8.165
  477TIP3   OH222989   0.791   1.960   6.413
  477TIP3    H122990   0.873   1.912   6.421
  477TIP3    H222991   0.807   2.042   6.460
  478TIP3   OH222992   0.170   1.328   6.345
  478TIP3    H122993   0.264   1.346   6.344
  478TIP3    H222994   0.163   1.234   6.359
  479TIP3   OH222995   0.052   1.871   6.864
  479TIP3    H122996   0.049   1.825   6.780
  479TIP3    H222997   0.069   1.803   6.928
  480TIP3   OH222998   0.071   1.682   7.068
  480TIP3    H122999   0.075   1.589   7.093
  480TIP3    H223000   0.130   1.726   7.129
  481TIP3   OH223001   1.831   1.755   7.398
  481TIP3    H123002   1.849   1.742   7.491
  481TIP3    H223003   1.918   1.767   7.359
  482TIP3   OH223004   1.792   1.690   7.674
  482TIP3    H123005   1.745   1.621   7.627
  482TIP3    H223006   1.836   1.644   7.746
  483TIP3   OH223007   1.600   1.288   8.181
  483TIP3    H123008   1.529   1.301   8.244
  483TIP3    H223009   1.660   1.360   8.198
  484TIP3   OH223010   1.744   1.155   6.672
  484TIP3    H123011   1.826   1.204   6.661
  484TIP3    H223012   1.758   1.103   6.751
  485TIP3   OH223013   1.791   0.980   6.883
  485TIP3    H123014   1.719   0.916   6.885
  485TIP3    H223015   1.844   0.960   6.959
  486TIP3   OH223016   1.810   1.204   7.373
  486TIP3    H123017   1.863   1.134   7.335
  486TIP3    H223018   1.845   1.285   7.335
  487TIP3   OH223019   1.628   1.485   7.578
  487TIP3    H123020   1.559   1.535   7.621
  487TIP3    H223021   1.596   1.471   7.489
  488TIP3   OH223022   1.767   0.893   6.570
  488TIP3    H123023   1.728   0.889   6.482
  488TIP3    H223024   1.762   0.985   6.595
  489TIP3   OH223025   1.596   0.788   6.917
  489TIP3    H123026   1.583   0.702   6.876
  489TIP3    H223027   1.545   0.784   6.998
  490TIP3   OH223028   0.098   1.014   7.349
  490TIP3    H123029   0.092   1.019   7.254
  490TIP3    H223030   0.182   0.972   7.366
  491TIP3   OH223031   1.673   0.982   7.923
  491TIP3    H123032   1.726   0.905   7.903
  491TIP3    H223033   1.722   1.055   7.884
  492TIP3   OH223034   1.806   0.746   7.877
  492TIP3    H123035   1.717   0.712   7.878
  492TIP3    H223036   1.861   0.671   7.898
  493TIP3   OH223037   1.563   0.542   6.751
  493TIP3    H123038   1.578   0.448   6.758
  493TIP3    H223039   1.637   0.574   6.699
  494TIP3   OH223040   1.598   0.583   7.302
  494TIP3    H123041   1.690   0.599   7.281
  494TIP3    H223042   1.593   0.589   7.397
  495TIP3   OH223043   1.628   0.664   7.576
  495TIP3    H123044   1.546   0.698   7.610
  495TIP3    H223045   1.681   0.742   7.557
  496TIP3   OH223046   0.044   0.545   7.976
  496TIP3    H123047   0.120   0.497   7.943
  496TIP3    H223048   0.001   0.485   8.036
  497TIP3   OH223049   1.895   0.092   8.099
  497TIP3    H123050   1.893   0.004   8.063
  497TIP3    H223051   1.862   0.148   8.028
  498TIP3   OH223052   1.568   0.272   6.785
  498TIP3    H123053   1.619   0.227   6.852
  498TIP3    H223054   1.516   0.203   6.744
  499TIP3   OH223055   0.181   0.376   7.212
  499TIP3    H123056   0.206   0.283   7.218
  499TIP3    H223057   0.261   0.423   7.231
  500TIP3   OH223058   0.047   0.735   7.347
  500TIP3    H123059   0.120   0.722   7.286
  500TIP3    H223060   0.039   0.830   7.354
  501TIP3   OH223061   1.781   0.249   7.898
  501TIP3    H123062   1.703   0.304   7.895
  501TIP3    H223063   1.773   0.191   7.823
  502TIP3   OH223064   1.859   0.213   6.346
  502TIP3    H123065   1.931   0.156   6.374
  502TIP3    H223066   1.859   0.284   6.411
  503TIP3   OH223067   0.057   0.224   6.757
  503TIP3    H123068   0.067   0.295   6.693
  503TIP3    H223069   0.105   0.151   6.719
  504TIP3   OH223070   1.543   1.771   6.938
  504TIP3    H123071   1.595   1.756   6.859
  504TIP3    H223072   1.589   1.842   6.983
  505TIP3   OH223073   0.019   0.090   7.594
  505TIP3    H123074   0.014   0.157   7.662
  505TIP3    H223075   7.282   0.131   7.517
  506TIP3   OH223076   0.233   1.524   7.951
  506TIP3    H123077   0.183   1.476   7.884
  506TIP3    H223078   0.198   1.492   8.034
  507TIP3   OH223079   0.597   1.584   7.607
  507TIP3    H123080   0.558   1.668   7.580
  507TIP3    H223081   0.685   1.587   7.570
  508TIP3   OH223082   0.948   1.728   7.919
  508TIP3    H123083   0.968   1.678   7.998
  508TIP3    H223084   1.031   1.766   7.892
  509TIP3   OH223085   1.188   1.853   7.884
  509TIP3    H123086   1.221   1.828   7.798
  509TIP3    H223087   1.264   1.847   7.942
  510TIP3   OH223088   1.700   0.078   7.691
  510TIP3    H123089   1.652   0.143   7.640
  510TIP3    H223090   1.674   7.297   7.654
  511TIP3   OH223091   0.280   1.852   7.643
  511TIP3    H123092   0.205   1.896   7.604
  511TIP3    H223093   0.301   1.904   7.721
  512TIP3   OH223094   0.533   1.842   7.534
  512TIP3    H123095   0.442   1.847   7.560
  512TIP3    H223096   0.538   1.890   7.451
  513TIP3   OH223097   0.978   1.861   7.436
  513TIP3    H123098   0.915   1.868   7.364
  513TIP3    H223099   1.021   1.946   7.440
  514TIP3   OH223100   1.195   1.802   7.608
  514TIP3    H123101   1.135   1.787   7.535
  514TIP3    H223102   1.279   1.820   7.566
  515TIP3   OH223103   1.456   1.850   7.526
  515TIP3    H123104   1.478   1.942   7.508
  515TIP3    H223105   1.492   1.802   7.452
  516TIP3   OH223106   0.243   1.746   7.284
  516TIP3    H123107   0.237   1.701   7.369
  516TIP3    H223108   0.308   1.695   7.235
  517TIP3   OH223109   0.429   1.586   7.164
  517TIP3    H123110   0.406   1.497   7.191
  517TIP3    H223111   0.521   1.595   7.187
  518TIP3   OH223112   0.692   1.587   7.236
  518TIP3    H123113   0.749   1.603   7.161
  518TIP3    H223114   0.746   1.608   7.312
  519TIP3   OH223115   0.984   0.221   7.174
  519TIP3    H123116   0.936   0.143   7.201
  519TIP3    H223117   1.073   0.190   7.156
  520TIP3   OH223118   1.564   0.035   7.180
  520TIP3    H123119   1.626   0.052   7.109
  520TIP3    H223120   1.495   0.100   7.167
  521TIP3   OH223121   1.724   0.133   6.971
  521TIP3    H123122   1.781   0.086   6.910
  521TIP3    H223123   1.775   0.209   6.998
  522TIP3   OH223124   0.330   0.072   6.936
  522TIP3    H123125   0.268   0.020   6.885
  522TIP3    H223126   0.390   0.007   6.974
  523TIP3   OH223127   0.265   7.297   6.533
  523TIP3    H123128   0.334   7.233   6.550
  523TIP3    H223129   0.212   7.257   6.464
  524TIP3   OH223130   0.766   0.064   6.922
  524TIP3    H123131   0.841   0.091   6.869
  524TIP3    H223132   0.724   0.146   6.948
  525TIP3   OH223133   1.253   0.153   7.120
  525TIP3    H123134   1.299   0.217   7.066
  525TIP3    H223135   1.269   0.069   7.076
  526TIP3   OH223136   1.382   0.078   6.700
  526TIP3    H123137   1.307   0.125   6.663
  526TIP3    H223138   1.410   0.019   6.631
  527TIP3   OH223139   0.028   1.736   6.628
  527TIP3    H123140   7.280   1.723   6.549
  527TIP3    H223141   0.090   1.805   6.605
  528TIP3   OH223142   0.765   0.222   6.607
  528TIP3    H123143   0.823   0.176   6.546
  528TIP3    H223144   0.817   0.294   6.641
  529TIP3   OH223145   1.017   1.796   6.453
  529TIP3    H123146   1.111   1.804   6.437
  529TIP3    H223147   0.992   1.716   6.407
  530TIP3   OH223148   1.702   1.743   6.714
  530TIP3    H123149   1.706   1.653   6.683
  530TIP3    H223150   1.687   1.795   6.635
  531TIP3   OH223151   0.268   0.156   7.857
  531TIP3    H123152   0.226   0.070   7.860
  531TIP3    H223153   0.350   0.144   7.905
  532TIP3   OH223154   0.480   0.118   8.028
  532TIP3    H123155   0.557   0.156   7.986
  532TIP3    H223156   0.512   0.040   8.073
  533TIP3   OH223157   0.391   1.766   6.496
  533TIP3    H123158   0.330   1.705   6.456
  533TIP3    H223159   0.477   1.724   6.488
  534TIP3   OH223160   1.321   0.103   8.052
  534TIP3    H123161   1.376   0.046   8.106
  534TIP3    H223162   1.270   0.042   7.998
  535TIP3   OH223163   1.605   1.616   7.937
  535TIP3    H123164   1.554   1.617   7.857
  535TIP3    H223165   1.615   1.709   7.960
  536TIP3   OH223166   3.073   1.040   6.854
  536TIP3    H123167   3.051   1.133   6.844
  536TIP3    H223168   3.004   0.994   6.808
  537TIP3   OH223169   2.994   0.941   7.324
  537TIP3    H123170   3.014   0.881   7.396
  537TIP3    H223171   2.945   0.887   7.261
  538TIP3   OH223172   2.187   0.871   7.424
  538TIP3    H123173   2.193   0.801   7.489
  538TIP3    H223174   2.278   0.887   7.399
  539TIP3   OH223175   3.354   1.244   7.129
  539TIP3    H123176   3.319   1.167   7.172
  539TIP3    H223177   3.371   1.306   7.201
  540TIP3   OH223178   2.314   1.362   7.265
  540TIP3    H123179   2.292   1.274   7.235
  540TIP3    H223180   2.410   1.362   7.269
  541TIP3   OH223181   1.964   0.750   6.794
  541TIP3    H123182   1.915   0.826   6.763
  541TIP3    H223183   1.922   0.675   6.752
  542TIP3   OH223184   2.009   0.904   7.060
  542TIP3    H123185   2.033   0.818   7.094
  542TIP3    H223186   2.031   0.900   6.967
  543TIP3   OH223187   3.072   1.739   7.146
  543TIP3    H123188   3.110   1.682   7.079
  543TIP3    H223189   3.020   1.681   7.201
  544TIP3   OH223190   2.791   1.203   7.296
  544TIP3    H123191   2.822   1.139   7.232
  544TIP3    H223192   2.866   1.220   7.352
  545TIP3   OH223193   3.710   0.343   7.406
  545TIP3    H123194   3.725   0.416   7.466
  545TIP3    H223195   3.765   0.364   7.330
  546TIP3   OH223196   3.132   0.599   7.331
  546TIP3    H123197   3.145   0.504   7.331
  546TIP3    H223198   3.107   0.620   7.241
  547TIP3   OH223199   2.470   0.431   7.054
  547TIP3    H123200   2.469   0.509   6.998
  547TIP3    H223201   2.446   0.359   6.995
  548TIP3   OH223202   3.246   0.471   6.926
  548TIP3    H123203   3.308   0.423   6.981
  548TIP3    H223204   3.270   0.446   6.836
  549TIP3   OH223205   2.102   0.660   7.146
  549TIP3    H123206   2.171   0.620   7.199
  549TIP3    H223207   2.126   0.638   7.056
  550TIP3   OH223208   2.574   0.811   7.108
  550TIP3    H123209   2.661   0.779   7.133
  550TIP3    H223210   2.544   0.750   7.042
  551TIP3   OH223211   3.739   0.501   7.638
  551TIP3    H123212   3.670   0.562   7.616
  551TIP3    H223213   3.752   0.512   7.732
  552TIP3   OH223214   2.327   0.324   7.482
  552TIP3    H123215   2.302   0.369   7.401
  552TIP3    H223216   2.252   0.337   7.540
  553TIP3   OH223217   2.954   1.298   6.725
  553TIP3    H123218   2.881   1.244   6.755
  553TIP3    H223219   2.946   1.380   6.774
  554TIP3   OH223220   2.586   1.110   7.459
  554TIP3    H123221   2.528   1.179   7.492
  554TIP3    H223222   2.645   1.155   7.399
  555TIP3   OH223223   3.391   0.375   7.137
  555TIP3    H123224   3.314   0.336   7.179
  555TIP3    H223225   3.420   0.442   7.200
  556TIP3   OH223226   2.300   0.498   7.262
  556TIP3    H123227   2.360   0.546   7.318
  556TIP3    H223228   2.353   0.468   7.188
  557TIP3   OH223229   2.435   1.309   7.577
  557TIP3    H123230   2.437   1.404   7.564
  557TIP3    H223231   2.343   1.290   7.596
  558TIP3   OH223232   1.972   1.312   6.628
  558TIP3    H123233   1.974   1.325   6.534
  558TIP3    H223234   2.057   1.273   6.649
  559TIP3   OH223235   3.394   1.443   7.333
  559TIP3    H123236   3.301   1.440   7.356
  559TIP3    H223237   3.410   1.534   7.309
  560TIP3   OH223238   3.418   0.239   7.436
  560TIP3    H123239   3.331   0.267   7.409
  560TIP3    H223240   3.477   0.306   7.400
  561TIP3   OH223241   2.684   0.048   7.225
  561TIP3    H123242   2.673   0.032   7.131
  561TIP3    H223243   2.599   0.083   7.254
  562TIP3   OH223244   3.192   1.601   6.932
  562TIP3    H123245   3.224   1.512   6.919
  562TIP3    H223246   3.270   1.656   6.933
  563TIP3   OH223247   3.313   1.362   6.880
  563TIP3    H123248   3.350   1.305   6.813
  563TIP3    H223249   3.327   1.314   6.962
  564TIP3   OH223250   3.456   1.233   7.707
  564TIP3    H123251   3.448   1.173   7.633
  564TIP3    H223252   3.470   1.319   7.667
  565TIP3   OH223253   2.883   0.921   6.686
  565TIP3    H123254   2.789   0.907   6.686
  565TIP3    H223255   2.911   0.894   6.598
  566TIP3   OH223256   2.959   0.822   6.447
  566TIP3    H123257   3.054   0.824   6.436
  566TIP3    H223258   2.931   0.740   6.405
  567TIP3   OH223259   3.650   0.898   7.529
  567TIP3    H123260   3.577   0.958   7.518
  567TIP3    H223261   3.707   0.914   7.453
  568TIP3   OH223262   3.319   0.969   6.755
  568TIP3    H123263   3.235   0.982   6.799
  568TIP3    H223264   3.363   0.901   6.807
  569TIP3   OH223265   3.276   0.752   7.697
  569TIP3    H123266   3.273   0.824   7.760
  569TIP3    H223267   3.205   0.772   7.635
  570TIP3   OH223268   2.470   1.022   6.959
  570TIP3    H123269   2.441   0.988   6.874
  570TIP3    H223270   2.508   0.947   7.004
  571TIP3   OH223271   2.590   1.380   7.216
  571TIP3    H123272   2.575   1.377   7.121
  571TIP3    H223273   2.661   1.318   7.231
  572TIP3   OH223274   2.456   0.888   7.349
  572TIP3    H123275   2.493   0.873   7.262
  572TIP3    H223276   2.495   0.971   7.377
  573TIP3   OH223277   3.140   1.449   7.421
  573TIP3    H123278   3.106   1.517   7.480
  573TIP3    H223279   3.087   1.371   7.441
  574TIP3   OH223280   2.585   1.327   7.808
  574TIP3    H123281   2.523   1.387   7.850
  574TIP3    H223282   2.541   1.300   7.728
  575TIP3   OH223283   3.238   0.856   6.503
  575TIP3    H123284   3.272   0.908   6.576
  575TIP3    H223285   3.300   0.869   6.432
  576TIP3   OH223286   2.264   0.933   7.751
  576TIP3    H123287   2.266   1.010   7.807
  576TIP3    H223288   2.172   0.924   7.725
  577TIP3   OH223289   2.935   1.545   6.839
  577TIP3    H123290   3.015   1.571   6.884
  577TIP3    H223291   2.892   1.628   6.817
  578TIP3   OH223292   2.390   1.512   7.878
  578TIP3    H123293   2.390   1.542   7.786
  578TIP3    H223294   2.298   1.504   7.900
  579TIP3   OH223295   3.709   1.451   6.381
  579TIP3    H123296   3.769   1.518   6.346
  579TIP3    H223297   3.658   1.422   6.305
  580TIP3   OH223298   1.955   1.169   7.617
  580TIP3    H123299   1.908   1.175   7.534
  580TIP3    H223300   1.973   1.076   7.628
  581TIP3   OH223301   1.965   1.430   7.300
  581TIP3    H123302   2.053   1.405   7.272
  581TIP3    H223303   1.978   1.485   7.377
  582TIP3   OH223304   3.741   1.522   7.889
  582TIP3    H123305   3.726   1.427   7.880
  582TIP3    H223306   3.658   1.555   7.924
  583TIP3   OH223307   2.826   1.450   7.753
  583TIP3    H123308   2.819   1.538   7.791
  583TIP3    H223309   2.740   1.411   7.770
  584TIP3   OH223310   2.910   1.826   6.746
  584TIP3    H123311   2.850   1.832   6.672
  584TIP3    H223312   2.901   1.910   6.792
  585TIP3   OH223313   2.245   1.713   6.939
  585TIP3    H123314   2.268   1.675   7.024
  585TIP3    H223315   2.189   1.647   6.898
  586TIP3   OH223316   3.224   1.758   6.363
  586TIP3    H123317   3.189   1.721   6.282
  586TIP3    H223318   3.151   1.753   6.425
  587TIP3   OH223319   3.136   1.694   6.663
  587TIP3    H123320   3.054   1.740   6.680
  587TIP3    H223321   3.169   1.672   6.750
  588TIP3   OH223322   3.431   0.633   7.906
  588TIP3    H123323   3.375   0.666   7.836
  588TIP3    H223324   3.428   0.537   7.895
  589TIP3   OH223325   2.176   1.320   7.679
  589TIP3    H123326   2.203   1.280   7.762
  589TIP3    H223327   2.099   1.269   7.652
  590TIP3   OH223328   2.432   0.128   7.307
  590TIP3    H123329   2.351   0.141   7.257
  590TIP3    H223330   2.418   0.177   7.389
  591TIP3   OH223331   2.904   0.120   7.670
  591TIP3    H123332   2.918   0.055   7.739
  591TIP3    H223333   2.809   0.129   7.665
  592TIP3   OH223334   3.225   0.481   7.744
  592TIP3    H123335   3.149   0.470   7.802
  592TIP3    H223336   3.217   0.570   7.711
  593TIP3   OH223337   2.448   0.639   7.455
  593TIP3    H123338   2.373   0.640   7.515
  593TIP3    H223339   2.451   0.728   7.418
  594TIP3   OH223340   2.466   0.662   6.901
  594TIP3    H123341   2.371   0.655   6.888
  594TIP3    H223342   2.503   0.657   6.813
  595TIP3   OH223343   2.995   0.700   6.812
  595TIP3    H123344   2.958   0.775   6.766
  595TIP3    H223345   3.064   0.668   6.753
  596TIP3   OH223346   2.926   0.721   7.943
  596TIP3    H123347   2.863   0.652   7.963
  596TIP3    H223348   3.009   0.688   7.978
  597TIP3   OH223349   3.107   0.655   7.062
  597TIP3    H123350   3.049   0.695   6.998
  597TIP3    H223351   3.150   0.583   7.016
  598TIP3   OH223352   2.223   0.657   7.608
  598TIP3    H123353   2.216   0.699   7.694
  598TIP3    H223354   2.184   0.570   7.621
  599TIP3   OH223355   1.875   0.354   7.029
  599TIP3    H123356   1.926   0.370   7.109
  599TIP3    H223357   1.939   0.357   6.958
  600TIP3   OH223358   1.898   0.371   6.573
  600TIP3    H123359   1.969   0.365   6.637
  600TIP3    H223360   1.855   0.454   6.592
  601TIP3   OH223361   3.057   0.765   7.529
  601TIP3    H123362   3.086   0.707   7.459
  601TIP3    H223363   2.987   0.716   7.573
  602TIP3   OH223364   2.745   0.470   7.093
  602TIP3    H123365   2.652   0.447   7.091
  602TIP3    H223366   2.787   0.397   7.139
  603TIP3   OH223367   2.190   0.615   6.890
  603TIP3    H123368   2.125   0.666   6.843
  603TIP3    H223369   2.175   0.525   6.862
  604TIP3   OH223370   2.556   0.652   6.641
  604TIP3    H123371   2.575   0.590   6.570
  604TIP3    H223372   2.509   0.723   6.598
  605TIP3   OH223373   3.161   0.318   7.344
  605TIP3    H123374   3.100   0.327   7.417
  605TIP3    H223375   3.111   0.272   7.276
  606TIP3   OH223376   3.485   1.894   7.985
  606TIP3    H123377   3.507   1.924   7.897
  606TIP3    H223378   3.560   1.918   8.038
  607TIP3   OH223379   2.248   1.168   7.911
  607TIP3    H123380   2.315   1.164   7.979
  607TIP3    H223381   2.165   1.164   7.958
  608TIP3   OH223382   2.819   0.712   7.217
  608TIP3    H123383   2.824   0.643   7.151
  608TIP3    H223384   2.787   0.669   7.296
  609TIP3   OH223385   2.405   0.244   6.860
  609TIP3    H123386   2.314   0.266   6.843
  609TIP3    H223387   2.440   0.217   6.774
  610TIP3   OH223388   2.715   0.587   7.437
  610TIP3    H123389   2.622   0.604   7.452
  610TIP3    H223390   2.755   0.592   7.524
  611TIP3   OH223391   3.457   1.086   7.471
  611TIP3    H123392   3.519   1.139   7.422
  611TIP3    H223393   3.389   1.063   7.408
  612TIP3   OH223394   3.085   0.428   6.477
  612TIP3    H123395   3.019   0.466   6.419
  612TIP3    H223396   3.123   0.503   6.523
  613TIP3   OH223397   2.945   1.184   7.744
  613TIP3    H123398   2.876   1.117   7.746
  613TIP3    H223399   2.897   1.267   7.748
  614TIP3   OH223400   3.199   0.623   6.640
  614TIP3    H123401   3.288   0.594   6.662
  614TIP3    H223402   3.212   0.700   6.585
  615TIP3   OH223403   2.299   1.106   7.168
  615TIP3    H123404   2.355   1.087   7.093
  615TIP3    H223405   2.246   1.028   7.179
  616TIP3   OH223406   1.983   0.906   7.712
  616TIP3    H123407   1.961   0.865   7.795
  616TIP3    H223408   1.914   0.877   7.652
  617TIP3   OH223409   2.701   0.897   7.941
  617TIP3    H123410   2.627   0.867   7.889
  617TIP3    H223411   2.774   0.843   7.913
  618TIP3   OH223412   3.108   1.473   7.762
  618TIP3    H123413   3.015   1.462   7.742
  618TIP3    H223414   3.112   1.478   7.857
  619TIP3   OH223415   3.699   1.243   7.840
  619TIP3    H123416   3.609   1.249   7.806
  619TIP3    H223417   3.753   1.229   7.762
  620TIP3   OH223418   3.585   1.479   6.634
  620TIP3    H123419   3.525   1.406   6.653
  620TIP3    H223420   3.613   1.464   6.543
  621TIP3   OH223421   3.271   1.008   7.274
  621TIP3    H123422   3.176   0.996   7.277
  621TIP3    H223423   3.304   0.931   7.227
  622TIP3   OH223424   2.525   1.417   6.950
  622TIP3    H123425   2.538   1.511   6.933
  622TIP3    H223426   2.445   1.395   6.903
  623TIP3   OH223427   2.693   1.200   6.902
  623TIP3    H123428   2.646   1.283   6.911
  623TIP3    H223429   2.626   1.133   6.917
  624TIP3   OH223430   2.715   1.607   7.529
  624TIP3    H123431   2.772   1.680   7.506
  624TIP3    H223432   2.771   1.546   7.577
  625TIP3   OH223433   2.520   1.689   6.909
  625TIP3    H123434   2.426   1.705   6.897
  625TIP3    H223435   2.561   1.775   6.899
  626TIP3   OH223436   3.010   1.202   7.470
  626TIP3    H123437   2.999   1.184   7.564
  626TIP3    H223438   3.026   1.115   7.432
  627TIP3   OH223439   3.321   1.643   7.714
  627TIP3    H123440   3.240   1.592   7.711
  627TIP3    H223441   3.308   1.714   7.651
  628TIP3   OH223442   2.116   0.402   7.646
  628TIP3    H123443   2.023   0.421   7.635
  628TIP3    H223444   2.119   0.332   7.710
  629TIP3   OH223445   3.428   1.204   6.666
  629TIP3    H123446   3.386   1.129   6.709
  629TIP3    H223447   3.467   1.166   6.586
  630TIP3   OH223448   2.098   1.567   7.526
  630TIP3    H123449   2.129   1.484   7.562
  630TIP3    H223450   2.116   1.632   7.593
  631TIP3   OH223451   3.019   0.354   7.584
  631TIP3    H123452   3.092   0.361   7.646
  631TIP3    H223453   2.976   0.272   7.608
  632TIP3   OH223454   3.159   0.286   6.695
  632TIP3    H123455   3.132   0.321   6.610
  632TIP3    H223456   3.092   0.317   6.756
  633TIP3   OH223457   2.855   0.463   6.835
  633TIP3    H123458   2.893   0.548   6.814
  633TIP3    H223459   2.795   0.482   6.908
  634TIP3   OH223460   2.886   0.590   7.656
  634TIP3    H123461   2.890   0.587   7.751
  634TIP3    H223462   2.921   0.506   7.627
  635TIP3   OH223463   2.960   0.231   6.922
  635TIP3    H123464   2.930   0.321   6.911
  635TIP3    H223465   2.928   0.184   6.845
  636TIP3   OH223466   3.467   0.361   7.735
  636TIP3    H123467   3.376   0.390   7.734
  636TIP3    H223468   3.507   0.405   7.660
  637TIP3   OH223469   3.345   0.762   7.156
  637TIP3    H123470   3.260   0.730   7.126
  637TIP3    H223471   3.379   0.692   7.211
  638TIP3   OH223472   3.460   1.716   7.327
  638TIP3    H123473   3.442   1.779   7.258
  638TIP3    H223474   3.556   1.715   7.334
  639TIP3   OH223475   2.169   0.124   7.227
  639TIP3    H123476   2.153   0.097   7.137
  639TIP3    H223477   2.152   0.046   7.279
  640TIP3   OH223478   2.084   1.526   6.820
  640TIP3    H123479   2.032   1.447   6.809
  640TIP3    H223480   2.065   1.578   6.741
  641TIP3   OH223481   2.043   1.803   7.987
  641TIP3    H123482   2.107   1.787   8.057
  641TIP3    H223483   2.020   1.715   7.956
  642TIP3   OH223484   2.470   1.624   8.118
  642TIP3    H123485   2.542   1.566   8.142
  642TIP3    H223486   2.439   1.590   8.034
  643TIP3   OH223487   2.921   1.623   6.357
  643TIP3    H123488   2.838   1.670   6.345
  643TIP3    H223489   2.965   1.628   6.273
  644TIP3   OH223490   3.117   1.483   8.041
  644TIP3    H123491   3.081   1.401   8.074
  644TIP3    H223492   3.195   1.498   8.094
  645TIP3   OH223493   2.001   1.142   8.035
  645TIP3    H123494   2.008   1.047   8.025
  645TIP3    H223495   1.930   1.167   7.977
  646TIP3   OH223496   2.696   1.170   8.006
  646TIP3    H123497   2.658   1.211   7.928
  646TIP3    H223498   2.700   1.077   7.985
  647TIP3   OH223499   3.217   1.195   7.872
  647TIP3    H123500   3.289   1.230   7.820
  647TIP3    H223501   3.139   1.211   7.820
  648TIP3   OH223502   2.066   0.873   8.017
  648TIP3    H123503   2.062   0.778   8.014
  648TIP3    H223504   2.107   0.893   8.101
  649TIP3   OH223505   2.509   0.803   7.758
  649TIP3    H123506   2.424   0.845   7.749
  649TIP3    H223507   2.565   0.847   7.693
  650TIP3   OH223508   3.014   0.961   8.058
  650TIP3    H123509   2.984   0.907   7.984
  650TIP3    H223510   2.990   0.911   8.136
  651TIP3   OH223511   2.544   0.537   7.822
  651TIP3    H123512   2.543   0.480   7.745
  651TIP3    H223513   2.526   0.625   7.788
  652TIP3   OH223514   2.570   0.375   7.592
  652TIP3    H123515   2.622   0.407   7.518
  652TIP3    H223516   2.483   0.360   7.556
  653TIP3   OH223517   2.714   0.925   7.612
  653TIP3    H123518   2.762   0.871   7.548
  653TIP3    H223519   2.668   0.990   7.559
  654TIP3   OH223520   3.156   0.638   8.097
  654TIP3    H123521   3.152   0.559   8.151
  654TIP3    H223522   3.239   0.630   8.049
  655TIP3   OH223523   3.316   0.939   7.897
  655TIP3    H123524   3.279   1.024   7.871
  655TIP3    H223525   3.410   0.954   7.899
  656TIP3   OH223526   2.403   0.567   8.069
  656TIP3    H123527   2.310   0.549   8.057
  656TIP3    H223528   2.440   0.563   7.980
  657TIP3   OH223529   2.630   0.132   7.709
  657TIP3    H123530   2.606   0.218   7.675
  657TIP3    H223531   2.560   0.074   7.677
  658TIP3   OH223532   2.759   0.508   7.987
  658TIP3    H123533   2.717   0.473   8.066
  658TIP3    H223534   2.687   0.515   7.924
  659TIP3   OH223535   3.012   0.430   7.903
  659TIP3    H123536   2.923   0.434   7.937
  659TIP3    H223537   3.061   0.382   7.969
  660TIP3   OH223538   3.212   0.329   8.084
  660TIP3    H123539   3.197   0.234   8.082
  660TIP3    H223540   3.177   0.357   8.168
  661TIP3   OH223541   2.172   0.421   7.986
  661TIP3    H123542   2.170   0.345   7.928
  661TIP3    H223543   2.157   0.384   8.073
  662TIP3   OH223544   2.746   0.015   7.924
  662TIP3    H123545   2.671   7.291   7.977
  662TIP3    H223546   2.707   0.060   7.849
  663TIP3   OH223547   2.786   0.210   8.123
  663TIP3    H123548   2.772   0.156   8.045
  663TIP3    H223549   2.707   0.263   8.129
  664TIP3   OH223550   1.990   1.328   6.359
  664TIP3    H123551   2.044   1.375   6.296
  664TIP3    H223552   1.982   1.240   6.321
  665TIP3   OH223553   1.888   1.847   6.896
  665TIP3    H123554   1.842   1.804   6.823
  665TIP3    H223555   1.904   1.776   6.958
  666TIP3   OH223556   1.928   1.664   7.096
  666TIP3    H123557   1.902   1.575   7.119
  666TIP3    H223558   1.991   1.689   7.165
  667TIP3   OH223559   3.730   1.713   7.390
  667TIP3    H123560   3.723   1.714   7.485
  667TIP3    H223561   3.808   1.766   7.372
  668TIP3   OH223562   3.679   1.676   7.662
  668TIP3    H123563   3.620   1.607   7.630
  668TIP3    H223564   3.721   1.637   7.738
  669TIP3   OH223565   3.500   1.287   8.210
  669TIP3    H123566   3.418   1.334   8.192
  669TIP3    H223567   3.566   1.355   8.217
  670TIP3   OH223568   3.716   0.888   6.842
  670TIP3    H123569   3.626   0.858   6.859
  670TIP3    H223570   3.753   0.903   6.929
  671TIP3   OH223571   3.700   1.202   7.383
  671TIP3    H123572   3.743   1.133   7.333
  671TIP3    H223573   3.722   1.283   7.337
  672TIP3   OH223574   3.501   1.477   7.587
  672TIP3    H123575   3.430   1.530   7.622
  672TIP3    H223576   3.476   1.459   7.496
  673TIP3   OH223577   3.465   0.773   6.898
  673TIP3    H123578   3.454   0.686   6.859
  673TIP3    H223579   3.427   0.765   6.986
  674TIP3   OH223580   1.957   0.977   7.323
  674TIP3    H123581   1.965   0.959   7.230
  674TIP3    H223582   2.040   0.946   7.360
  675TIP3   OH223583   3.586   0.987   7.920
  675TIP3    H123584   3.631   0.907   7.896
  675TIP3    H223585   3.628   1.055   7.867
  676TIP3   OH223586   3.686   0.740   7.871
  676TIP3    H123587   3.597   0.704   7.873
  676TIP3    H223588   3.742   0.667   7.897
  677TIP3   OH223589   3.458   0.530   6.711
  677TIP3    H123590   3.472   0.437   6.728
  677TIP3    H223591   3.509   0.548   6.632
  678TIP3   OH223592   3.483   0.566   7.318
  678TIP3    H123593   3.575   0.583   7.295
  678TIP3    H223594   3.477   0.592   7.410
  679TIP3   OH223595   3.517   0.661   7.584
  679TIP3    H123596   3.431   0.691   7.615
  679TIP3    H223597   3.565   0.741   7.563
  680TIP3   OH223598   1.919   0.498   7.905
  680TIP3    H123599   2.008   0.490   7.941
  680TIP3    H223600   1.878   0.413   7.924
  681TIP3   OH223601   3.754   0.061   8.097
  681TIP3    H123602   3.761   7.288   8.040
  681TIP3    H223603   3.732   0.133   8.037
  682TIP3   OH223604   3.505   0.258   6.755
  682TIP3    H123605   3.499   0.234   6.847
  682TIP3    H223606   3.446   0.197   6.711
  683TIP3   OH223607   2.046   0.367   7.252
  683TIP3    H123608   2.083   0.279   7.240
  683TIP3    H223609   2.122   0.425   7.248
  684TIP3   OH223610   1.865   0.648   7.299
  684TIP3    H123611   1.931   0.636   7.230
  684TIP3    H223612   1.914   0.686   7.372
  685TIP3   OH223613   3.669   0.262   7.933
  685TIP3    H123614   3.599   0.308   7.980
  685TIP3    H223615   3.625   0.218   7.861
  686TIP3   OH223616   1.896   0.104   6.723
  686TIP3    H123617   1.822   0.139   6.674
  686TIP3    H223618   1.945   0.181   6.751
  687TIP3   OH223619   3.413   1.754   6.915
  687TIP3    H123620   3.485   1.765   6.852
  687TIP3    H223621   3.431   1.819   6.983
  688TIP3   OH223622   1.950   0.106   7.563
  688TIP3    H123623   1.870   0.084   7.611
  688TIP3    H223624   1.923   0.174   7.502
  689TIP3   OH223625   2.127   1.505   7.972
  689TIP3    H123626   2.039   1.499   7.936
  689TIP3    H223627   2.120   1.466   8.059
  690TIP3   OH223628   2.452   1.587   7.610
  690TIP3    H123629   2.421   1.672   7.580
  690TIP3    H223630   2.545   1.586   7.587
  691TIP3   OH223631   2.830   1.700   7.877
  691TIP3    H123632   2.840   1.677   7.969
  691TIP3    H223633   2.908   1.752   7.857
  692TIP3   OH223634   3.063   1.845   7.843
  692TIP3    H123635   3.127   1.796   7.791
  692TIP3    H223636   3.111   1.871   7.922
  693TIP3   OH223637   3.528   0.091   7.753
  693TIP3    H123638   3.486   0.174   7.729
  693TIP3    H223639   3.495   0.029   7.688
  694TIP3   OH223640   2.160   1.884   7.620
  694TIP3    H123641   2.080   1.922   7.583
  694TIP3    H223642   2.168   1.925   7.706
  695TIP3   OH223643   2.415   1.849   7.530
  695TIP3    H123644   2.324   1.861   7.555
  695TIP3    H223645   2.422   1.890   7.444
  696TIP3   OH223646   2.865   1.822   7.440
  696TIP3    H123647   2.814   1.855   7.366
  696TIP3    H223648   2.876   1.899   7.497
  697TIP3   OH223649   3.098   1.712   7.537
  697TIP3    H123650   3.016   1.743   7.499
  697TIP3    H223651   3.164   1.772   7.503
  698TIP3   OH223652   3.352   1.861   7.534
  698TIP3    H123653   3.362   1.952   7.505
  698TIP3    H223654   3.386   1.809   7.462
  699TIP3   OH223655   2.108   1.735   7.303
  699TIP3    H123656   2.106   1.684   7.384
  699TIP3    H223657   2.185   1.704   7.256
  700TIP3   OH223658   2.327   1.625   7.189
  700TIP3    H123659   2.318   1.532   7.210
  700TIP3    H223660   2.419   1.645   7.205
  701TIP3   OH223661   2.598   1.648   7.276
  701TIP3    H123662   2.603   1.560   7.239
  701TIP3    H223663   2.625   1.637   7.367
  702TIP3   OH223664   2.887   0.240   7.192
  702TIP3    H123665   2.825   0.171   7.215
  702TIP3    H223666   2.912   0.222   7.101
  703TIP3   OH223667   3.428   0.069   7.170
  703TIP3    H123668   3.489   0.089   7.100
  703TIP3    H223669   3.345   0.106   7.141
  704TIP3   OH223670   3.615   0.126   6.985
  704TIP3    H123671   3.652   0.099   6.901
  704TIP3    H223672   3.662   0.207   7.006
  705TIP3   OH223673   2.109   0.052   6.974
  705TIP3    H123674   2.110   0.133   6.923
  705TIP3    H223675   2.106   7.286   6.908
  706TIP3   OH223676   2.065   0.084   6.472
  706TIP3    H123677   2.159   0.069   6.478
  706TIP3    H223678   2.040   0.115   6.559
  707TIP3   OH223679   2.623   0.069   6.936
  707TIP3    H123680   2.657   0.090   6.849
  707TIP3    H223681   2.538   0.114   6.940
  708TIP3   OH223682   3.181   0.159   7.078
  708TIP3    H123683   3.114   0.207   7.030
  708TIP3    H223684   3.193   0.078   7.028
  709TIP3   OH223685   3.314   0.064   6.678
  709TIP3    H123686   3.251   0.136   6.669
  709TIP3    H223687   3.279   7.298   6.622
  710TIP3   OH223688   2.018   1.663   6.594
  710TIP3    H123689   2.038   1.624   6.509
  710TIP3    H223690   2.022   1.757   6.580
  711TIP3   OH223691   2.811   0.194   6.695
  711TIP3    H123692   2.728   0.167   6.655
  711TIP3    H223693   2.814   0.289   6.681
  712TIP3   OH223694   3.635   1.738   6.713
  712TIP3    H123695   3.606   1.650   6.687
  712TIP3    H223696   3.597   1.796   6.648
  713TIP3   OH223697   2.143   0.194   7.836
  713TIP3    H123698   2.094   0.123   7.794
  713TIP3    H223699   2.198   0.149   7.901
  714TIP3   OH223700   2.296   0.088   8.057
  714TIP3    H123701   2.385   0.054   8.071
  714TIP3    H223702   2.241   0.010   8.050
  715TIP3   OH223703   3.169   0.067   8.121
  715TIP3    H123704   3.089   0.019   8.142
  715TIP3    H223705   3.239   0.017   8.163
  716TIP3   OH223706   3.483   1.623   7.936
  716TIP3    H123707   3.428   1.620   7.858
  716TIP3    H223708   3.486   1.716   7.959
  717TIP3   OH223709   4.897   0.960   6.861
  717TIP3    H123710   4.919   1.050   6.837
  717TIP3    H223711   4.828   0.969   6.927
  718TIP3   OH223712   4.848   0.925   7.298
  718TIP3    H123713   4.873   0.886   7.382
  718TIP3    H223714   4.798   0.856   7.254
  719TIP3   OH223715   4.065   0.876   7.439
  719TIP3    H123716   4.073   0.799   7.496
  719TIP3    H223717   4.154   0.892   7.408
  720TIP3   OH223718   5.241   1.243   7.141
  720TIP3    H123719   5.188   1.181   7.191
  720TIP3    H223720   5.258   1.315   7.203
  721TIP3   OH223721   4.210   1.365   7.231
  721TIP3    H123722   4.177   1.276   7.219
  721TIP3    H223723   4.303   1.353   7.251
  722TIP3   OH223724   3.880   0.680   6.749
  722TIP3    H123725   3.813   0.745   6.771
  722TIP3    H223726   3.836   0.622   6.687
  723TIP3   OH223727   3.896   0.917   7.066
  723TIP3    H123728   3.923   0.827   7.081
  723TIP3    H223729   3.977   0.964   7.050
  724TIP3   OH223730   4.960   1.719   7.173
  724TIP3    H123731   4.994   1.667   7.100
  724TIP3    H223732   4.937   1.654   7.240
  725TIP3   OH223733   4.693   1.186   7.319
  725TIP3    H123734   4.728   1.109   7.275
  725TIP3    H223735   4.762   1.214   7.379
  726TIP3   OH223736   5.599   0.325   7.412
  726TIP3    H123737   5.605   0.387   7.484
  726TIP3    H223738   5.651   0.363   7.341
  727TIP3   OH223739   5.014   0.609   7.309
  727TIP3    H123740   5.019   0.517   7.334
  727TIP3    H223741   4.970   0.608   7.224
  728TIP3   OH223742   4.358   0.435   7.054
  728TIP3    H123743   4.359   0.519   7.008
  728TIP3    H223744   4.306   0.378   6.997
  729TIP3   OH223745   5.160   0.469   6.916
  729TIP3    H123746   5.134   0.379   6.895
  729TIP3    H223747   5.211   0.497   6.840
  730TIP3   OH223748   3.992   0.670   7.134
  730TIP3    H123749   4.056   0.627   7.192
  730TIP3    H223750   4.014   0.636   7.047
  731TIP3   OH223751   4.460   0.819   7.118
  731TIP3    H123752   4.546   0.783   7.141
  731TIP3    H223753   4.425   0.757   7.053
  732TIP3   OH223754   5.610   0.496   7.627
  732TIP3    H123755   5.530   0.548   7.612
  732TIP3    H223756   5.624   0.500   7.721
  733TIP3   OH223757   4.211   0.336   7.482
  733TIP3    H123758   4.187   0.385   7.404
  733TIP3    H223759   4.139   0.350   7.542
  734TIP3   OH223760   4.906   1.231   6.797
  734TIP3    H123761   4.905   1.271   6.710
  734TIP3    H223762   4.883   1.302   6.856
  735TIP3   OH223763   4.470   1.106   7.462
  735TIP3    H123764   4.420   1.179   7.499
  735TIP3    H223765   4.541   1.147   7.414
  736TIP3   OH223766   5.264   0.332   7.184
  736TIP3    H123767   5.183   0.325   7.235
  736TIP3    H223768   5.289   0.242   7.166
  737TIP3   OH223769   4.188   0.506   7.261
  737TIP3    H123770   4.245   0.559   7.316
  737TIP3    H223771   4.245   0.473   7.192
  738TIP3   OH223772   4.321   1.310   7.575
  738TIP3    H123773   4.328   1.405   7.564
  738TIP3    H223774   4.229   1.296   7.598
  739TIP3   OH223775   5.263   1.451   7.333
  739TIP3    H123776   5.168   1.453   7.346
  739TIP3    H223777   5.284   1.541   7.306
  740TIP3   OH223778   5.343   0.280   7.517
  740TIP3    H123779   5.265   0.294   7.463
  740TIP3    H223780   5.417   0.295   7.458
  741TIP3   OH223781   4.552   0.044   7.228
  741TIP3    H123782   4.569   7.264   7.272
  741TIP3    H223783   4.472   0.077   7.267
  742TIP3   OH223784   5.075   1.586   6.960
  742TIP3    H123785   5.115   1.503   6.937
  742TIP3    H223786   5.146   1.650   6.951
  743TIP3   OH223787   5.201   1.355   6.888
  743TIP3    H123788   5.219   1.293   6.818
  743TIP3    H223789   5.219   1.306   6.968
  744TIP3   OH223790   5.378   1.236   7.686
  744TIP3    H123791   5.369   1.178   7.611
  744TIP3    H223792   5.390   1.323   7.648
  745TIP3   OH223793   5.539   0.896   7.525
  745TIP3    H123794   5.466   0.957   7.514
  745TIP3    H223795   5.602   0.922   7.457
  746TIP3   OH223796   5.150   0.764   7.713
  746TIP3    H123797   5.146   0.836   7.777
  746TIP3    H223798   5.086   0.787   7.646
  747TIP3   OH223799   4.316   1.013   6.960
  747TIP3    H123800   4.286   0.981   6.875
  747TIP3    H223801   4.367   0.941   6.996
  748TIP3   OH223802   4.493   1.367   7.224
  748TIP3    H123803   4.493   1.369   7.128
  748TIP3    H223804   4.566   1.309   7.246
  749TIP3   OH223805   4.321   0.914   7.336
  749TIP3    H123806   4.372   0.887   7.259
  749TIP3    H223807   4.375   0.979   7.379
  750TIP3   OH223808   4.999   1.459   7.401
  750TIP3    H123809   4.984   1.528   7.465
  750TIP3    H223810   4.958   1.382   7.439
  751TIP3   OH223811   4.477   1.337   7.805
  751TIP3    H123812   4.413   1.394   7.848
  751TIP3    H223813   4.433   1.309   7.724
  752TIP3   OH223814   4.134   0.914   7.778
  752TIP3    H123815   4.147   1.004   7.810
  752TIP3    H223816   4.048   0.916   7.736
  753TIP3   OH223817   4.831   1.502   6.863
  753TIP3    H123818   4.911   1.536   6.902
  753TIP3    H223819   4.790   1.578   6.820
  754TIP3   OH223820   4.270   1.510   7.874
  754TIP3    H123821   4.272   1.541   7.784
  754TIP3    H223822   4.176   1.503   7.895
  755TIP3   OH223823   4.228   0.930   6.702
  755TIP3    H123824   4.296   0.939   6.636
  755TIP3    H223825   4.197   0.839   6.693
  756TIP3   OH223826   3.841   1.171   7.620
  756TIP3    H123827   3.791   1.179   7.539
  756TIP3    H223828   3.856   1.077   7.630
  757TIP3   OH223829   3.811   1.455   7.302
  757TIP3    H123830   3.895   1.453   7.349
  757TIP3    H223831   3.765   1.531   7.338
  758TIP3   OH223832   5.635   1.530   7.889
  758TIP3    H123833   5.627   1.435   7.883
  758TIP3    H223834   5.552   1.560   7.924
  759TIP3   OH223835   4.715   1.464   7.750
  759TIP3    H123836   4.711   1.548   7.797
  759TIP3    H223837   4.631   1.422   7.770
  760TIP3   OH223838   4.792   1.801   6.751
  760TIP3    H123839   4.757   1.793   6.663
  760TIP3    H223840   4.768   1.890   6.779
  761TIP3   OH223841   4.132   1.742   6.929
  761TIP3    H123842   4.164   1.707   7.012
  761TIP3    H223843   4.077   1.673   6.893
  762TIP3   OH223844   5.060   1.767   6.691
  762TIP3    H123845   4.969   1.765   6.720
  762TIP3    H223846   5.087   1.676   6.689
  763TIP3   OH223847   5.318   0.643   7.922
  763TIP3    H123848   5.257   0.671   7.853
  763TIP3    H223849   5.332   0.550   7.904
  764TIP3   OH223850   4.064   1.322   7.678
  764TIP3    H123851   4.088   1.286   7.763
  764TIP3    H223852   3.986   1.273   7.653
  765TIP3   OH223853   4.303   0.111   7.343
  765TIP3    H123854   4.225   0.109   7.288
  765TIP3    H223855   4.290   0.187   7.400
  766TIP3   OH223856   4.778   0.116   7.654
  766TIP3    H123857   4.815   0.059   7.721
  766TIP3    H223858   4.687   0.129   7.682
  767TIP3   OH223859   5.087   0.494   7.723
  767TIP3    H123860   5.023   0.478   7.792
  767TIP3    H223861   5.095   0.589   7.719
  768TIP3   OH223862   4.704   0.342   6.331
  768TIP3    H123863   4.686   0.314   6.421
  768TIP3    H223864   4.790   0.306   6.311
  769TIP3   OH223865   4.333   0.658   7.442
  769TIP3    H123866   4.265   0.655   7.509
  769TIP3    H223867   4.333   0.749   7.412
  770TIP3   OH223868   4.341   0.674   6.918
  770TIP3    H123869   4.248   0.651   6.906
  770TIP3    H223870   4.376   0.678   6.829
  771TIP3   OH223871   4.884   0.691   6.782
  771TIP3    H123872   4.897   0.785   6.796
  771TIP3    H223873   4.950   0.668   6.716
  772TIP3   OH223874   4.790   0.700   7.924
  772TIP3    H123875   4.741   0.626   7.959
  772TIP3    H223876   4.875   0.695   7.967
  773TIP3   OH223877   4.955   0.606   7.042
  773TIP3    H123878   4.908   0.655   6.975
  773TIP3    H223879   5.014   0.548   6.994
  774TIP3   OH223880   4.117   0.657   7.611
  774TIP3    H123881   4.114   0.701   7.696
  774TIP3    H223882   4.076   0.573   7.626
  775TIP3   OH223883   3.765   0.348   7.009
  775TIP3    H123884   3.836   0.385   7.062
  775TIP3    H223885   3.789   0.369   6.919
  776TIP3   OH223886   4.941   0.773   7.519
  776TIP3    H123887   4.971   0.714   7.450
  776TIP3    H223888   4.875   0.723   7.567
  777TIP3   OH223889   4.637   0.428   7.016
  777TIP3    H123890   4.544   0.422   7.036
  777TIP3    H223891   4.679   0.370   7.080
  778TIP3   OH223892   4.086   0.576   6.893
  778TIP3    H123893   4.015   0.603   6.835
  778TIP3    H223894   4.102   0.484   6.871
  779TIP3   OH223895   4.445   0.671   6.660
  779TIP3    H123896   4.516   0.610   6.680
  779TIP3    H223897   4.397   0.630   6.588
  780TIP3   OH223898   5.032   0.330   7.330
  780TIP3    H123899   4.981   0.331   7.411
  780TIP3    H223900   4.981   0.276   7.270
  781TIP3   OH223901   4.316   0.592   6.426
  781TIP3    H123902   4.229   0.586   6.386
  781TIP3    H223903   4.373   0.624   6.355
  782TIP3   OH223904   5.373   1.892   7.995
  782TIP3    H123905   5.399   1.926   7.909
  782TIP3    H223906   5.447   1.913   8.052
  783TIP3   OH223907   4.130   1.162   7.913
  783TIP3    H123908   4.195   1.158   7.984
  783TIP3    H223909   4.046   1.168   7.959
  784TIP3   OH223910   4.697   0.693   7.205
  784TIP3    H123911   4.728   0.624   7.146
  784TIP3    H223912   4.667   0.647   7.282
  785TIP3   OH223913   4.193   0.319   6.867
  785TIP3    H123914   4.150   0.234   6.875
  785TIP3    H223915   4.232   0.318   6.780
  786TIP3   OH223916   4.598   0.576   7.435
  786TIP3    H123917   4.511   0.614   7.447
  786TIP3    H223918   4.646   0.601   7.514
  787TIP3   OH223919   5.347   1.084   7.457
  787TIP3    H123920   5.408   1.138   7.408
  787TIP3    H223921   5.270   1.077   7.401
  788TIP3   OH223922   4.788   1.169   7.754
  788TIP3    H123923   4.819   1.130   7.836
  788TIP3    H223924   4.763   1.258   7.777
  789TIP3   OH223925   5.081   0.614   6.595
  789TIP3    H123926   5.157   0.573   6.636
  789TIP3    H223927   5.115   0.654   6.515
  790TIP3   OH223928   4.165   1.095   7.175
  790TIP3    H123929   4.215   1.076   7.096
  790TIP3    H223930   4.197   1.032   7.239
  791TIP3   OH223931   4.762   1.307   6.565
  791TIP3    H123932   4.760   1.403   6.562
  791TIP3    H223933   4.703   1.285   6.637
  792TIP3   OH223934   3.859   0.902   7.713
  792TIP3    H123935   3.831   0.852   7.790
  792TIP3    H223936   3.793   0.883   7.647
  793TIP3   OH223937   4.574   0.879   7.953
  793TIP3    H123938   4.511   0.845   7.890
  793TIP3    H223939   4.656   0.835   7.931
  794TIP3   OH223940   4.995   1.444   7.742
  794TIP3    H123941   4.902   1.449   7.723
  794TIP3    H223942   5.002   1.461   7.836
  795TIP3   OH223943   5.596   1.244   7.851
  795TIP3    H123944   5.508   1.253   7.816
  795TIP3    H223945   5.650   1.227   7.773
  796TIP3   OH223946   5.117   1.037   7.289
  796TIP3    H123947   5.022   1.025   7.290
  796TIP3    H223948   5.151   0.961   7.242
  797TIP3   OH223949   4.427   1.422   6.958
  797TIP3    H123950   4.447   1.510   6.925
  797TIP3    H223951   4.332   1.418   6.963
  798TIP3   OH223952   4.539   1.174   6.891
  798TIP3    H123953   4.515   1.265   6.907
  798TIP3    H223954   4.462   1.124   6.916
  799TIP3   OH223955   4.603   1.610   7.529
  799TIP3    H123956   4.661   1.682   7.506
  799TIP3    H223957   4.657   1.552   7.583
  800TIP3   OH223958   4.404   1.690   6.883
  800TIP3    H123959   4.314   1.720   6.885
  800TIP3    H223960   4.456   1.770   6.891
  801TIP3   OH223961   4.900   1.214   7.504
  801TIP3    H123962   4.860   1.195   7.589
  801TIP3    H223963   4.980   1.161   7.504
  802TIP3   OH223964   5.200   1.644   7.719
  802TIP3    H123965   5.120   1.593   7.703
  802TIP3    H223966   5.196   1.715   7.655
  803TIP3   OH223967   4.004   0.401   7.656
  803TIP3    H123968   3.912   0.422   7.639
  803TIP3    H223969   4.001   0.327   7.717
  804TIP3   OH223970   5.283   1.168   6.679
  804TIP3    H123971   5.374   1.154   6.703
  804TIP3    H223972   5.281   1.162   6.583
  805TIP3   OH223973   4.002   1.572   7.514
  805TIP3    H123974   4.030   1.493   7.561
  805TIP3    H223975   4.010   1.642   7.579
  806TIP3   OH223976   4.899   0.352   7.569
  806TIP3    H123977   4.967   0.373   7.633
  806TIP3    H223978   4.860   0.271   7.602
  807TIP3   OH223979   4.952   0.321   6.642
  807TIP3    H123980   4.975   0.262   6.571
  807TIP3    H223981   4.977   0.408   6.610
  808TIP3   OH223982   4.725   1.575   6.542
  808TIP3    H123983   4.646   1.564   6.488
  808TIP3    H223984   4.765   1.656   6.510
  809TIP3   OH223985   4.662   0.513   6.753
  809TIP3    H123986   4.738   0.571   6.755
  809TIP3    H223987   4.648   0.489   6.845
  810TIP3   OH223988   4.770   0.606   7.654
  810TIP3    H123989   4.774   0.626   7.748
  810TIP3    H223990   4.801   0.516   7.647
  811TIP3   OH223991   4.775   0.213   6.842
  811TIP3    H123992   4.747   0.291   6.890
  811TIP3    H223993   4.838   0.247   6.778
  812TIP3   OH223994   4.330   0.359   6.626
  812TIP3    H123995   4.302   0.409   6.550
  812TIP3    H223996   4.416   0.324   6.603
  813TIP3   OH223997   5.337   0.402   7.769
  813TIP3    H123998   5.244   0.421   7.763
  813TIP3    H223999   5.360   0.361   7.686
  814TIP3   OH224000   5.193   0.785   7.194
  814TIP3    H124001   5.114   0.744   7.231
  814TIP3    H224002   5.263   0.757   7.252
  815TIP3   OH224003   5.344   1.718   7.319
  815TIP3    H124004   5.330   1.789   7.256
  815TIP3    H224005   5.439   1.715   7.330
  816TIP3   OH224006   4.055   0.131   7.216
  816TIP3    H124007   4.059   0.122   7.121
  816TIP3    H224008   4.008   0.053   7.246
  817TIP3   OH224009   3.950   1.562   6.820
  817TIP3    H124010   3.905   1.580   6.903
  817TIP3    H224011   3.916   1.476   6.793
  818TIP3   OH224012   3.929   1.799   7.998
  818TIP3    H124013   3.991   1.783   8.070
  818TIP3    H224014   3.899   1.711   7.972
  819TIP3   OH224015   4.350   1.613   8.118
  819TIP3    H124016   4.425   1.558   8.139
  819TIP3    H224017   4.321   1.584   8.032
  820TIP3   OH224018   4.997   1.485   8.012
  820TIP3    H124019   4.974   1.400   8.050
  820TIP3    H224020   5.074   1.514   8.061
  821TIP3   OH224021   3.879   1.146   8.033
  821TIP3    H124022   3.883   1.051   8.024
  821TIP3    H224023   3.809   1.174   7.973
  822TIP3   OH224024   4.539   1.158   8.010
  822TIP3    H124025   4.531   1.203   7.926
  822TIP3    H224026   4.569   1.070   7.987
  823TIP3   OH224027   4.810   1.255   6.296
  823TIP3    H124028   4.792   1.283   6.385
  823TIP3    H224029   4.727   1.219   6.265
  824TIP3   OH224030   5.116   1.189   7.760
  824TIP3    H124031   5.207   1.210   7.741
  824TIP3    H224032   5.068   1.271   7.748
  825TIP3   OH224033   3.964   0.881   8.011
  825TIP3    H124034   4.042   0.874   7.956
  825TIP3    H224035   3.999   0.885   8.101
  826TIP3   OH224036   4.435   0.905   6.507
  826TIP3    H124037   4.452   0.834   6.570
  826TIP3    H224038   4.454   0.867   6.422
  827TIP3   OH224039   4.385   0.781   7.768
  827TIP3    H124040   4.304   0.832   7.763
  827TIP3    H224041   4.440   0.816   7.699
  828TIP3   OH224042   4.533   0.768   6.284
  828TIP3    H124043   4.500   0.721   6.208
  828TIP3    H224044   4.612   0.720   6.309
  829TIP3   OH224045   4.887   1.009   8.030
  829TIP3    H124046   4.968   0.970   7.996
  829TIP3    H224047   4.856   0.946   8.095
  830TIP3   OH224048   4.428   0.520   7.837
  830TIP3    H124049   4.438   0.465   7.759
  830TIP3    H224050   4.420   0.609   7.803
  831TIP3   OH224051   4.456   0.383   7.596
  831TIP3    H124052   4.512   0.422   7.529
  831TIP3    H224053   4.372   0.370   7.552
  832TIP3   OH224054   4.568   0.889   7.600
  832TIP3    H124055   4.661   0.903   7.614
  832TIP3    H224056   4.538   0.967   7.552
  833TIP3   OH224057   5.018   0.668   8.086
  833TIP3    H124058   5.020   0.595   8.149
  833TIP3    H224059   5.110   0.688   8.071
  834TIP3   OH224060   5.164   0.966   7.908
  834TIP3    H124061   5.135   1.045   7.863
  834TIP3    H224062   5.259   0.970   7.906
  835TIP3   OH224063   4.257   0.576   8.046
  835TIP3    H124064   4.177   0.529   8.024
  835TIP3    H224065   4.309   0.574   7.966
  836TIP3   OH224066   4.507   0.142   7.717
  836TIP3    H124067   4.489   0.228   7.679
  836TIP3    H224068   4.445   0.083   7.673
  837TIP3   OH224069   4.650   0.479   8.005
  837TIP3    H124070   4.627   0.433   8.086
  837TIP3    H224071   4.569   0.480   7.954
  838TIP3   OH224072   4.899   0.416   7.898
  838TIP3    H124073   4.815   0.421   7.942
  838TIP3    H224074   4.961   0.387   7.965
  839TIP3   OH224075   5.109   0.351   8.078
  839TIP3    H124076   5.087   0.258   8.076
  839TIP3    H224077   5.077   0.381   8.163
  840TIP3   OH224078   4.040   0.409   8.020
  840TIP3    H124079   4.040   0.340   7.953
  840TIP3    H224080   4.043   0.361   8.103
  841TIP3   OH224081   4.609   0.001   7.923
  841TIP3    H124082   4.538   7.279   7.982
  841TIP3    H224083   4.568   0.055   7.857
  842TIP3   OH224084   4.624   0.188   8.172
  842TIP3    H124085   4.662   0.115   8.121
  842TIP3    H224086   4.546   0.213   8.122
  843TIP3   OH224087   3.771   1.836   6.921
  843TIP3    H124088   3.721   1.804   6.846
  843TIP3    H224089   3.784   1.760   6.976
  844TIP3   OH224090   3.852   1.621   7.073
  844TIP3    H124091   3.811   1.547   7.118
  844TIP3    H224092   3.900   1.667   7.143
  845TIP3   OH224093   5.612   1.714   7.386
  845TIP3    H124094   5.611   1.720   7.482
  845TIP3    H224095   5.690   1.764   7.360
  846TIP3   OH224096   5.555   1.692   7.663
  846TIP3    H124097   5.500   1.623   7.628
  846TIP3    H224098   5.603   1.651   7.736
  847TIP3   OH224099   5.386   1.267   8.202
  847TIP3    H124100   5.307   1.292   8.250
  847TIP3    H224101   5.440   1.345   8.201
  848TIP3   OH224102   5.555   1.102   6.705
  848TIP3    H124103   5.589   1.065   6.624
  848TIP3    H224104   5.571   1.035   6.771
  849TIP3   OH224105   5.598   0.893   6.896
  849TIP3    H124106   5.530   0.862   6.955
  849TIP3    H224107   5.667   0.925   6.954
  850TIP3   OH224108   5.582   1.213   7.381
  850TIP3    H124109   5.636   1.145   7.340
  850TIP3    H224110   5.610   1.294   7.339
  851TIP3   OH224111   5.386   1.489   7.579
  851TIP3    H124112   5.314   1.534   7.623
  851TIP3    H224113   5.354   1.473   7.491
  852TIP3   OH224114   5.349   0.711   6.949
  852TIP3    H124115   5.357   0.700   6.854
  852TIP3    H224116   5.295   0.789   6.959
  853TIP3   OH224117   3.829   0.954   7.329
  853TIP3    H124118   3.842   0.949   7.234
  853TIP3    H224119   3.915   0.935   7.366
  854TIP3   OH224120   5.441   0.983   7.897
  854TIP3    H124121   5.494   0.906   7.878
  854TIP3    H224122   5.488   1.055   7.854
  855TIP3   OH224123   5.568   0.743   7.864
  855TIP3    H124124   5.481   0.709   7.886
  855TIP3    H224125   5.627   0.670   7.882
  856TIP3   OH224126   5.421   0.335   6.331
  856TIP3    H124127   5.450   0.423   6.310
  856TIP3    H224128   5.328   0.333   6.310
  857TIP3   OH224129   5.325   0.526   6.696
  857TIP3    H124130   5.341   0.432   6.704
  857TIP3    H224131   5.365   0.550   6.613
  858TIP3   OH224132   5.382   0.617   7.302
  858TIP3    H124133   5.476   0.632   7.291
  858TIP3    H224134   5.369   0.615   7.397
  859TIP3   OH224135   5.389   0.669   7.574
  859TIP3    H124136   5.312   0.696   7.624
  859TIP3    H224137   5.443   0.747   7.569
  860TIP3   OH224138   3.807   0.498   7.909
  860TIP3    H124139   3.893   0.481   7.946
  860TIP3    H224140   3.759   0.416   7.920
  861TIP3   OH224141   5.680   0.096   8.101
  861TIP3    H124142   5.647   0.006   8.100
  861TIP3    H224143   5.633   0.139   8.029
  862TIP3   OH224144   5.325   0.260   6.772
  862TIP3    H124145   5.370   0.210   6.840
  862TIP3    H224146   5.274   0.195   6.724
  863TIP3   OH224147   3.938   0.380   7.237
  863TIP3    H124148   3.967   0.289   7.231
  863TIP3    H224149   4.019   0.431   7.244
  864TIP3   OH224150   3.751   0.646   7.303
  864TIP3    H124151   3.815   0.615   7.239
  864TIP3    H224152   3.775   0.737   7.319
  865TIP3   OH224153   5.562   0.248   7.902
  865TIP3    H124154   5.488   0.290   7.945
  865TIP3    H224155   5.523   0.201   7.828
  866TIP3   OH224156   3.785   0.357   6.735
  866TIP3    H124157   3.696   0.325   6.724
  866TIP3    H224158   3.816   0.374   6.645
  867TIP3   OH224159   5.278   1.765   6.937
  867TIP3    H124160   5.331   1.764   6.857
  867TIP3    H224161   5.322   1.828   6.995
  868TIP3   OH224162   3.686   0.091   7.503
  868TIP3    H124163   3.685   0.101   7.598
  868TIP3    H224164   3.706   0.179   7.470
  869TIP3   OH224165   4.005   1.497   7.965
  869TIP3    H124166   3.918   1.501   7.924
  869TIP3    H224167   3.989   1.464   8.053
  870TIP3   OH224168   4.341   1.586   7.608
  870TIP3    H124169   4.310   1.672   7.581
  870TIP3    H224170   4.434   1.587   7.589
  871TIP3   OH224171   4.722   1.706   7.891
  871TIP3    H124172   4.735   1.672   7.979
  871TIP3    H224173   4.803   1.753   7.871
  872TIP3   OH224174   4.959   1.841   7.849
  872TIP3    H124175   5.026   1.788   7.805
  872TIP3    H224176   5.001   1.871   7.929
  873TIP3   OH224177   5.455   0.089   7.682
  873TIP3    H124178   5.409   0.157   7.631
  873TIP3    H224179   5.424   0.006   7.644
  874TIP3   OH224180   4.034   1.876   7.609
  874TIP3    H124181   3.952   1.915   7.579
  874TIP3    H224182   4.048   1.915   7.696
  875TIP3   OH224183   4.296   1.847   7.531
  875TIP3    H124184   4.204   1.859   7.554
  875TIP3    H224185   4.306   1.890   7.446
  876TIP3   OH224186   4.750   1.827   7.440
  876TIP3    H124187   4.706   1.865   7.363
  876TIP3    H224188   4.762   1.901   7.500
  877TIP3   OH224189   4.977   1.702   7.535
  877TIP3    H124190   4.899   1.743   7.497
  877TIP3    H224191   5.047   1.764   7.517
  878TIP3   OH224192   5.217   1.847   7.525
  878TIP3    H124193   5.243   1.939   7.512
  878TIP3    H224194   5.258   1.800   7.453
  879TIP3   OH224195   4.006   1.735   7.286
  879TIP3    H124196   4.001   1.685   7.368
  879TIP3    H224197   4.086   1.703   7.243
  880TIP3   OH224198   4.223   1.628   7.164
  880TIP3    H124199   4.209   1.536   7.185
  880TIP3    H224200   4.312   1.647   7.196
  881TIP3   OH224201   4.480   1.642   7.278
  881TIP3    H124202   4.491   1.553   7.246
  881TIP3    H224203   4.511   1.639   7.369
  882TIP3   OH224204   4.749   0.239   7.176
  882TIP3    H124205   4.687   0.172   7.203
  882TIP3    H224206   4.826   0.190   7.146
  883TIP3   OH224207   5.293   0.041   7.130
  883TIP3    H124208   5.374   0.067   7.086
  883TIP3    H224209   5.233   0.018   7.059
  884TIP3   OH224210   5.497   0.146   6.973
  884TIP3    H124211   5.549   0.081   6.925
  884TIP3    H224212   5.554   0.222   6.979
  885TIP3   OH224213   4.075   0.069   6.945
  885TIP3    H124214   4.013   0.026   6.887
  885TIP3    H224215   4.129   7.301   6.980
  886TIP3   OH224216   4.557   0.036   6.940
  886TIP3    H124217   4.628   0.086   6.900
  886TIP3    H224218   4.565   0.053   7.034
  887TIP3   OH224219   4.989   0.118   7.121
  887TIP3    H124220   5.024   0.093   7.035
  887TIP3    H224221   5.013   0.045   7.179
  888TIP3   OH224222   5.170   0.065   6.645
  888TIP3    H124223   5.112   0.103   6.580
  888TIP3    H224224   5.215   7.297   6.599
  889TIP3   OH224225   4.605   0.267   6.597
  889TIP3    H124226   4.650   0.196   6.644
  889TIP3    H224227   4.630   0.346   6.645
  890TIP3   OH224228   4.787   1.829   6.435
  890TIP3    H124229   4.803   1.923   6.432
  890TIP3    H224230   4.726   1.813   6.364
  891TIP3   OH224231   5.421   1.770   6.693
  891TIP3    H124232   5.388   1.702   6.634
  891TIP3    H224233   5.369   1.848   6.671
  892TIP3   OH224234   4.020   0.188   7.850
  892TIP3    H124235   3.958   0.116   7.860
  892TIP3    H224236   4.099   0.159   7.895
  893TIP3   OH224237   4.229   0.144   8.028
  893TIP3    H124238   4.295   0.212   8.038
  893TIP3    H224239   4.275   0.063   8.047
  894TIP3   OH224240   5.054   0.088   8.060
  894TIP3    H124241   5.111   0.043   8.123
  894TIP3    H224242   5.035   0.021   7.994
  895TIP3   OH224243   5.377   1.620   7.937
  895TIP3    H124244   5.314   1.617   7.865
  895TIP3    H224245   5.373   1.711   7.968
  896TIP3   OH224246   6.810   1.009   6.906
  896TIP3    H124247   6.811   1.104   6.897
  896TIP3    H224248   6.725   0.982   6.871
  897TIP3   OH224249   6.695   0.944   7.296
  897TIP3    H124250   6.723   0.892   7.372
  897TIP3    H224251   6.663   0.878   7.234
  898TIP3   OH224252   5.951   0.861   7.434
  898TIP3    H124253   5.962   0.793   7.500
  898TIP3    H224254   6.040   0.884   7.408
  899TIP3   OH224255   7.091   1.239   7.152
  899TIP3    H124256   7.053   1.169   7.203
  899TIP3    H224257   7.123   1.302   7.217
  900TIP3   OH224258   6.087   1.347   7.237
  900TIP3    H124259   6.055   1.258   7.219
  900TIP3    H224260   6.181   1.337   7.247
  901TIP3   OH224261   5.707   0.667   6.775
  901TIP3    H124262   5.671   0.747   6.814
  901TIP3    H224263   5.690   0.677   6.681
  902TIP3   OH224264   5.800   0.947   7.077
  902TIP3    H124265   5.835   0.859   7.093
  902TIP3    H224266   5.875   1.005   7.087
  903TIP3   OH224267   6.827   1.694   7.177
  903TIP3    H124268   6.846   1.640   7.101
  903TIP3    H224269   6.826   1.632   7.251
  904TIP3   OH224270   6.569   1.193   7.320
  904TIP3    H124271   6.603   1.109   7.287
  904TIP3    H224272   6.642   1.231   7.369
  905TIP3   OH224273   6.848   0.587   7.314
  905TIP3    H124274   6.877   0.496   7.322
  905TIP3    H224275   6.868   0.609   7.223
  906TIP3   OH224276   6.169   0.435   7.075
  906TIP3    H124277   6.192   0.513   7.024
  906TIP3    H224278   6.185   0.362   7.015
  907TIP3   OH224279   6.978   0.455   6.888
  907TIP3    H124280   7.017   0.403   6.959
  907TIP3    H224281   7.053   0.484   6.836
  908TIP3   OH224282   5.880   0.692   7.141
  908TIP3    H124283   5.940   0.653   7.204
  908TIP3    H224284   5.910   0.661   7.056
  909TIP3   OH224285   6.344   0.798   7.114
  909TIP3    H124286   6.433   0.769   7.137
  909TIP3    H224287   6.316   0.737   7.046
  910TIP3   OH224288   6.094   0.331   7.486
  910TIP3    H124289   6.068   0.392   7.416
  910TIP3    H224290   6.025   0.338   7.551
  911TIP3   OH224291   6.788   1.277   6.840
  911TIP3    H124292   6.879   1.306   6.845
  911TIP3    H224293   6.738   1.358   6.832
  912TIP3   OH224294   6.350   1.108   7.464
  912TIP3    H124295   6.302   1.181   7.502
  912TIP3    H224296   6.422   1.150   7.416
  913TIP3   OH224297   7.071   0.345   7.123
  913TIP3    H124298   7.021   0.339   7.204
  913TIP3    H224299   7.149   0.394   7.146
  914TIP3   OH224300   6.040   0.524   7.293
  914TIP3    H124301   6.105   0.574   7.342
  914TIP3    H224302   6.090   0.487   7.219
  915TIP3   OH224303   6.205   1.316   7.580
  915TIP3    H124304   6.214   1.410   7.569
  915TIP3    H224305   6.113   1.304   7.602
  916TIP3   OH224306   5.796   1.307   6.635
  916TIP3    H124307   5.708   1.276   6.655
  916TIP3    H224308   5.821   1.361   6.710
  917TIP3   OH224309   7.130   1.449   7.348
  917TIP3    H124310   7.035   1.461   7.349
  917TIP3    H224311   7.165   1.534   7.322
  918TIP3   OH224312   7.175   0.293   7.451
  918TIP3    H124313   7.084   0.282   7.426
  918TIP3    H224314   7.208   0.363   7.393
  919TIP3   OH224315   6.419   0.037   7.200
  919TIP3    H124316   6.457   7.277   7.261
  919TIP3    H224317   6.344   0.074   7.248
  920TIP3   OH224318   6.919   1.557   6.954
  920TIP3    H124319   6.963   1.473   6.942
  920TIP3    H224320   6.990   1.620   6.961
  921TIP3   OH224321   7.063   1.329   6.893
  921TIP3    H124322   7.149   1.321   6.854
  921TIP3    H224323   7.072   1.289   6.980
  922TIP3   OH224324   7.252   1.218   7.750
  922TIP3    H124325   7.248   1.152   7.680
  922TIP3    H224326   7.262   1.301   7.704
  923TIP3   OH224327   7.019   0.892   6.708
  923TIP3    H124328   6.994   0.955   6.776
  923TIP3    H224329   7.100   0.927   6.671
  924TIP3   OH224330   7.001   0.787   7.655
  924TIP3    H124331   7.018   0.879   7.676
  924TIP3    H224332   6.924   0.789   7.598
  925TIP3   OH224333   6.211   1.007   6.982
  925TIP3    H124334   6.173   0.973   6.901
  925TIP3    H224335   6.268   0.937   7.013
  926TIP3   OH224336   6.367   1.360   7.220
  926TIP3    H124337   6.371   1.368   7.125
  926TIP3    H224338   6.442   1.305   7.242
  927TIP3   OH224339   6.208   0.913   7.333
  927TIP3    H124340   6.260   0.884   7.258
  927TIP3    H224341   6.262   0.979   7.376
  928TIP3   OH224342   6.858   1.489   7.386
  928TIP3    H124343   6.855   1.546   7.463
  928TIP3    H224344   6.833   1.403   7.418
  929TIP3   OH224345   6.355   1.341   7.812
  929TIP3    H124346   6.296   1.402   7.856
  929TIP3    H224347   6.310   1.318   7.731
  930TIP3   OH224348   6.032   0.927   7.766
  930TIP3    H124349   6.040   1.014   7.805
  930TIP3    H224350   5.944   0.925   7.728
  931TIP3   OH224351   6.681   1.555   6.817
  931TIP3    H124352   6.756   1.562   6.876
  931TIP3    H224353   6.667   1.645   6.786
  932TIP3   OH224354   6.165   1.531   7.898
  932TIP3    H124355   6.167   1.560   7.807
  932TIP3    H224356   6.072   1.520   7.917
  933TIP3   OH224357   6.080   0.917   6.756
  933TIP3    H124358   6.059   1.004   6.722
  933TIP3    H224359   6.068   0.858   6.681
  934TIP3   OH224360   5.727   1.174   7.622
  934TIP3    H124361   5.676   1.182   7.541
  934TIP3    H224362   5.741   1.080   7.632
  935TIP3   OH224363   5.698   1.458   7.296
  935TIP3    H124364   5.786   1.455   7.332
  935TIP3    H224365   5.657   1.535   7.336
  936TIP3   OH224366   6.601   1.454   7.755
  936TIP3    H124367   6.597   1.540   7.797
  936TIP3    H224368   6.515   1.416   7.773
  937TIP3   OH224369   6.664   1.814   6.687
  937TIP3    H124370   6.663   1.843   6.596
  937TIP3    H224371   6.647   1.894   6.738
  938TIP3   OH224372   6.024   1.700   6.923
  938TIP3    H124373   6.051   1.669   7.010
  938TIP3    H224374   5.974   1.627   6.887
  939TIP3   OH224375   6.938   1.784   6.725
  939TIP3    H124376   6.845   1.783   6.703
  939TIP3    H224377   6.956   1.697   6.759
  940TIP3   OH224378   7.151   0.723   7.916
  940TIP3    H124379   7.140   0.713   7.821
  940TIP3    H224380   7.225   0.666   7.938
  941TIP3   OH224381   5.949   1.326   7.684
  941TIP3    H124382   5.974   1.286   7.767
  941TIP3    H224383   5.871   1.278   7.657
  942TIP3   OH224384   6.175   0.109   7.332
  942TIP3    H124385   6.086   0.121   7.299
  942TIP3    H224386   6.187   0.180   7.395
  943TIP3   OH224387   6.662   0.101   7.639
  943TIP3    H124388   6.720   0.040   7.686
  943TIP3    H224389   6.584   0.108   7.695
  944TIP3   OH224390   7.015   0.509   7.742
  944TIP3    H124391   6.939   0.489   7.795
  944TIP3    H224392   6.998   0.597   7.708
  945TIP3   OH224393   6.223   0.660   7.446
  945TIP3    H124394   6.162   0.662   7.520
  945TIP3    H224395   6.227   0.751   7.417
  946TIP3   OH224396   6.222   0.645   6.907
  946TIP3    H124397   6.127   0.658   6.897
  946TIP3    H224398   6.258   0.664   6.821
  947TIP3   OH224399   6.782   0.721   6.759
  947TIP3    H124400   6.806   0.811   6.736
  947TIP3    H224401   6.848   0.667   6.715
  948TIP3   OH224402   6.678   0.700   7.914
  948TIP3    H124403   6.631   0.627   7.954
  948TIP3    H224404   6.766   0.696   7.953
  949TIP3   OH224405   6.845   0.646   7.040
  949TIP3    H124406   6.832   0.717   6.977
  949TIP3    H224407   6.888   0.577   6.989
  950TIP3   OH224408   6.005   0.654   7.616
  950TIP3    H124409   6.013   0.691   7.704
  950TIP3    H224410   5.962   0.569   7.630
  951TIP3   OH224411   5.675   0.363   6.979
  951TIP3    H124412   5.713   0.378   7.066
  951TIP3    H224413   5.652   0.451   6.948
  952TIP3   OH224414   6.770   0.770   7.498
  952TIP3    H124415   6.805   0.710   7.432
  952TIP3    H224416   6.717   0.714   7.555
  953TIP3   OH224417   6.449   0.391   7.009
  953TIP3    H124418   6.408   0.425   7.088
  953TIP3    H224419   6.518   0.333   7.040
  954TIP3   OH224420   5.945   0.591   6.894
  954TIP3    H124421   5.869   0.627   6.847
  954TIP3    H224422   5.926   0.497   6.901
  955TIP3   OH224423   6.316   0.595   6.645
  955TIP3    H124424   6.398   0.645   6.640
  955TIP3    H224425   6.266   0.623   6.568
  956TIP3   OH224426   6.913   0.311   7.349
  956TIP3    H124427   6.862   0.321   7.429
  956TIP3    H224428   6.877   0.233   7.307
  957TIP3   OH224429   6.180   0.693   6.424
  957TIP3    H124430   6.095   0.655   6.403
  957TIP3    H224431   6.161   0.785   6.443
  958TIP3   OH224432   7.237   1.901   7.982
  958TIP3    H124433   7.242   1.978   7.925
  958TIP3    H224434   0.025   1.877   7.999
  959TIP3   OH224435   6.017   1.167   7.912
  959TIP3    H124436   6.083   1.169   7.981
  959TIP3    H224437   5.933   1.166   7.958
  960TIP3   OH224438   6.589   0.689   7.190
  960TIP3    H124439   6.675   0.663   7.157
  960TIP3    H224440   6.575   0.633   7.267
  961TIP3   OH224441   6.202   0.250   6.865
  961TIP3    H124442   6.124   0.201   6.890
  961TIP3    H224443   6.275   0.191   6.883
  962TIP3   OH224444   6.479   0.554   7.427
  962TIP3    H124445   6.398   0.603   7.436
  962TIP3    H224446   6.531   0.578   7.503
  963TIP3   OH224447   6.376   1.159   6.635
  963TIP3    H124448   6.446   1.099   6.610
  963TIP3    H224449   6.390   1.176   6.728
  964TIP3   OH224450   7.182   1.075   7.509
  964TIP3    H124451   7.256   1.060   7.451
  964TIP3    H224452   7.105   1.069   7.452
  965TIP3   OH224453   6.700   1.179   7.736
  965TIP3    H124454   6.709   1.134   7.820
  965TIP3    H224455   6.664   1.265   7.757
  966TIP3   OH224456   7.009   0.629   6.632
  966TIP3    H124457   7.090   0.591   6.667
  966TIP3    H224458   7.018   0.723   6.645
  967TIP3   OH224459   6.034   1.075   7.174
  967TIP3    H124460   6.091   1.066   7.098
  967TIP3    H224461   6.075   1.022   7.242
  968TIP3   OH224462   5.755   0.911   7.714
  968TIP3    H124463   5.744   0.874   7.802
  968TIP3    H224464   5.681   0.876   7.664
  969TIP3   OH224465   6.466   0.879   7.941
  969TIP3    H124466   6.403   0.843   7.879
  969TIP3    H224467   6.548   0.834   7.921
  970TIP3   OH224468   6.885   1.445   7.737
  970TIP3    H124469   6.791   1.447   7.721
  970TIP3    H224470   6.894   1.460   7.831
  971TIP3   OH224471   6.969   1.033   7.321
  971TIP3    H124472   6.879   1.024   7.291
  971TIP3    H224473   7.012   0.953   7.290
  972TIP3   OH224474   6.291   1.438   6.959
  972TIP3    H124475   6.316   1.520   6.916
  972TIP3    H224476   6.196   1.440   6.962
  973TIP3   OH224477   6.401   1.193   6.904
  973TIP3    H124478   6.369   1.282   6.921
  973TIP3    H224479   6.333   1.136   6.939
  974TIP3   OH224480   6.490   1.609   7.528
  974TIP3    H124481   6.544   1.685   7.504
  974TIP3    H224482   6.550   1.551   7.574
  975TIP3   OH224483   6.288   1.687   6.834
  975TIP3    H124484   6.198   1.710   6.857
  975TIP3    H224485   6.340   1.761   6.864
  976TIP3   OH224486   6.794   1.231   7.478
  976TIP3    H124487   6.766   1.204   7.566
  976TIP3    H224488   6.862   1.167   7.455
  977TIP3   OH224489   7.098   1.641   7.705
  977TIP3    H124490   7.017   1.593   7.688
  977TIP3    H224491   7.094   1.716   7.646
  978TIP3   OH224492   5.882   0.399   7.652
  978TIP3    H124493   5.790   0.424   7.641
  978TIP3    H224494   5.881   0.332   7.720
  979TIP3   OH224495   5.885   1.593   7.515
  979TIP3    H124496   5.912   1.516   7.566
  979TIP3    H224497   5.902   1.667   7.573
  980TIP3   OH224498   6.012   1.139   6.608
  980TIP3    H124499   5.935   1.196   6.608
  980TIP3    H224500   6.027   1.119   6.515
  981TIP3   OH224501   6.782   0.345   7.591
  981TIP3    H124502   6.836   0.357   7.669
  981TIP3    H224503   6.737   0.263   7.606
  982TIP3   OH224504   6.871   0.284   6.672
  982TIP3    H124505   6.920   0.276   6.590
  982TIP3    H224506   6.902   0.368   6.709
  983TIP3   OH224507   6.561   0.575   6.810
  983TIP3    H124508   6.630   0.631   6.772
  983TIP3    H224509   6.591   0.557   6.899
  984TIP3   OH224510   6.637   0.589   7.653
  984TIP3    H124511   6.651   0.617   7.743
  984TIP3    H224512   6.683   0.505   7.647
  985TIP3   OH224513   6.663   0.190   6.827
  985TIP3    H124514   6.689   0.199   6.919
  985TIP3    H224515   6.742   0.213   6.778
  986TIP3   OH224516   7.257   0.353   7.705
  986TIP3    H124517   7.191   0.409   7.744
  986TIP3    H224518   7.224   0.336   7.616
  987TIP3   OH224519   7.062   0.794   7.222
  987TIP3    H124520   7.045   0.779   7.129
  987TIP3    H224521   7.112   0.717   7.250
  988TIP3   OH224522   7.238   1.716   7.339
  988TIP3    H124523   7.218   1.783   7.274
  988TIP3    H224524   0.027   1.696   7.327
  989TIP3   OH224525   5.915   0.137   7.238
  989TIP3    H124526   5.917   0.121   7.144
  989TIP3    H224527   5.836   0.092   7.268
  990TIP3   OH224528   5.844   1.511   6.827
  990TIP3    H124529   5.789   1.533   6.902
  990TIP3    H224530   5.807   1.561   6.754
  991TIP3   OH224531   5.794   1.796   7.976
  991TIP3    H124532   5.861   1.768   8.038
  991TIP3    H224533   5.751   1.715   7.948
  992TIP3   OH224534   6.270   1.597   8.153
  992TIP3    H124535   6.339   1.532   8.145
  992TIP3    H224536   6.223   1.593   8.070
  993TIP3   OH224537   6.882   1.483   8.012
  993TIP3    H124538   6.852   1.397   8.043
  993TIP3    H224539   6.962   1.500   8.061
  994TIP3   OH224540   5.773   1.144   8.040
  994TIP3    H124541   5.773   1.049   8.028
  994TIP3    H224542   5.700   1.175   7.986
  995TIP3   OH224543   6.178   1.186   6.315
  995TIP3    H124544   6.194   1.108   6.370
  995TIP3    H224545   6.265   1.216   6.291
  996TIP3   OH224546   6.428   1.151   8.002
  996TIP3    H124547   6.415   1.197   7.919
  996TIP3    H224548   6.455   1.063   7.976
  997TIP3   OH224549   6.995   1.123   7.788
  997TIP3    H124550   7.081   1.163   7.772
  997TIP3    H224551   6.932   1.187   7.753
  998TIP3   OH224552   5.851   0.876   7.994
  998TIP3    H124553   5.937   0.868   7.952
  998TIP3    H224554   5.869   0.874   8.088
  999TIP3   OH224555   6.220   0.963   6.493
  999TIP3    H124556   6.243   1.025   6.562
  999TIP3    H224557   6.304   0.942   6.451
 1000TIP3   OH224558   6.271   0.781   7.753
 1000TIP3    H124559   6.195   0.839   7.750
 1000TIP3    H224560   6.331   0.817   7.688
 1001TIP3   OH224561   6.778   1.009   8.050
 1001TIP3    H124562   6.869   0.990   8.029
 1001TIP3    H224563   6.749   0.934   8.103
 1002TIP3   OH224564   6.310   0.523   7.835
 1002TIP3    H124565   6.322   0.465   7.759
 1002TIP3    H224566   6.302   0.611   7.797
 1003TIP3   OH224567   6.341   0.371   7.600
 1003TIP3    H124568   6.397   0.415   7.536
 1003TIP3    H224569   6.255   0.365   7.557
 1004TIP3   OH224570   6.460   0.889   7.591
 1004TIP3    H124571   6.555   0.892   7.585
 1004TIP3    H224572   6.430   0.969   7.549
 1005TIP3   OH224573   6.919   0.646   8.056
 1005TIP3    H124574   6.936   0.554   8.072
 1005TIP3    H224575   6.998   0.679   8.014
 1006TIP3   OH224576   7.051   0.965   8.003
 1006TIP3    H124577   7.037   1.019   7.925
 1006TIP3    H224578   7.090   0.884   7.970
 1007TIP3   OH224579   6.156   0.580   8.058
 1007TIP3    H124580   6.071   0.541   8.038
 1007TIP3    H224581   6.206   0.573   7.977
 1008TIP3   OH224582   6.389   0.127   7.720
 1008TIP3    H124583   6.373   0.215   7.685
 1008TIP3    H224584   6.324   0.072   7.677
 1009TIP3   OH224585   6.539   0.478   7.991
 1009TIP3    H124586   6.513   0.435   8.073
 1009TIP3    H224587   6.457   0.486   7.941
 1010TIP3   OH224588   6.791   0.414   7.878
 1010TIP3    H124589   6.703   0.423   7.916
 1010TIP3    H224590   6.846   0.385   7.950
 1011TIP3   OH224591   6.967   0.362   8.088
 1011TIP3    H124592   6.973   0.268   8.076
 1011TIP3    H224593   6.940   0.373   8.179
 1012TIP3   OH224594   5.925   0.437   8.016
 1012TIP3    H124595   5.926   0.367   7.950
 1012TIP3    H224596   5.931   0.391   8.100
 1013TIP3   OH224597   6.506   7.299   7.922
 1013TIP3    H124598   6.438   7.279   7.987
 1013TIP3    H224599   6.461   0.048   7.856
 1014TIP3   OH224600   6.526   0.195   8.147
 1014TIP3    H124601   6.542   0.128   8.080
 1014TIP3    H224602   6.441   0.232   8.124
 1015TIP3   OH224603   5.646   1.818   6.868
 1015TIP3    H124604   5.565   1.790   6.826
 1015TIP3    H224605   5.663   1.751   6.935
 1016TIP3   OH224606   5.721   1.627   7.059
 1016TIP3    H124607   5.685   1.553   7.109
 1016TIP3    H224608   5.775   1.675   7.122
 1017TIP3   OH224609   7.264   1.443   7.595
 1017TIP3    H124610   7.217   1.518   7.633
 1017TIP3    H224611   7.222   1.430   7.510
 1018TIP3   OH224612   7.232   0.742   6.977
 1018TIP3    H124613   7.277   0.672   7.024
 1018TIP3    H224614   7.269   0.823   7.013
 1019TIP3   OH224615   5.724   0.977   7.339
 1019TIP3    H124616   5.737   0.971   7.244
 1019TIP3    H224617   5.807   0.947   7.376
 1020TIP3   OH224618   7.225   0.510   6.752
 1020TIP3    H124619   7.261   0.486   6.837
 1020TIP3    H224620   7.303   0.527   6.698
 1021TIP3   OH224621   7.250   0.494   7.276
 1021TIP3    H124622   0.028   0.452   7.250
 1021TIP3    H224623   7.277   0.579   7.311
 1022TIP3   OH224624   7.267   0.710   7.617
 1022TIP3    H124625   7.174   0.724   7.605
 1022TIP3    H224626   7.302   0.704   7.528
 1023TIP3   OH224627   5.687   0.496   7.892
 1023TIP3    H124628   5.769   0.488   7.940
 1023TIP3    H224629   5.642   0.413   7.908
 1024TIP3   OH224630   7.103   0.129   6.820
 1024TIP3    H124631   7.193   0.158   6.804
 1024TIP3    H224632   7.050   0.176   6.757
 1025TIP3   OH224633   5.802   0.388   7.226
 1025TIP3    H124634   5.848   0.305   7.238
 1025TIP3    H224635   5.864   0.455   7.256
 1026TIP3   OH224636   5.647   0.670   7.292
 1026TIP3    H124637   5.721   0.674   7.231
 1026TIP3    H224638   5.675   0.721   7.367
 1027TIP3   OH224639   7.122   1.729   6.955
 1027TIP3    H124640   7.149   1.777   6.877
 1027TIP3    H224641   7.202   1.716   7.006
 1028TIP3   OH224642   5.687   0.069   7.497
 1028TIP3    H124643   5.633   0.058   7.575
 1028TIP3    H224644   5.662   0.155   7.462
 1029TIP3   OH224645   5.898   1.505   7.982
 1029TIP3    H124646   5.815   1.510   7.935
 1029TIP3    H224647   5.877   1.458   8.063
 1030TIP3   OH224648   6.232   1.591   7.623
 1030TIP3    H124649   6.201   1.677   7.592
 1030TIP3    H224650   6.325   1.590   7.599
 1031TIP3   OH224651   6.596   1.698   7.894
 1031TIP3    H124652   6.616   1.667   7.983
 1031TIP3    H224653   6.674   1.748   7.869
 1032TIP3   OH224654   6.827   1.839   7.845
 1032TIP3    H124655   6.889   1.794   7.788
 1032TIP3    H224656   6.879   1.862   7.923
 1033TIP3   OH224657   5.921   1.862   7.623
 1033TIP3    H124658   5.844   1.906   7.586
 1033TIP3    H224659   5.937   1.908   7.706
 1034TIP3   OH224660   6.183   1.849   7.537
 1034TIP3    H124661   6.090   1.858   7.558
 1034TIP3    H224662   6.193   1.893   7.452
 1035TIP3   OH224663   6.630   1.831   7.442
 1035TIP3    H124664   6.598   1.862   7.358
 1035TIP3    H224665   6.647   1.911   7.492
 1036TIP3   OH224666   6.852   1.711   7.554
 1036TIP3    H124667   6.777   1.750   7.509
 1036TIP3    H224668   6.926   1.768   7.531
 1037TIP3   OH224669   7.084   1.856   7.521
 1037TIP3    H124670   7.100   1.949   7.504
 1037TIP3    H224671   7.139   1.810   7.458
 1038TIP3   OH224672   5.884   1.733   7.275
 1038TIP3    H124673   5.881   1.690   7.360
 1038TIP3    H224674   5.963   1.699   7.233
 1039TIP3   OH224675   6.103   1.611   7.171
 1039TIP3    H124676   6.090   1.519   7.195
 1039TIP3    H224677   6.190   1.632   7.204
 1040TIP3   OH224678   6.359   1.634   7.280
 1040TIP3    H124679   6.371   1.544   7.249
 1040TIP3    H224680   6.396   1.634   7.368
 1041TIP3   OH224681   6.625   0.211   7.112
 1041TIP3    H124682   6.574   0.145   7.158
 1041TIP3    H224683   6.716   0.184   7.124
 1042TIP3   OH224684   7.221   0.004   7.205
 1042TIP3    H124685   0.005   7.270   7.213
 1042TIP3    H224686   7.220   0.043   7.118
 1043TIP3   OH224687   5.994   0.085   6.965
 1043TIP3    H124688   5.931   0.035   6.912
 1043TIP3    H224689   6.040   0.019   7.016
 1044TIP3   OH224690   6.415   0.083   6.915
 1044TIP3    H124691   6.505   0.103   6.889
 1044TIP3    H224692   6.421   0.065   7.009
 1045TIP3   OH224693   6.885   0.133   7.114
 1045TIP3    H124694   6.957   0.192   7.092
 1045TIP3    H224695   6.908   0.050   7.073
 1046TIP3   OH224696   5.723   1.677   6.643
 1046TIP3    H124697   5.639   1.661   6.600
 1046TIP3    H224698   5.705   1.744   6.709
 1047TIP3   OH224699   6.504   0.290   6.630
 1047TIP3    H124700   6.567   0.245   6.686
 1047TIP3    H224701   6.554   0.312   6.551
 1048TIP3   OH224702   5.888   0.210   7.859
 1048TIP3    H124703   5.805   0.169   7.883
 1048TIP3    H224704   5.954   0.163   7.910
 1049TIP3   OH224705   6.055   0.084   8.045
 1049TIP3    H124706   6.145   0.056   8.064
 1049TIP3    H224707   6.005   0.003   8.040
 1050TIP3   OH224708   6.992   0.092   8.068
 1050TIP3    H124709   6.937   0.024   8.104
 1050TIP3    H224710   7.058   0.045   8.016
 1051TIP3   OH224711   7.214   1.621   7.955
 1051TIP3    H124712   7.178   1.610   7.867
 1051TIP3    H224713   7.228   1.715   7.964
 1052TIP3   OH224714   1.161   2.875   6.879
 1052TIP3    H124715   1.170   2.969   6.861
 1052TIP3    H224716   1.101   2.871   6.953
 1053TIP3   OH224717   1.082   2.812   7.294
 1053TIP3    H124718   1.108   2.778   7.379
 1053TIP3    H224719   1.030   2.742   7.255
 1054TIP3   OH224720   0.318   2.751   7.423
 1054TIP3    H124721   0.321   2.673   7.478
 1054TIP3    H224722   0.409   2.766   7.398
 1055TIP3   OH224723   1.469   3.122   7.145
 1055TIP3    H124724   1.428   3.051   7.194
 1055TIP3    H224725   1.486   3.190   7.211
 1056TIP3   OH224726   0.424   3.246   7.252
 1056TIP3    H124727   0.405   3.155   7.229
 1056TIP3    H224728   0.519   3.248   7.266
 1057TIP3   OH224729   0.123   2.594   6.779
 1057TIP3    H124730   0.082   2.680   6.789
 1057TIP3    H224731   0.049   2.535   6.761
 1058TIP3   OH224732   0.157   2.813   7.101
 1058TIP3    H124733   0.174   2.719   7.100
 1058TIP3    H224734   0.144   2.836   7.009
 1059TIP3   OH224735   1.195   3.615   7.152
 1059TIP3    H124736   1.238   3.559   7.087
 1059TIP3    H224737   1.148   3.554   7.209
 1060TIP3   OH224738   0.918   3.069   7.318
 1060TIP3    H124739   0.954   2.989   7.279
 1060TIP3    H224740   0.986   3.100   7.376
 1061TIP3   OH224741   1.800   2.209   7.411
 1061TIP3    H124742   1.818   2.280   7.473
 1061TIP3    H224743   1.856   2.228   7.336
 1062TIP3   OH224744   1.237   2.484   7.329
 1062TIP3    H124745   1.255   2.390   7.339
 1062TIP3    H224746   1.216   2.494   7.236
 1063TIP3   OH224747   0.602   2.308   7.052
 1063TIP3    H124748   0.604   2.395   7.012
 1063TIP3    H224749   0.552   2.254   6.990
 1064TIP3   OH224750   1.352   2.326   6.905
 1064TIP3    H124751   1.390   2.292   6.986
 1064TIP3    H224752   1.426   2.360   6.855
 1065TIP3   OH224753   0.220   2.544   7.146
 1065TIP3    H124754   0.294   2.507   7.193
 1065TIP3    H224755   0.231   2.513   7.056
 1066TIP3   OH224756   0.708   2.707   7.114
 1066TIP3    H124757   0.792   2.668   7.138
 1066TIP3    H224758   0.669   2.645   7.053
 1067TIP3   OH224759   1.841   2.374   7.635
 1067TIP3    H124760   1.769   2.435   7.618
 1067TIP3    H224761   1.870   2.397   7.724
 1068TIP3   OH224762   0.430   2.227   7.488
 1068TIP3    H124763   0.410   2.281   7.411
 1068TIP3    H224764   0.357   2.242   7.547
 1069TIP3   OH224765   1.174   3.146   6.829
 1069TIP3    H124766   1.149   3.149   6.736
 1069TIP3    H224767   1.133   3.224   6.866
 1070TIP3   OH224768   0.696   2.996   7.470
 1070TIP3    H124769   0.641   3.067   7.501
 1070TIP3    H224770   0.762   3.039   7.415
 1071TIP3   OH224771   1.456   2.280   7.151
 1071TIP3    H124772   1.402   2.236   7.217
 1071TIP3    H224773   1.515   2.336   7.202
 1072TIP3   OH224774   0.426   2.383   7.256
 1072TIP3    H124775   0.482   2.437   7.312
 1072TIP3    H224776   0.485   2.351   7.187
 1073TIP3   OH224777   0.539   3.197   7.583
 1073TIP3    H124778   0.546   3.291   7.569
 1073TIP3    H224779   0.446   3.184   7.603
 1074TIP3   OH224780   0.134   3.103   6.648
 1074TIP3    H124781   0.132   3.149   6.564
 1074TIP3    H224782   0.173   3.166   6.708
 1075TIP3   OH224783   1.497   3.336   7.332
 1075TIP3    H124784   1.403   3.336   7.349
 1075TIP3    H224785   1.518   3.425   7.305
 1076TIP3   OH224786   1.548   2.114   7.498
 1076TIP3    H124787   1.479   2.149   7.442
 1076TIP3    H224788   1.629   2.139   7.455
 1077TIP3   OH224789   0.805   1.940   7.240
 1077TIP3    H124790   0.790   1.930   7.146
 1077TIP3    H224791   0.721   1.971   7.274
 1078TIP3   OH224792   1.328   3.485   6.944
 1078TIP3    H124793   1.364   3.398   6.930
 1078TIP3    H224794   1.404   3.543   6.947
 1079TIP3   OH224795   1.429   3.236   6.898
 1079TIP3    H124796   1.350   3.190   6.868
 1079TIP3    H224797   1.452   3.191   6.980
 1080TIP3   OH224798   1.605   3.116   7.690
 1080TIP3    H124799   1.595   3.058   7.614
 1080TIP3    H224800   1.617   3.203   7.652
 1081TIP3   OH224801   1.764   2.772   7.511
 1081TIP3    H124802   1.691   2.834   7.506
 1081TIP3    H224803   1.822   2.798   7.439
 1082TIP3   OH224804   1.394   2.787   6.751
 1082TIP3    H124805   1.323   2.821   6.805
 1082TIP3    H224806   1.462   2.763   6.813
 1083TIP3   OH224807   1.375   2.642   7.714
 1083TIP3    H124808   1.371   2.717   7.773
 1083TIP3    H224809   1.314   2.664   7.643
 1084TIP3   OH224810   0.564   2.901   6.952
 1084TIP3    H124811   0.516   2.863   6.878
 1084TIP3    H224812   0.610   2.827   6.991
 1085TIP3   OH224813   0.708   3.254   7.223
 1085TIP3    H124814   0.699   3.254   7.128
 1085TIP3    H224815   0.781   3.195   7.240
 1086TIP3   OH224816   0.582   2.776   7.349
 1086TIP3    H124817   0.624   2.766   7.264
 1086TIP3    H224818   0.617   2.858   7.384
 1087TIP3   OH224819   1.237   3.340   7.406
 1087TIP3    H124820   1.216   3.414   7.463
 1087TIP3    H224821   1.189   3.267   7.443
 1088TIP3   OH224822   0.701   3.223   7.806
 1088TIP3    H124823   0.641   3.284   7.847
 1088TIP3    H224824   0.656   3.195   7.726
 1089TIP3   OH224825   0.384   2.818   7.740
 1089TIP3    H124826   0.385   2.890   7.804
 1089TIP3    H224827   0.336   2.853   7.665
 1090TIP3   OH224828   1.070   3.397   6.882
 1090TIP3    H124829   1.151   3.443   6.905
 1090TIP3    H224830   1.016   3.464   6.841
 1091TIP3   OH224831   0.506   3.412   7.872
 1091TIP3    H124832   0.518   3.440   7.781
 1091TIP3    H224833   0.411   3.412   7.884
 1092TIP3   OH224834   1.641   1.947   6.523
 1092TIP3    H124835   1.548   1.953   6.544
 1092TIP3    H224836   1.682   2.016   6.576
 1093TIP3   OH224837   0.421   2.815   6.725
 1093TIP3    H124838   0.342   2.857   6.691
 1093TIP3    H224839   0.422   2.729   6.683
 1094TIP3   OH224840   0.192   2.986   7.603
 1094TIP3    H124841   0.162   2.974   7.513
 1094TIP3    H224842   0.136   2.930   7.655
 1095TIP3   OH224843   0.139   3.360   7.254
 1095TIP3    H124844   0.213   3.302   7.237
 1095TIP3    H224845   0.150   3.387   7.345
 1096TIP3   OH224846   1.862   3.420   7.893
 1096TIP3    H124847   1.852   3.325   7.883
 1096TIP3    H224848   1.778   3.449   7.928
 1097TIP3   OH224849   0.943   3.345   7.753
 1097TIP3    H124850   0.939   3.430   7.796
 1097TIP3    H224851   0.857   3.305   7.769
 1098TIP3   OH224852   1.033   3.696   6.730
 1098TIP3    H124853   0.980   3.683   6.651
 1098TIP3    H224854   0.999   3.777   6.768
 1099TIP3   OH224855   0.370   3.583   6.891
 1099TIP3    H124856   0.372   3.537   6.975
 1099TIP3    H224857   0.310   3.531   6.837
 1100TIP3   OH224858   1.319   3.636   6.429
 1100TIP3    H124859   1.382   3.574   6.393
 1100TIP3    H224860   1.329   3.627   6.524
 1101TIP3   OH224861   1.298   3.636   6.704
 1101TIP3    H124862   1.204   3.654   6.712
 1101TIP3    H224863   1.317   3.577   6.777
 1102TIP3   OH224864   1.533   2.524   7.925
 1102TIP3    H124865   1.485   2.565   7.854
 1102TIP3    H224866   1.545   2.433   7.897
 1103TIP3   OH224867   0.283   3.213   7.727
 1103TIP3    H124868   0.326   3.159   7.793
 1103TIP3    H224869   0.234   3.151   7.673
 1104TIP3   OH224870   0.550   2.026   7.331
 1104TIP3    H124871   0.480   2.016   7.266
 1104TIP3    H224872   0.520   2.099   7.387
 1105TIP3   OH224873   1.005   2.012   7.726
 1105TIP3    H124874   1.052   1.938   7.685
 1105TIP3    H224875   0.915   2.003   7.695
 1106TIP3   OH224876   1.302   2.372   7.741
 1106TIP3    H124877   1.237   2.368   7.811
 1106TIP3    H224878   1.317   2.466   7.728
 1107TIP3   OH224879   0.565   2.525   7.450
 1107TIP3    H124880   0.496   2.530   7.515
 1107TIP3    H224881   0.575   2.616   7.420
 1108TIP3   OH224882   0.578   2.553   6.933
 1108TIP3    H124883   0.485   2.534   6.923
 1108TIP3    H224884   0.612   2.557   6.843
 1109TIP3   OH224885   1.118   2.596   6.807
 1109TIP3    H124886   1.128   2.692   6.809
 1109TIP3    H224887   1.186   2.566   6.747
 1110TIP3   OH224888   1.039   2.582   7.905
 1110TIP3    H124889   0.975   2.529   7.951
 1110TIP3    H224890   1.118   2.577   7.959
 1111TIP3   OH224891   1.203   2.506   7.057
 1111TIP3    H124892   1.160   2.552   6.984
 1111TIP3    H224893   1.248   2.432   7.015
 1112TIP3   OH224894   0.341   2.543   7.611
 1112TIP3    H124895   0.331   2.605   7.683
 1112TIP3    H224896   0.293   2.465   7.639
 1113TIP3   OH224897   0.035   2.327   6.971
 1113TIP3    H124898   0.088   2.302   7.047
 1113TIP3    H224899   0.003   2.244   6.936
 1114TIP3   OH224900   0.068   2.424   6.468
 1114TIP3    H124901   0.160   2.427   6.441
 1114TIP3    H224902   0.029   2.502   6.429
 1115TIP3   OH224903   1.170   2.664   7.520
 1115TIP3    H124904   1.202   2.605   7.452
 1115TIP3    H224905   1.098   2.616   7.561
 1116TIP3   OH224906   0.883   2.275   7.013
 1116TIP3    H124907   0.791   2.277   7.039
 1116TIP3    H224908   0.929   2.234   7.086
 1117TIP3   OH224909   0.324   2.456   6.904
 1117TIP3    H124910   0.257   2.494   6.847
 1117TIP3    H224911   0.335   2.367   6.871
 1118TIP3   OH224912   0.669   2.546   6.680
 1118TIP3    H124913   0.748   2.492   6.679
 1118TIP3    H224914   0.641   2.548   6.588
 1119TIP3   OH224915   1.257   2.206   7.346
 1119TIP3    H124916   1.209   2.212   7.429
 1119TIP3    H224917   1.194   2.170   7.284
 1120TIP3   OH224918   0.583   2.582   6.420
 1120TIP3    H124919   0.498   2.548   6.393
 1120TIP3    H224920   0.645   2.546   6.356
 1121TIP3   OH224921   1.600   3.781   7.987
 1121TIP3    H124922   1.625   3.813   7.901
 1121TIP3    H224923   1.674   3.803   8.044
 1122TIP3   OH224924   0.362   3.030   7.921
 1122TIP3    H124925   0.420   3.030   7.997
 1122TIP3    H224926   0.274   3.038   7.958
 1123TIP3   OH224927   0.940   2.579   7.209
 1123TIP3    H124928   0.997   2.521   7.159
 1123TIP3    H224929   0.904   2.523   7.279
 1124TIP3   OH224930   0.440   2.194   6.856
 1124TIP3    H124931   0.393   2.114   6.881
 1124TIP3    H224932   0.442   2.192   6.761
 1125TIP3   OH224933   0.825   2.440   7.426
 1125TIP3    H124934   0.738   2.479   7.436
 1125TIP3    H224935   0.875   2.473   7.501
 1126TIP3   OH224936   1.571   2.964   7.462
 1126TIP3    H124937   1.632   3.020   7.414
 1126TIP3    H224938   1.501   2.946   7.400
 1127TIP3   OH224939   1.211   2.319   6.488
 1127TIP3    H124940   1.180   2.331   6.398
 1127TIP3    H224941   1.245   2.405   6.513
 1128TIP3   OH224942   1.014   3.055   7.754
 1128TIP3    H124943   1.047   3.023   7.838
 1128TIP3    H224944   0.989   3.146   7.771
 1129TIP3   OH224945   1.336   2.528   6.645
 1129TIP3    H124946   1.411   2.474   6.671
 1129TIP3    H224947   1.368   2.618   6.648
 1130TIP3   OH224948   0.421   2.984   7.179
 1130TIP3    H124949   0.467   2.965   7.097
 1130TIP3    H224950   0.376   2.902   7.201
 1131TIP3   OH224951   1.040   3.151   6.591
 1131TIP3    H124952   1.022   3.239   6.556
 1131TIP3    H224953   0.966   3.132   6.648
 1132TIP3   OH224954   0.057   2.803   7.753
 1132TIP3    H124955   0.094   2.777   7.837
 1132TIP3    H224956   0.030   2.721   7.712
 1133TIP3   OH224957   0.806   2.762   7.948
 1133TIP3    H124958   0.741   2.731   7.885
 1133TIP3    H224959   0.890   2.732   7.912
 1134TIP3   OH224960   1.223   3.325   7.747
 1134TIP3    H124961   1.130   3.332   7.729
 1134TIP3    H224962   1.231   3.346   7.840
 1135TIP3   OH224963   1.825   3.143   7.852
 1135TIP3    H124964   1.735   3.142   7.819
 1135TIP3    H224965   1.879   3.123   7.775
 1136TIP3   OH224966   1.723   3.403   6.573
 1136TIP3    H124967   1.642   3.362   6.603
 1136TIP3    H224968   1.731   3.375   6.482
 1137TIP3   OH224969   1.365   2.895   7.280
 1137TIP3    H124970   1.270   2.884   7.278
 1137TIP3    H224971   1.398   2.816   7.236
 1138TIP3   OH224972   0.652   3.293   6.954
 1138TIP3    H124973   0.671   3.384   6.931
 1138TIP3    H224974   0.560   3.280   6.929
 1139TIP3   OH224975   0.187   2.820   6.410
 1139TIP3    H124976   0.132   2.895   6.432
 1139TIP3    H224977   0.132   2.767   6.352
 1140TIP3   OH224978   0.749   3.067   6.815
 1140TIP3    H124979   0.737   3.153   6.856
 1140TIP3    H224980   0.690   3.009   6.863
 1141TIP3   OH224981   0.837   3.492   7.524
 1141TIP3    H124982   0.892   3.566   7.500
 1141TIP3    H224983   0.893   3.436   7.578
 1142TIP3   OH224984   0.650   3.557   6.891
 1142TIP3    H124985   0.559   3.579   6.870
 1142TIP3    H224986   0.693   3.642   6.902
 1143TIP3   OH224987   1.125   3.100   7.505
 1143TIP3    H124988   1.085   3.082   7.590
 1143TIP3    H224989   1.205   3.047   7.504
 1144TIP3   OH224990   1.430   3.529   7.716
 1144TIP3    H124991   1.349   3.483   7.698
 1144TIP3    H224992   1.430   3.602   7.654
 1145TIP3   OH224993   0.222   2.279   7.674
 1145TIP3    H124994   0.126   2.287   7.676
 1145TIP3    H224995   0.239   2.196   7.719
 1146TIP3   OH224996   1.474   2.985   6.572
 1146TIP3    H124997   1.451   2.919   6.638
 1146TIP3    H224998   1.566   3.005   6.589
 1147TIP3   OH224999   0.222   3.486   7.510
 1147TIP3    H125000   0.212   3.411   7.569
 1147TIP3    H225001   0.243   3.559   7.568
 1148TIP3   OH225002   1.123   2.230   7.588
 1148TIP3    H125003   1.195   2.266   7.640
 1148TIP3    H225004   1.082   2.165   7.646
 1149TIP3   OH225005   1.200   2.174   6.723
 1149TIP3    H125006   1.196   2.219   6.638
 1149TIP3    H225007   1.245   2.235   6.781
 1150TIP3   OH225008   0.934   3.399   6.526
 1150TIP3    H125009   0.840   3.417   6.521
 1150TIP3    H225010   0.975   3.472   6.481
 1151TIP3   OH225011   0.906   2.408   6.759
 1151TIP3    H125012   0.976   2.472   6.769
 1151TIP3    H225013   0.895   2.371   6.846
 1152TIP3   OH225014   0.992   2.492   7.642
 1152TIP3    H125015   1.004   2.518   7.733
 1152TIP3    H225016   1.027   2.403   7.638
 1153TIP3   OH225017   0.961   2.083   6.824
 1153TIP3    H125018   0.938   2.154   6.885
 1153TIP3    H225019   1.047   2.108   6.790
 1154TIP3   OH225020   1.560   2.284   7.778
 1154TIP3    H125021   1.467   2.296   7.761
 1154TIP3    H225022   1.598   2.263   7.693
 1155TIP3   OH225023   1.440   2.648   7.159
 1155TIP3    H125024   1.358   2.603   7.138
 1155TIP3    H225025   1.487   2.587   7.216
 1156TIP3   OH225026   1.572   3.607   7.315
 1156TIP3    H125027   1.561   3.676   7.249
 1156TIP3    H225028   1.667   3.603   7.329
 1157TIP3   OH225029   0.311   1.998   7.194
 1157TIP3    H125030   0.313   1.985   7.099
 1157TIP3    H225031   0.280   1.914   7.228
 1158TIP3   OH225032   0.181   3.458   6.719
 1158TIP3    H125033   0.092   3.421   6.723
 1158TIP3    H225034   0.193   3.480   6.627
 1159TIP3   OH225035   0.193   3.682   8.004
 1159TIP3    H125036   0.245   3.676   8.085
 1159TIP3    H225037   0.200   3.595   7.965
 1160TIP3   OH225038   0.579   3.496   8.124
 1160TIP3    H125039   0.656   3.442   8.141
 1160TIP3    H225040   0.553   3.474   8.035
 1161TIP3   OH225041   1.229   3.371   8.018
 1161TIP3    H125042   1.211   3.285   8.057
 1161TIP3    H225043   1.308   3.401   8.064
 1162TIP3   OH225044   1.507   3.464   6.312
 1162TIP3    H125045   1.585   3.411   6.324
 1162TIP3    H225046   1.494   3.469   6.218
 1163TIP3   OH225047   0.091   3.043   7.994
 1163TIP3    H125048   0.096   2.947   7.989
 1163TIP3    H225049   0.039   3.068   7.919
 1164TIP3   OH225050   0.768   3.043   8.006
 1164TIP3    H125051   0.756   3.089   7.924
 1164TIP3    H225052   0.797   2.956   7.981
 1165TIP3   OH225053   1.043   3.087   6.237
 1165TIP3    H125054   0.979   3.137   6.186
 1165TIP3    H225055   1.052   3.005   6.190
 1166TIP3   OH225056   1.343   3.071   7.765
 1166TIP3    H125057   1.434   3.092   7.744
 1166TIP3    H225058   1.296   3.154   7.753
 1167TIP3   OH225059   0.185   2.771   7.993
 1167TIP3    H125060   0.275   2.748   7.971
 1167TIP3    H225061   0.184   2.771   8.089
 1168TIP3   OH225062   0.618   2.668   7.756
 1168TIP3    H125063   0.539   2.720   7.746
 1168TIP3    H225064   0.680   2.705   7.693
 1169TIP3   OH225065   1.119   2.895   8.027
 1169TIP3    H125066   1.200   2.861   7.989
 1169TIP3    H225067   1.092   2.828   8.090
 1170TIP3   OH225068   0.659   2.405   7.821
 1170TIP3    H125069   0.666   2.349   7.744
 1170TIP3    H225070   0.645   2.493   7.785
 1171TIP3   OH225071   0.686   2.246   7.588
 1171TIP3    H125072   0.739   2.291   7.522
 1171TIP3    H225073   0.598   2.245   7.552
 1172TIP3   OH225074   0.810   2.788   7.608
 1172TIP3    H125075   0.902   2.814   7.615
 1172TIP3    H225076   0.769   2.860   7.559
 1173TIP3   OH225077   1.258   2.520   8.077
 1173TIP3    H125078   1.269   2.454   8.146
 1173TIP3    H225079   1.347   2.546   8.054
 1174TIP3   OH225080   1.390   2.846   7.909
 1174TIP3    H125081   1.362   2.925   7.863
 1174TIP3    H225082   1.485   2.849   7.907
 1175TIP3   OH225083   0.505   2.439   8.051
 1175TIP3    H125084   0.421   2.397   8.033
 1175TIP3    H225085   0.550   2.442   7.967
 1176TIP3   OH225086   0.740   1.982   7.658
 1176TIP3    H125087   0.719   2.072   7.632
 1176TIP3    H225088   0.677   1.928   7.610
 1177TIP3   OH225089   0.866   2.394   8.000
 1177TIP3    H125090   0.825   2.364   8.081
 1177TIP3    H225091   0.795   2.397   7.936
 1178TIP3   OH225092   1.098   2.280   7.913
 1178TIP3    H125093   1.018   2.324   7.940
 1178TIP3    H225094   1.154   2.280   7.990
 1179TIP3   OH225095   1.236   2.122   8.097
 1179TIP3    H125096   1.294   2.047   8.106
 1179TIP3    H225097   1.263   2.182   8.166
 1180TIP3   OH225098   0.291   2.271   7.999
 1180TIP3    H125099   0.292   2.199   7.935
 1180TIP3    H225100   0.295   2.227   8.084
 1181TIP3   OH225101   0.733   1.899   7.919
 1181TIP3    H125102   0.795   1.826   7.917
 1181TIP3    H225103   0.726   1.927   7.827
 1182TIP3   OH225104   0.868   2.077   8.073
 1182TIP3    H125105   0.811   2.017   8.026
 1182TIP3    H225106   0.811   2.147   8.103
 1183TIP3   OH225107   0.792   3.786   6.373
 1183TIP3    H125108   0.870   3.731   6.381
 1183TIP3    H225109   0.719   3.724   6.373
 1184TIP3   OH225110   0.139   3.268   6.435
 1184TIP3    H125111   0.098   3.353   6.451
 1184TIP3    H225112   0.218   3.290   6.385
 1185TIP3   OH225113   0.062   3.743   6.833
 1185TIP3    H125114   0.069   3.700   6.748
 1185TIP3    H225115   0.069   3.672   6.896
 1186TIP3   OH225116   0.061   3.569   7.051
 1186TIP3    H125117   0.060   3.477   7.077
 1186TIP3    H225118   0.115   3.612   7.118
 1187TIP3   OH225119   1.838   3.601   7.391
 1187TIP3    H125120   1.835   3.606   7.487
 1187TIP3    H225121   1.917   3.649   7.367
 1188TIP3   OH225122   1.785   3.573   7.666
 1188TIP3    H125123   1.731   3.502   7.632
 1188TIP3    H225124   1.831   3.533   7.740
 1189TIP3   OH225125   1.626   3.150   8.212
 1189TIP3    H125126   1.542   3.172   8.252
 1189TIP3    H225127   1.674   3.233   8.210
 1190TIP3   OH225128   1.734   2.992   6.692
 1190TIP3    H125129   1.736   3.065   6.754
 1190TIP3    H225130   1.771   2.918   6.740
 1191TIP3   OH225131   1.835   2.782   6.851
 1191TIP3    H125132   1.753   2.749   6.888
 1191TIP3    H225133   1.891   2.797   6.927
 1192TIP3   OH225134   1.799   3.101   7.385
 1192TIP3    H125135   1.849   3.034   7.339
 1192TIP3    H225136   1.828   3.183   7.345
 1193TIP3   OH225137   1.616   3.369   7.582
 1193TIP3    H125138   1.543   3.416   7.623
 1193TIP3    H225139   1.587   3.353   7.492
 1194TIP3   OH225140   1.583   2.669   6.923
 1194TIP3    H125141   1.579   2.577   6.898
 1194TIP3    H225142   1.542   2.673   7.009
 1195TIP3   OH225143   0.094   2.886   7.358
 1195TIP3    H125144   0.095   2.896   7.263
 1195TIP3    H225145   0.176   2.843   7.378
 1196TIP3   OH225146   1.667   2.861   7.897
 1196TIP3    H125147   1.720   2.783   7.881
 1196TIP3    H225148   1.707   2.929   7.842
 1197TIP3   OH225149   1.790   2.618   7.870
 1197TIP3    H125150   1.706   2.580   7.893
 1197TIP3    H225151   1.855   2.552   7.896
 1198TIP3   OH225152   1.572   2.413   6.755
 1198TIP3    H125153   1.595   2.320   6.752
 1198TIP3    H225154   1.646   2.457   6.713
 1199TIP3   OH225155   1.596   2.465   7.307
 1199TIP3    H125156   1.689   2.477   7.286
 1199TIP3    H225157   1.591   2.481   7.402
 1200TIP3   OH225158   1.622   2.545   7.577
 1200TIP3    H125159   1.542   2.580   7.617
 1200TIP3    H225160   1.674   2.623   7.557
 1201TIP3   OH225161   0.067   2.435   8.009
 1201TIP3    H125162   0.146   2.391   7.979
 1201TIP3    H225163   0.016   2.367   8.053
 1202TIP3   OH225164   1.856   1.979   8.088
 1202TIP3    H125165   1.921   1.915   8.060
 1202TIP3    H225166   1.854   2.044   8.018
 1203TIP3   OH225167   1.633   2.142   6.745
 1203TIP3    H125168   1.657   2.105   6.829
 1203TIP3    H225169   1.552   2.097   6.720
 1204TIP3   OH225170   0.185   2.242   7.210
 1204TIP3    H125171   0.219   2.152   7.207
 1204TIP3    H225172   0.262   2.297   7.219
 1205TIP3   OH225173   0.031   2.606   7.343
 1205TIP3    H125174   0.096   2.586   7.275
 1205TIP3    H225175   0.029   2.701   7.348
 1206TIP3   OH225176   1.783   2.154   7.888
 1206TIP3    H125177   1.702   2.205   7.888
 1206TIP3    H225178   1.770   2.088   7.820
 1207TIP3   OH225179   0.168   2.213   6.654
 1207TIP3    H125180   0.089   2.181   6.698
 1207TIP3    H225181   0.135   2.272   6.586
 1208TIP3   OH225182   1.539   3.649   6.926
 1208TIP3    H125183   1.599   3.657   6.853
 1208TIP3    H225184   1.568   3.715   6.989
 1209TIP3   OH225185   0.072   2.011   7.574
 1209TIP3    H125186   0.030   2.077   7.630
 1209TIP3    H225187   0.028   2.020   7.489
 1210TIP3   OH225188   0.228   3.408   7.928
 1210TIP3    H125189   0.219   3.349   7.853
 1210TIP3    H225190   0.173   3.370   7.996
 1211TIP3   OH225191   0.577   3.471   7.609
 1211TIP3    H125192   0.546   3.557   7.580
 1211TIP3    H225193   0.670   3.470   7.585
 1212TIP3   OH225194   0.948   3.588   7.888
 1212TIP3    H125195   0.961   3.558   7.978
 1212TIP3    H225196   1.027   3.638   7.868
 1213TIP3   OH225197   1.181   3.730   7.849
 1213TIP3    H125198   1.249   3.682   7.801
 1213TIP3    H225199   1.225   3.759   7.929
 1214TIP3   OH225200   1.700   1.950   7.717
 1214TIP3    H125201   1.632   1.970   7.652
 1214TIP3    H225202   1.723   1.858   7.700
 1215TIP3   OH225203   0.280   3.735   7.636
 1215TIP3    H125204   0.204   3.781   7.601
 1215TIP3    H225205   0.302   3.784   7.716
 1216TIP3   OH225206   0.537   3.734   7.534
 1216TIP3    H125207   0.444   3.739   7.558
 1216TIP3    H225208   0.543   3.781   7.451
 1217TIP3   OH225209   0.981   3.713   7.439
 1217TIP3    H125210   0.929   3.748   7.366
 1217TIP3    H225211   0.992   3.787   7.498
 1218TIP3   OH225212   1.208   3.588   7.533
 1218TIP3    H125213   1.129   3.628   7.496
 1218TIP3    H225214   1.278   3.649   7.513
 1219TIP3   OH225215   1.453   3.735   7.527
 1219TIP3    H125216   1.468   3.827   7.508
 1219TIP3    H225217   1.492   3.688   7.453
 1220TIP3   OH225218   0.229   3.640   7.278
 1220TIP3    H125219   0.227   3.596   7.363
 1220TIP3    H225220   0.298   3.596   7.229
 1221TIP3   OH225221   0.433   3.504   7.159
 1221TIP3    H125222   0.424   3.414   7.189
 1221TIP3    H225223   0.522   3.528   7.182
 1222TIP3   OH225224   0.701   3.529   7.277
 1222TIP3    H125225   0.709   3.440   7.244
 1222TIP3    H225226   0.734   3.525   7.366
 1223TIP3   OH225227   1.041   2.102   7.189
 1223TIP3    H125228   0.968   2.041   7.199
 1223TIP3    H225229   1.106   2.053   7.138
 1224TIP3   OH225230   1.516   1.957   7.189
 1224TIP3    H125231   1.578   1.999   7.129
 1224TIP3    H225232   1.430   1.971   7.149
 1225TIP3   OH225233   1.703   2.026   6.989
 1225TIP3    H125234   1.769   1.962   6.962
 1225TIP3    H225235   1.754   2.106   7.005
 1226TIP3   OH225236   0.308   1.961   6.921
 1226TIP3    H125237   0.220   1.955   6.883
 1226TIP3    H225238   0.345   1.873   6.911
 1227TIP3   OH225239   0.197   1.942   6.587
 1227TIP3    H125240   0.280   1.906   6.553
 1227TIP3    H225241   0.213   2.036   6.592
 1228TIP3   OH225242   0.766   1.943   6.971
 1228TIP3    H125243   0.833   1.981   6.914
 1228TIP3    H225244   0.697   1.914   6.911
 1229TIP3   OH225245   1.253   1.963   7.073
 1229TIP3    H125246   1.267   1.949   6.979
 1229TIP3    H225247   1.231   1.877   7.107
 1230TIP3   OH225248   1.410   1.995   6.675
 1230TIP3    H125249   1.331   2.049   6.678
 1230TIP3    H225250   1.379   1.907   6.693
 1231TIP3   OH225251   0.850   2.179   6.586
 1231TIP3    H125252   0.878   2.126   6.660
 1231TIP3    H225253   0.866   2.269   6.613
 1232TIP3   OH225254   1.036   3.626   6.400
 1232TIP3    H125255   1.127   3.634   6.428
 1232TIP3    H225256   1.042   3.610   6.306
 1233TIP3   OH225257   1.716   3.649   6.708
 1233TIP3    H125258   1.720   3.560   6.673
 1233TIP3    H225259   1.718   3.706   6.632
 1234TIP3   OH225260   0.301   2.018   7.873
 1234TIP3    H125261   0.243   1.952   7.911
 1234TIP3    H225262   0.384   2.006   7.919
 1235TIP3   OH225263   0.497   1.938   8.054
 1235TIP3    H125264   0.580   1.923   8.009
 1235TIP3    H225265   0.478   1.856   8.099
 1236TIP3   OH225266   1.364   1.878   8.093
 1236TIP3    H125267   1.361   1.833   8.177
 1236TIP3    H225268   1.457   1.878   8.068
 1237TIP3   OH225269   1.602   3.510   7.937
 1237TIP3    H125270   1.542   3.505   7.862
 1237TIP3    H225271   1.601   3.602   7.962
 1238TIP3   OH225272   3.090   2.910   6.912
 1238TIP3    H125273   3.074   3.004   6.909
 1238TIP3    H225274   3.023   2.872   6.856
 1239TIP3   OH225275   2.989   2.812   7.316
 1239TIP3    H125276   2.999   2.763   7.397
 1239TIP3    H225277   2.935   2.757   7.260
 1240TIP3   OH225278   2.144   2.772   7.449
 1240TIP3    H125279   2.126   2.697   7.504
 1240TIP3    H225280   2.239   2.784   7.455
 1241TIP3   OH225281   3.352   3.122   7.146
 1241TIP3    H125282   3.310   3.048   7.191
 1241TIP3    H225283   3.365   3.188   7.215
 1242TIP3   OH225284   2.311   3.225   7.232
 1242TIP3    H125285   2.278   3.139   7.208
 1242TIP3    H225286   2.404   3.211   7.251
 1243TIP3   OH225287   2.000   2.560   6.738
 1243TIP3    H125288   1.939   2.632   6.755
 1243TIP3    H225289   2.001   2.552   6.642
 1244TIP3   OH225290   2.030   2.813   7.061
 1244TIP3    H125291   2.057   2.723   7.083
 1244TIP3    H225292   2.107   2.866   7.082
 1245TIP3   OH225293   3.106   3.589   7.206
 1245TIP3    H125294   3.138   3.557   7.122
 1245TIP3    H225295   3.090   3.510   7.258
 1246TIP3   OH225296   2.795   3.082   7.314
 1246TIP3    H125297   2.824   3.006   7.263
 1246TIP3    H225298   2.871   3.106   7.366
 1247TIP3   OH225299   3.695   2.212   7.410
 1247TIP3    H125300   3.699   2.281   7.477
 1247TIP3    H225301   3.767   2.232   7.351
 1248TIP3   OH225302   3.126   2.482   7.334
 1248TIP3    H125303   3.135   2.386   7.335
 1248TIP3    H225304   3.105   2.502   7.242
 1249TIP3   OH225305   2.466   2.288   7.041
 1249TIP3    H125306   2.470   2.376   7.005
 1249TIP3    H225307   2.418   2.237   6.976
 1250TIP3   OH225308   3.247   2.326   6.929
 1250TIP3    H125309   3.296   2.285   7.000
 1250TIP3    H225310   3.313   2.361   6.871
 1251TIP3   OH225311   2.091   2.548   7.123
 1251TIP3    H125312   2.155   2.504   7.180
 1251TIP3    H225313   2.111   2.516   7.035
 1252TIP3   OH225314   2.596   2.703   7.103
 1252TIP3    H125315   2.682   2.666   7.126
 1252TIP3    H225316   2.554   2.635   7.050
 1253TIP3   OH225317   3.723   2.376   7.636
 1253TIP3    H125318   3.673   2.453   7.610
 1253TIP3    H225319   3.664   2.326   7.692
 1254TIP3   OH225320   2.317   2.232   7.475
 1254TIP3    H125321   2.273   2.261   7.396
 1254TIP3    H225322   2.249   2.230   7.542
 1255TIP3   OH225323   3.036   3.172   6.840
 1255TIP3    H125324   3.013   3.163   6.747
 1255TIP3    H225325   2.994   3.254   6.866
 1256TIP3   OH225326   2.646   3.012   7.545
 1256TIP3    H125327   2.562   3.057   7.550
 1256TIP3    H225328   2.681   3.035   7.459
 1257TIP3   OH225329   3.375   2.257   7.162
 1257TIP3    H125330   3.296   2.232   7.210
 1257TIP3    H225331   3.413   2.328   7.214
 1258TIP3   OH225332   2.274   2.363   7.229
 1258TIP3    H125333   2.342   2.415   7.272
 1258TIP3    H225334   2.320   2.319   7.156
 1259TIP3   OH225335   2.431   3.189   7.581
 1259TIP3    H125336   2.435   3.283   7.563
 1259TIP3    H225337   2.339   3.173   7.601
 1260TIP3   OH225338   3.375   3.331   7.338
 1260TIP3    H125339   3.280   3.339   7.349
 1260TIP3    H225340   3.403   3.417   7.306
 1261TIP3   OH225341   3.423   2.124   7.467
 1261TIP3    H125342   3.354   2.157   7.409
 1261TIP3    H225343   3.504   2.151   7.424
 1262TIP3   OH225344   2.690   1.915   7.242
 1262TIP3    H125345   2.663   1.825   7.224
 1262TIP3    H225346   2.608   1.963   7.256
 1263TIP3   OH225347   3.220   3.510   6.964
 1263TIP3    H125348   3.246   3.419   6.947
 1263TIP3    H225349   3.301   3.560   6.959
 1264TIP3   OH225350   3.290   3.253   6.912
 1264TIP3    H125351   3.209   3.211   6.882
 1264TIP3    H225352   3.319   3.199   6.984
 1265TIP3   OH225353   3.486   3.122   7.687
 1265TIP3    H125354   3.475   3.064   7.611
 1265TIP3    H225355   3.498   3.209   7.649
 1266TIP3   OH225356   2.934   2.816   6.702
 1266TIP3    H125357   2.866   2.876   6.670
 1266TIP3    H225358   2.999   2.814   6.632
 1267TIP3   OH225359   3.012   2.637   6.320
 1267TIP3    H125360   3.014   2.653   6.415
 1267TIP3    H225361   3.051   2.715   6.282
 1268TIP3   OH225362   3.666   2.794   7.524
 1268TIP3    H125363   3.594   2.856   7.514
 1268TIP3    H225364   3.716   2.803   7.443
 1269TIP3   OH225365   3.306   2.822   6.764
 1269TIP3    H125366   3.238   2.853   6.824
 1269TIP3    H225367   3.370   2.779   6.821
 1270TIP3   OH225368   3.276   2.643   7.710
 1270TIP3    H125369   3.268   2.715   7.774
 1270TIP3    H225370   3.208   2.661   7.645
 1271TIP3   OH225371   2.456   2.891   6.948
 1271TIP3    H125372   2.437   2.843   6.867
 1271TIP3    H225373   2.509   2.831   7.000
 1272TIP3   OH225374   2.595   3.258   7.219
 1272TIP3    H125375   2.595   3.258   7.123
 1272TIP3    H225376   2.661   3.194   7.243
 1273TIP3   OH225377   2.479   2.877   7.293
 1273TIP3    H125378   2.529   2.819   7.235
 1273TIP3    H225379   2.481   2.833   7.378
 1274TIP3   OH225380   3.109   3.361   7.393
 1274TIP3    H125381   3.087   3.423   7.462
 1274TIP3    H225382   3.073   3.278   7.423
 1275TIP3   OH225383   2.585   3.228   7.807
 1275TIP3    H125384   2.520   3.287   7.845
 1275TIP3    H225385   2.544   3.194   7.728
 1276TIP3   OH225386   3.150   2.765   6.535
 1276TIP3    H125387   3.213   2.790   6.603
 1276TIP3    H225388   3.179   2.811   6.457
 1277TIP3   OH225389   2.253   2.801   7.849
 1277TIP3    H125390   2.253   2.896   7.861
 1277TIP3    H225391   2.220   2.787   7.761
 1278TIP3   OH225392   2.959   3.436   6.884
 1278TIP3    H125393   3.042   3.471   6.918
 1278TIP3    H225394   2.921   3.509   6.835
 1279TIP3   OH225395   2.381   3.402   7.878
 1279TIP3    H125396   2.377   3.427   7.786
 1279TIP3    H225397   2.290   3.389   7.904
 1280TIP3   OH225398   3.533   1.919   6.540
 1280TIP3    H125399   3.444   1.948   6.555
 1280TIP3    H225400   3.550   1.936   6.448
 1281TIP3   OH225401   2.337   2.785   6.712
 1281TIP3    H125402   2.253   2.816   6.746
 1281TIP3    H225403   2.325   2.691   6.700
 1282TIP3   OH225404   1.952   3.068   7.622
 1282TIP3    H125405   1.899   3.073   7.542
 1282TIP3    H225406   1.959   2.975   7.641
 1283TIP3   OH225407   1.917   3.345   7.304
 1283TIP3    H125408   2.002   3.344   7.347
 1283TIP3    H225409   1.874   3.424   7.337
 1284TIP3   OH225410   3.746   3.404   7.884
 1284TIP3    H125411   3.732   3.310   7.878
 1284TIP3    H225412   3.664   3.439   7.920
 1285TIP3   OH225413   2.827   3.342   7.750
 1285TIP3    H125414   2.825   3.427   7.794
 1285TIP3    H225415   2.742   3.303   7.770
 1286TIP3   OH225416   2.917   3.680   6.740
 1286TIP3    H125417   2.898   3.674   6.647
 1286TIP3    H225418   2.870   3.758   6.769
 1287TIP3   OH225419   2.265   3.602   6.938
 1287TIP3    H125420   2.283   3.561   7.022
 1287TIP3    H225421   2.207   3.541   6.893
 1288TIP3   OH225422   3.175   3.627   6.421
 1288TIP3    H125423   3.253   3.589   6.380
 1288TIP3    H225424   3.198   3.633   6.514
 1289TIP3   OH225425   3.188   3.645   6.701
 1289TIP3    H125426   3.093   3.653   6.714
 1289TIP3    H225427   3.214   3.574   6.760
 1290TIP3   OH225428   3.453   2.521   7.911
 1290TIP3    H125429   3.391   2.556   7.847
 1290TIP3    H225430   3.437   2.426   7.911
 1291TIP3   OH225431   2.173   3.217   7.684
 1291TIP3    H125432   2.197   3.180   7.769
 1291TIP3    H225433   2.096   3.166   7.657
 1292TIP3   OH225434   2.433   2.023   7.313
 1292TIP3    H125435   2.363   2.004   7.251
 1292TIP3    H225436   2.401   2.097   7.364
 1293TIP3   OH225437   2.912   1.995   7.659
 1293TIP3    H125438   2.958   1.944   7.726
 1293TIP3    H225439   2.819   1.979   7.676
 1294TIP3   OH225440   3.235   2.369   7.742
 1294TIP3    H125441   3.161   2.359   7.802
 1294TIP3    H225442   3.235   2.462   7.720
 1295TIP3   OH225443   2.484   2.441   7.386
 1295TIP3    H125444   2.429   2.387   7.444
 1295TIP3    H225445   2.474   2.530   7.420
 1296TIP3   OH225446   2.450   2.539   6.929
 1296TIP3    H125447   2.357   2.520   6.918
 1296TIP3    H225448   2.485   2.536   6.840
 1297TIP3   OH225449   2.993   2.576   6.817
 1297TIP3    H125450   2.964   2.661   6.783
 1297TIP3    H225451   3.057   2.545   6.753
 1298TIP3   OH225452   2.875   2.597   7.923
 1298TIP3    H125453   2.840   2.521   7.970
 1298TIP3    H225454   2.965   2.605   7.953
 1299TIP3   OH225455   3.093   2.514   7.062
 1299TIP3    H125456   3.053   2.559   6.988
 1299TIP3    H225457   3.136   2.437   7.024
 1300TIP3   OH225458   2.153   2.545   7.603
 1300TIP3    H125459   2.246   2.568   7.601
 1300TIP3    H225460   2.152   2.454   7.633
 1301TIP3   OH225461   1.881   2.233   6.991
 1301TIP3    H125462   1.928   2.242   7.074
 1301TIP3    H225463   1.949   2.240   6.924
 1302TIP3   OH225464   3.055   2.643   7.539
 1302TIP3    H125465   3.085   2.589   7.466
 1302TIP3    H225466   2.986   2.590   7.580
 1303TIP3   OH225467   2.745   2.268   7.015
 1303TIP3    H125468   2.651   2.267   7.033
 1303TIP3    H225469   2.786   2.239   7.097
 1304TIP3   OH225470   2.194   2.439   6.889
 1304TIP3    H125471   2.126   2.470   6.828
 1304TIP3    H225472   2.217   2.352   6.857
 1305TIP3   OH225473   2.534   2.516   6.671
 1305TIP3    H125474   2.618   2.476   6.693
 1305TIP3    H225475   2.533   2.519   6.575
 1306TIP3   OH225476   3.149   2.202   7.319
 1306TIP3    H125477   3.105   2.203   7.404
 1306TIP3    H225478   3.087   2.158   7.260
 1307TIP3   OH225479   2.478   2.580   6.394
 1307TIP3    H125480   2.389   2.547   6.387
 1307TIP3    H225481   2.500   2.607   6.305
 1308TIP3   OH225482   3.486   3.780   7.985
 1308TIP3    H125483   3.510   3.815   7.899
 1308TIP3    H225484   3.560   3.802   8.042
 1309TIP3   OH225485   2.237   3.067   7.922
 1309TIP3    H125486   2.302   3.067   7.992
 1309TIP3    H225487   2.153   3.069   7.968
 1310TIP3   OH225488   2.842   2.588   7.194
 1310TIP3    H125489   2.909   2.549   7.138
 1310TIP3    H225490   2.816   2.518   7.253
 1311TIP3   OH225491   2.300   2.177   6.848
 1311TIP3    H125492   2.241   2.105   6.874
 1311TIP3    H225493   2.356   2.139   6.780
 1312TIP3   OH225494   2.752   2.408   7.388
 1312TIP3    H125495   2.659   2.424   7.374
 1312TIP3    H225496   2.770   2.446   7.473
 1313TIP3   OH225497   2.737   2.987   6.608
 1313TIP3    H125498   2.665   2.939   6.566
 1313TIP3    H225499   2.698   3.026   6.685
 1314TIP3   OH225500   3.465   2.970   7.458
 1314TIP3    H125501   3.523   3.024   7.404
 1314TIP3    H225502   3.393   2.947   7.399
 1315TIP3   OH225503   2.928   3.063   7.741
 1315TIP3    H125504   2.937   3.033   7.831
 1315TIP3    H225505   2.877   3.144   7.747
 1316TIP3   OH225506   3.178   2.481   6.637
 1316TIP3    H125507   3.268   2.461   6.662
 1316TIP3    H225508   3.186   2.537   6.560
 1317TIP3   OH225509   2.266   2.953   7.138
 1317TIP3    H125510   2.322   2.947   7.061
 1317TIP3    H225511   2.322   2.927   7.211
 1318TIP3   OH225512   2.945   3.167   6.581
 1318TIP3    H125513   2.908   3.250   6.551
 1318TIP3    H225514   2.871   3.106   6.580
 1319TIP3   OH225515   1.945   2.812   7.725
 1319TIP3    H125516   1.936   2.753   7.800
 1319TIP3    H225517   1.891   2.773   7.656
 1320TIP3   OH225518   2.701   2.816   7.989
 1320TIP3    H125519   2.633   2.784   7.929
 1320TIP3    H225520   2.782   2.776   7.957
 1321TIP3   OH225521   3.110   3.337   7.744
 1321TIP3    H125522   3.016   3.336   7.724
 1321TIP3    H225523   3.113   3.345   7.840
 1322TIP3   OH225524   3.709   3.112   7.841
 1322TIP3    H125525   3.622   3.127   7.805
 1322TIP3    H225526   3.765   3.097   7.765
 1323TIP3   OH225527   3.260   2.889   7.280
 1323TIP3    H125528   3.166   2.875   7.282
 1323TIP3    H225529   3.294   2.819   7.224
 1324TIP3   OH225530   2.527   3.322   6.947
 1324TIP3    H125531   2.551   3.404   6.905
 1324TIP3    H225532   2.432   3.323   6.950
 1325TIP3   OH225533   2.615   3.085   6.830
 1325TIP3    H125534   2.597   3.171   6.867
 1325TIP3    H225535   2.560   3.026   6.881
 1326TIP3   OH225536   2.719   3.497   7.535
 1326TIP3    H125537   2.779   3.571   7.548
 1326TIP3    H225538   2.763   3.424   7.579
 1327TIP3   OH225539   2.517   3.583   6.833
 1327TIP3    H125540   2.427   3.599   6.861
 1327TIP3    H225541   2.567   3.658   6.864
 1328TIP3   OH225542   3.021   3.108   7.482
 1328TIP3    H125543   2.990   3.089   7.571
 1328TIP3    H225544   3.069   3.029   7.457
 1329TIP3   OH225545   3.316   3.522   7.719
 1329TIP3    H125546   3.238   3.468   7.711
 1329TIP3    H225547   3.306   3.590   7.652
 1330TIP3   OH225548   2.112   2.259   7.658
 1330TIP3    H125549   2.021   2.283   7.638
 1330TIP3    H225550   2.105   2.178   7.709
 1331TIP3   OH225551   3.471   2.987   6.618
 1331TIP3    H125552   3.408   2.935   6.669
 1331TIP3    H225553   3.443   3.077   6.630
 1332TIP3   OH225554   2.112   3.457   7.522
 1332TIP3    H125555   2.138   3.377   7.568
 1332TIP3    H225556   2.123   3.526   7.587
 1333TIP3   OH225557   3.038   2.223   7.571
 1333TIP3    H125558   3.108   2.238   7.636
 1333TIP3    H225559   2.994   2.144   7.601
 1334TIP3   OH225560   3.108   2.210   6.720
 1334TIP3    H125561   3.100   2.287   6.663
 1334TIP3    H225562   3.147   2.244   6.801
 1335TIP3   OH225563   2.818   3.402   6.498
 1335TIP3    H125564   2.737   3.433   6.536
 1335TIP3    H225565   2.872   3.480   6.488
 1336TIP3   OH225566   2.768   2.418   6.779
 1336TIP3    H125567   2.846   2.471   6.795
 1336TIP3    H225568   2.760   2.364   6.858
 1337TIP3   OH225569   2.887   2.442   7.661
 1337TIP3    H125570   2.922   2.421   7.747
 1337TIP3    H225571   2.919   2.373   7.603
 1338TIP3   OH225572   2.920   2.082   6.888
 1338TIP3    H125573   2.852   2.147   6.905
 1338TIP3    H225574   2.968   2.117   6.814
 1339TIP3   OH225575   2.587   3.519   6.572
 1339TIP3    H125576   2.509   3.524   6.517
 1339TIP3    H225577   2.557   3.543   6.659
 1340TIP3   OH225578   3.478   2.243   7.713
 1340TIP3    H125579   3.395   2.286   7.729
 1340TIP3    H225580   3.464   2.191   7.634
 1341TIP3   OH225581   3.338   2.644   7.142
 1341TIP3    H125582   3.251   2.610   7.122
 1341TIP3    H225583   3.374   2.583   7.205
 1342TIP3   OH225584   2.352   3.225   6.391
 1342TIP3    H125585   2.343   3.319   6.406
 1342TIP3    H225586   2.445   3.213   6.369
 1343TIP3   OH225587   3.460   3.597   7.314
 1343TIP3    H125588   3.448   3.673   7.257
 1343TIP3    H225589   3.555   3.593   7.328
 1344TIP3   OH225590   2.178   1.992   7.198
 1344TIP3    H125591   2.168   1.981   7.103
 1344TIP3    H225592   2.145   1.910   7.234
 1345TIP3   OH225593   2.087   3.443   6.811
 1345TIP3    H125594   2.011   3.448   6.869
 1345TIP3    H225595   2.056   3.475   6.727
 1346TIP3   OH225596   2.025   3.679   7.976
 1346TIP3    H125597   2.090   3.658   8.043
 1346TIP3    H225598   1.984   3.595   7.954
 1347TIP3   OH225599   2.466   3.520   8.115
 1347TIP3    H125600   2.539   3.463   8.137
 1347TIP3    H225601   2.433   3.486   8.032
 1348TIP3   OH225602   3.108   3.361   8.019
 1348TIP3    H125603   3.096   3.276   8.062
 1348TIP3    H225604   3.186   3.398   8.061
 1349TIP3   OH225605   3.394   3.496   6.314
 1349TIP3    H125606   3.465   3.463   6.369
 1349TIP3    H225607   3.436   3.558   6.255
 1350TIP3   OH225608   1.991   3.036   8.046
 1350TIP3    H125609   1.985   2.941   8.039
 1350TIP3    H225610   1.923   3.069   7.987
 1351TIP3   OH225611   2.662   3.084   8.026
 1351TIP3    H125612   2.641   3.118   7.939
 1351TIP3    H225613   2.688   2.993   8.010
 1352TIP3   OH225614   3.230   3.058   7.776
 1352TIP3    H125615   3.315   3.093   7.749
 1352TIP3    H225616   3.167   3.125   7.750
 1353TIP3   OH225617   2.043   2.761   8.023
 1353TIP3    H125618   2.118   2.765   7.964
 1353TIP3    H225619   2.081   2.761   8.111
 1354TIP3   OH225620   2.525   2.832   6.512
 1354TIP3    H125621   2.467   2.830   6.589
 1354TIP3    H225622   2.529   2.741   6.483
 1355TIP3   OH225623   2.510   2.698   7.837
 1355TIP3    H125624   2.432   2.733   7.878
 1355TIP3    H225625   2.492   2.702   7.743
 1356TIP3   OH225626   3.004   2.893   8.034
 1356TIP3    H125627   3.087   2.855   8.003
 1356TIP3    H225628   2.976   2.835   8.105
 1357TIP3   OH225629   2.590   2.391   7.776
 1357TIP3    H125630   2.590   2.323   7.710
 1357TIP3    H225631   2.498   2.397   7.804
 1358TIP3   OH225632   2.581   2.215   7.563
 1358TIP3    H125633   2.633   2.237   7.486
 1358TIP3    H225634   2.491   2.210   7.531
 1359TIP3   OH225635   2.771   2.790   7.654
 1359TIP3    H125636   2.849   2.846   7.654
 1359TIP3    H225637   2.703   2.845   7.614
 1360TIP3   OH225638   3.126   2.549   8.087
 1360TIP3    H125639   3.125   2.469   8.140
 1360TIP3    H225640   3.217   2.575   8.085
 1361TIP3   OH225641   3.281   2.835   7.917
 1361TIP3    H125642   3.251   2.914   7.871
 1361TIP3    H225643   3.377   2.840   7.912
 1362TIP3   OH225644   2.378   2.461   8.041
 1362TIP3    H125645   2.298   2.409   8.033
 1362TIP3    H225646   2.357   2.543   7.996
 1363TIP3   OH225647   2.635   1.962   7.660
 1363TIP3    H125648   2.617   2.050   7.628
 1363TIP3    H225649   2.569   1.907   7.618
 1364TIP3   OH225650   2.760   2.361   7.996
 1364TIP3    H125651   2.711   2.335   8.075
 1364TIP3    H225652   2.696   2.353   7.925
 1365TIP3   OH225653   3.016   2.313   7.897
 1365TIP3    H125654   2.932   2.314   7.943
 1365TIP3    H225655   3.075   2.266   7.955
 1366TIP3   OH225656   3.211   2.189   8.069
 1366TIP3    H125657   3.200   2.094   8.078
 1366TIP3    H225658   3.176   2.225   8.151
 1367TIP3   OH225659   2.172   2.275   7.999
 1367TIP3    H125660   2.171   2.202   7.937
 1367TIP3    H225661   2.176   2.234   8.085
 1368TIP3   OH225662   2.634   1.899   7.926
 1368TIP3    H125663   2.684   1.817   7.920
 1368TIP3    H225664   2.626   1.929   7.836
 1369TIP3   OH225665   2.697   2.054   8.151
 1369TIP3    H125666   2.682   2.000   8.073
 1369TIP3    H225667   2.636   2.127   8.141
 1370TIP3   OH225668   1.886   3.744   6.909
 1370TIP3    H125669   1.837   3.712   6.833
 1370TIP3    H225670   1.901   3.666   6.962
 1371TIP3   OH225671   1.950   3.524   7.069
 1371TIP3    H125672   1.913   3.446   7.110
 1371TIP3    H225673   2.005   3.563   7.138
 1372TIP3   OH225674   3.726   3.601   7.387
 1372TIP3    H125675   3.730   3.615   7.482
 1372TIP3    H225676   3.803   3.645   7.353
 1373TIP3   OH225677   3.668   3.582   7.665
 1373TIP3    H125678   3.617   3.511   7.626
 1373TIP3    H225679   3.716   3.540   7.736
 1374TIP3   OH225680   3.518   3.154   8.210
 1374TIP3    H125681   3.432   3.176   8.246
 1374TIP3    H225682   3.566   3.236   8.211
 1375TIP3   OH225683   3.710   3.090   7.375
 1375TIP3    H125684   3.745   3.037   7.303
 1375TIP3    H225685   3.732   3.180   7.351
 1376TIP3   OH225686   3.505   3.373   7.580
 1376TIP3    H125687   3.433   3.419   7.624
 1376TIP3    H225688   3.471   3.357   7.492
 1377TIP3   OH225689   3.495   2.647   6.907
 1377TIP3    H125690   3.460   2.568   6.866
 1377TIP3    H225691   3.449   2.654   6.990
 1378TIP3   OH225692   1.932   2.871   7.314
 1378TIP3    H125693   1.950   2.856   7.221
 1378TIP3    H225694   2.013   2.848   7.358
 1379TIP3   OH225695   3.557   2.861   7.901
 1379TIP3    H125696   3.616   2.788   7.886
 1379TIP3    H225697   3.600   2.936   7.859
 1380TIP3   OH225698   3.704   2.628   7.885
 1380TIP3    H125699   3.617   2.588   7.890
 1380TIP3    H225700   3.763   2.564   7.924
 1381TIP3   OH225701   3.439   2.417   6.742
 1381TIP3    H125702   3.468   2.326   6.747
 1381TIP3    H225703   3.488   2.453   6.668
 1382TIP3   OH225704   3.487   2.465   7.309
 1382TIP3    H125705   3.579   2.483   7.286
 1382TIP3    H225706   3.481   2.487   7.402
 1383TIP3   OH225707   3.520   2.564   7.571
 1383TIP3    H125708   3.438   2.591   7.613
 1383TIP3    H225709   3.568   2.646   7.557
 1384TIP3   OH225710   1.935   2.385   7.906
 1384TIP3    H125711   2.022   2.363   7.937
 1384TIP3    H225712   1.885   2.304   7.915
 1385TIP3   OH225713   3.732   1.980   8.072
 1385TIP3    H125714   3.800   1.916   8.057
 1385TIP3    H225715   3.743   2.045   8.003
 1386TIP3   OH225716   3.517   2.156   6.768
 1386TIP3    H125717   3.531   2.112   6.852
 1386TIP3    H225718   3.455   2.100   6.721
 1387TIP3   OH225719   2.029   2.225   7.229
 1387TIP3    H125720   2.070   2.138   7.225
 1387TIP3    H225721   2.102   2.286   7.229
 1388TIP3   OH225722   1.867   2.522   7.295
 1388TIP3    H125723   1.932   2.526   7.224
 1388TIP3    H225724   1.904   2.575   7.365
 1389TIP3   OH225725   3.673   2.196   7.904
 1389TIP3    H125726   3.614   2.216   7.976
 1389TIP3    H225727   3.616   2.181   7.829
 1390TIP3   OH225728   3.750   2.217   6.418
 1390TIP3    H125729   3.746   2.126   6.387
 1390TIP3    H225730   3.795   2.264   6.348
 1391TIP3   OH225731   1.901   2.167   6.628
 1391TIP3    H125732   1.819   2.176   6.677
 1391TIP3    H225733   1.898   2.237   6.563
 1392TIP3   OH225734   3.430   3.678   6.928
 1392TIP3    H125735   3.466   3.654   6.843
 1392TIP3    H225736   3.492   3.742   6.963
 1393TIP3   OH225737   1.928   2.020   7.568
 1393TIP3    H125738   1.853   1.994   7.622
 1393TIP3    H225739   1.891   2.074   7.498
 1394TIP3   OH225740   2.123   3.376   7.978
 1394TIP3    H125741   2.038   3.388   7.935
 1394TIP3    H225742   2.101   3.345   8.066
 1395TIP3   OH225743   2.451   3.469   7.606
 1395TIP3    H125744   2.420   3.555   7.580
 1395TIP3    H225745   2.545   3.470   7.586
 1396TIP3   OH225746   2.834   3.590   7.882
 1396TIP3    H125747   2.844   3.562   7.973
 1396TIP3    H225748   2.914   3.639   7.863
 1397TIP3   OH225749   3.069   3.729   7.848
 1397TIP3    H125750   3.135   3.677   7.802
 1397TIP3    H225751   3.113   3.759   7.928
 1398TIP3   OH225752   3.569   1.924   7.716
 1398TIP3    H125753   3.489   1.922   7.664
 1398TIP3    H225754   3.608   1.837   7.703
 1399TIP3   OH225755   2.152   3.761   7.621
 1399TIP3    H125756   2.072   3.800   7.584
 1399TIP3    H225757   2.163   3.805   7.705
 1400TIP3   OH225758   2.413   3.735   7.541
 1400TIP3    H125759   2.321   3.744   7.566
 1400TIP3    H225760   2.419   3.781   7.457
 1401TIP3   OH225761   2.911   3.776   7.399
 1401TIP3    H125762   2.827   3.786   7.354
 1401TIP3    H225763   2.902   3.828   7.479
 1402TIP3   OH225764   3.072   3.599   7.536
 1402TIP3    H125765   3.010   3.650   7.485
 1402TIP3    H225766   3.155   3.645   7.526
 1403TIP3   OH225767   3.321   3.716   7.518
 1403TIP3    H125768   3.355   3.805   7.514
 1403TIP3    H225769   3.366   3.670   7.447
 1404TIP3   OH225770   2.114   3.609   7.290
 1404TIP3    H125771   2.110   3.563   7.373
 1404TIP3    H225772   2.192   3.574   7.247
 1405TIP3   OH225773   2.333   3.492   7.181
 1405TIP3    H125774   2.320   3.399   7.199
 1405TIP3    H225775   2.420   3.511   7.215
 1406TIP3   OH225776   2.594   3.526   7.286
 1406TIP3    H125777   2.601   3.437   7.252
 1406TIP3    H225778   2.631   3.520   7.374
 1407TIP3   OH225779   2.901   2.099   7.184
 1407TIP3    H125780   2.835   2.033   7.206
 1407TIP3    H225781   2.931   2.074   7.096
 1408TIP3   OH225782   3.409   1.921   7.152
 1408TIP3    H125783   3.464   1.989   7.112
 1408TIP3    H225784   3.320   1.948   7.131
 1409TIP3   OH225785   3.608   2.040   7.002
 1409TIP3    H125786   3.665   1.969   6.973
 1409TIP3    H225787   3.664   2.095   7.057
 1410TIP3   OH225788   2.139   1.964   6.924
 1410TIP3    H125789   2.049   1.942   6.902
 1410TIP3    H225790   2.187   1.881   6.916
 1411TIP3   OH225791   2.017   1.929   6.526
 1411TIP3    H125792   2.090   1.957   6.470
 1411TIP3    H225793   1.992   2.008   6.574
 1412TIP3   OH225794   2.618   1.950   6.895
 1412TIP3    H125795   2.645   1.972   6.806
 1412TIP3    H225796   2.694   1.970   6.949
 1413TIP3   OH225797   3.157   1.985   7.062
 1413TIP3    H125798   3.105   2.003   6.983
 1413TIP3    H225799   3.121   1.903   7.096
 1414TIP3   OH225800   3.294   2.005   6.659
 1414TIP3    H125801   3.223   2.069   6.670
 1414TIP3    H225802   3.249   1.921   6.651
 1415TIP3   OH225803   1.977   3.546   6.579
 1415TIP3    H125804   1.902   3.490   6.558
 1415TIP3    H225805   1.961   3.627   6.532
 1416TIP3   OH225806   2.204   1.999   6.314
 1416TIP3    H125807   2.262   1.932   6.277
 1416TIP3    H225808   2.262   2.071   6.336
 1417TIP3   OH225809   2.910   3.663   6.465
 1417TIP3    H125810   3.001   3.661   6.434
 1417TIP3    H225811   2.858   3.677   6.386
 1418TIP3   OH225812   3.566   3.644   6.696
 1418TIP3    H125813   3.623   3.574   6.666
 1418TIP3    H225814   3.576   3.713   6.629
 1419TIP3   OH225815   2.164   2.023   7.866
 1419TIP3    H125816   2.104   1.957   7.901
 1419TIP3    H225817   2.247   2.005   7.910
 1420TIP3   OH225818   2.375   1.945   8.026
 1420TIP3    H125819   2.463   1.920   7.998
 1420TIP3    H225820   2.342   1.869   8.073
 1421TIP3   OH225821   3.220   1.905   8.072
 1421TIP3    H125822   3.213   1.856   8.154
 1421TIP3    H225823   3.313   1.899   8.048
 1422TIP3   OH225824   3.493   3.507   7.937
 1422TIP3    H125825   3.432   3.503   7.862
 1422TIP3    H225826   3.492   3.600   7.962
 1423TIP3   OH225827   4.892   2.881   6.876
 1423TIP3    H125828   4.895   2.973   6.850
 1423TIP3    H225829   4.825   2.878   6.944
 1424TIP3   OH225830   4.859   2.810   7.302
 1424TIP3    H125831   4.879   2.775   7.389
 1424TIP3    H225832   4.809   2.742   7.259
 1425TIP3   OH225833   4.059   2.785   7.450
 1425TIP3    H125834   4.078   2.711   7.508
 1425TIP3    H225835   4.140   2.835   7.449
 1426TIP3   OH225836   5.234   3.120   7.140
 1426TIP3    H125837   5.194   3.050   7.192
 1426TIP3    H225838   5.254   3.188   7.204
 1427TIP3   OH225839   4.194   3.223   7.258
 1427TIP3    H125840   4.163   3.137   7.229
 1427TIP3    H225841   4.289   3.217   7.254
 1428TIP3   OH225842   3.815   2.630   6.847
 1428TIP3    H125843   3.850   2.698   6.904
 1428TIP3    H225844   3.720   2.635   6.860
 1429TIP3   OH225845   3.937   2.786   7.048
 1429TIP3    H125846   3.972   2.703   7.081
 1429TIP3    H225847   4.004   2.850   7.070
 1430TIP3   OH225848   4.965   3.607   7.154
 1430TIP3    H125849   5.016   3.559   7.089
 1430TIP3    H225850   4.918   3.539   7.203
 1431TIP3   OH225851   4.686   3.065   7.316
 1431TIP3    H125852   4.728   2.993   7.269
 1431TIP3    H225853   4.753   3.098   7.375
 1432TIP3   OH225854   5.584   2.212   7.415
 1432TIP3    H125855   5.597   2.286   7.475
 1432TIP3    H225856   5.642   2.230   7.341
 1433TIP3   OH225857   5.000   2.491   7.334
 1433TIP3    H125858   5.016   2.397   7.344
 1433TIP3    H225859   4.991   2.504   7.240
 1434TIP3   OH225860   4.331   2.335   7.039
 1434TIP3    H125861   4.325   2.420   6.995
 1434TIP3    H225862   4.295   2.273   6.976
 1435TIP3   OH225863   5.126   2.331   6.924
 1435TIP3    H125864   5.165   2.295   7.003
 1435TIP3    H225865   5.201   2.367   6.875
 1436TIP3   OH225866   3.989   2.523   7.126
 1436TIP3    H125867   4.062   2.486   7.177
 1436TIP3    H225868   3.999   2.485   7.039
 1437TIP3   OH225869   4.484   2.681   7.129
 1437TIP3    H125870   4.573   2.649   7.143
 1437TIP3    H225871   4.457   2.643   7.046
 1438TIP3   OH225872   5.614   2.385   7.637
 1438TIP3    H125873   5.540   2.441   7.615
 1438TIP3    H225874   5.629   2.400   7.730
 1439TIP3   OH225875   4.212   2.213   7.486
 1439TIP3    H125876   4.189   2.275   7.417
 1439TIP3    H225877   4.137   2.216   7.546
 1440TIP3   OH225878   4.826   3.142   6.820
 1440TIP3    H125879   4.842   3.156   6.727
 1440TIP3    H225880   4.834   3.229   6.859
 1441TIP3   OH225881   4.475   2.985   7.476
 1441TIP3    H125882   4.425   3.059   7.512
 1441TIP3    H225883   4.542   3.025   7.421
 1442TIP3   OH225884   5.231   2.269   7.165
 1442TIP3    H125885   5.166   2.245   7.231
 1442TIP3    H225886   5.290   2.328   7.211
 1443TIP3   OH225887   4.184   2.383   7.269
 1443TIP3    H125888   4.235   2.445   7.321
 1443TIP3    H225889   4.241   2.359   7.197
 1444TIP3   OH225890   4.333   3.192   7.597
 1444TIP3    H125891   4.340   3.285   7.575
 1444TIP3    H225892   4.240   3.179   7.617
 1445TIP3   OH225893   3.958   3.178   6.628
 1445TIP3    H125894   3.987   3.204   6.541
 1445TIP3    H225895   3.950   3.260   6.677
 1446TIP3   OH225896   5.271   3.326   7.334
 1446TIP3    H125897   5.176   3.330   7.350
 1446TIP3    H225898   5.294   3.413   7.303
 1447TIP3   OH225899   5.334   2.109   7.503
 1447TIP3    H125900   5.265   2.154   7.454
 1447TIP3    H225901   5.415   2.136   7.460
 1448TIP3   OH225902   4.566   1.910   7.222
 1448TIP3    H125903   4.545   1.817   7.226
 1448TIP3    H225904   4.487   1.954   7.254
 1449TIP3   OH225905   5.107   3.491   6.948
 1449TIP3    H125906   5.132   3.401   6.928
 1449TIP3    H225907   5.190   3.538   6.952
 1450TIP3   OH225908   5.186   3.238   6.892
 1450TIP3    H125909   5.210   3.179   6.821
 1450TIP3    H225910   5.207   3.189   6.972
 1451TIP3   OH225911   5.381   3.108   7.693
 1451TIP3    H125912   5.370   3.054   7.614
 1451TIP3    H225913   5.388   3.198   7.659
 1452TIP3   OH225914   5.535   2.782   7.530
 1452TIP3    H125915   5.464   2.845   7.514
 1452TIP3    H225916   5.596   2.796   7.457
 1453TIP3   OH225917   5.127   2.781   6.739
 1453TIP3    H125918   5.078   2.839   6.797
 1453TIP3    H225919   5.209   2.764   6.785
 1454TIP3   OH225920   5.144   2.646   7.713
 1454TIP3    H125921   5.139   2.718   7.776
 1454TIP3    H225922   5.079   2.667   7.647
 1455TIP3   OH225923   4.305   2.863   6.969
 1455TIP3    H125924   4.282   2.863   6.876
 1455TIP3    H225925   4.395   2.896   6.972
 1456TIP3   OH225926   4.471   3.238   7.214
 1456TIP3    H125927   4.464   3.245   7.119
 1456TIP3    H225928   4.549   3.184   7.229
 1457TIP3   OH225929   4.336   2.802   7.324
 1457TIP3    H125930   4.387   2.775   7.248
 1457TIP3    H225931   4.391   2.867   7.368
 1458TIP3   OH225932   5.010   3.340   7.409
 1458TIP3    H125933   4.987   3.416   7.461
 1458TIP3    H225934   4.957   3.269   7.445
 1459TIP3   OH225935   4.465   3.228   7.840
 1459TIP3    H125936   4.399   3.291   7.866
 1459TIP3    H225937   4.433   3.193   7.756
 1460TIP3   OH225938   4.139   2.832   7.762
 1460TIP3    H125939   4.146   2.912   7.814
 1460TIP3    H225940   4.045   2.822   7.746
 1461TIP3   OH225941   4.844   3.417   6.867
 1461TIP3    H125942   4.929   3.449   6.898
 1461TIP3    H225943   4.803   3.494   6.826
 1462TIP3   OH225944   4.272   3.419   7.890
 1462TIP3    H125945   4.275   3.446   7.798
 1462TIP3    H225946   4.179   3.406   7.908
 1463TIP3   OH225947   4.242   2.809   6.709
 1463TIP3    H125948   4.214   2.886   6.660
 1463TIP3    H225949   4.279   2.750   6.643
 1464TIP3   OH225950   3.849   3.048   7.614
 1464TIP3    H125951   3.800   3.070   7.535
 1464TIP3    H225952   3.871   2.955   7.603
 1465TIP3   OH225953   3.811   3.341   7.319
 1465TIP3    H125954   3.901   3.353   7.350
 1465TIP3    H225955   3.767   3.423   7.342
 1466TIP3   OH225956   5.621   3.426   7.888
 1466TIP3    H125957   5.614   3.331   7.873
 1466TIP3    H225958   5.534   3.452   7.919
 1467TIP3   OH225959   4.710   3.340   7.761
 1467TIP3    H125960   4.707   3.432   7.786
 1467TIP3    H225961   4.622   3.306   7.778
 1468TIP3   OH225962   4.787   3.666   6.725
 1468TIP3    H125963   4.767   3.655   6.632
 1468TIP3    H225964   4.745   3.748   6.748
 1469TIP3   OH225965   4.122   3.586   6.914
 1469TIP3    H125966   4.134   3.536   6.995
 1469TIP3    H225967   4.064   3.531   6.861
 1470TIP3   OH225968   5.051   3.704   6.775
 1470TIP3    H125969   4.958   3.690   6.758
 1470TIP3    H225970   5.077   3.629   6.830
 1471TIP3   OH225971   5.320   2.526   7.916
 1471TIP3    H125972   5.263   2.562   7.848
 1471TIP3    H225973   5.330   2.434   7.892
 1472TIP3   OH225974   4.074   3.197   7.690
 1472TIP3    H125975   4.089   3.162   7.778
 1472TIP3    H225976   3.994   3.152   7.661
 1473TIP3   OH225977   4.315   2.016   7.312
 1473TIP3    H125978   4.238   2.008   7.256
 1473TIP3    H225979   4.292   2.086   7.373
 1474TIP3   OH225980   4.802   1.988   7.664
 1474TIP3    H125981   4.853   1.941   7.729
 1474TIP3    H225982   4.711   1.971   7.686
 1475TIP3   OH225983   5.086   2.372   7.719
 1475TIP3    H125984   5.027   2.357   7.793
 1475TIP3    H225985   5.095   2.468   7.716
 1476TIP3   OH225986   4.332   2.550   7.433
 1476TIP3    H125987   4.321   2.575   7.525
 1476TIP3    H225988   4.331   2.633   7.385
 1477TIP3   OH225989   4.292   2.566   6.893
 1477TIP3    H125990   4.276   2.660   6.902
 1477TIP3    H225991   4.337   2.558   6.809
 1478TIP3   OH225992   4.890   2.609   6.806
 1478TIP3    H125993   4.898   2.704   6.817
 1478TIP3    H225994   4.962   2.585   6.748
 1479TIP3   OH225995   4.800   2.566   7.919
 1479TIP3    H125996   4.751   2.498   7.965
 1479TIP3    H225997   4.887   2.565   7.961
 1480TIP3   OH225998   4.972   2.515   7.061
 1480TIP3    H125999   4.935   2.567   6.989
 1480TIP3    H226000   5.017   2.443   7.018
 1481TIP3   OH226001   4.038   2.547   7.640
 1481TIP3    H126002   3.980   2.619   7.663
 1481TIP3    H226003   3.980   2.481   7.603
 1482TIP3   OH226004   3.826   2.244   7.012
 1482TIP3    H126005   3.852   2.255   7.103
 1482TIP3    H226006   3.749   2.300   7.002
 1483TIP3   OH226007   4.920   2.654   7.535
 1483TIP3    H126008   4.956   2.600   7.465
 1483TIP3    H226009   4.853   2.600   7.576
 1484TIP3   OH226010   4.643   2.271   6.997
 1484TIP3    H126011   4.555   2.284   7.033
 1484TIP3    H226012   4.693   2.231   7.068
 1485TIP3   OH226013   4.028   2.441   6.860
 1485TIP3    H126014   3.961   2.505   6.835
 1485TIP3    H226015   4.111   2.487   6.847
 1486TIP3   OH226016   4.420   2.542   6.654
 1486TIP3    H126017   4.505   2.498   6.659
 1486TIP3    H226018   4.394   2.534   6.562
 1487TIP3   OH226019   5.018   2.213   7.338
 1487TIP3    H126020   4.972   2.216   7.421
 1487TIP3    H226021   4.958   2.169   7.278
 1488TIP3   OH226022   4.326   2.538   6.391
 1488TIP3    H126023   4.260   2.471   6.375
 1488TIP3    H226024   4.311   2.603   6.322
 1489TIP3   OH226025   5.366   3.802   7.966
 1489TIP3    H126026   5.390   3.820   7.875
 1489TIP3    H226027   5.392   3.880   8.014
 1490TIP3   OH226028   4.139   3.054   7.932
 1490TIP3    H126029   4.202   3.056   8.003
 1490TIP3    H226030   4.053   3.055   7.975
 1491TIP3   OH226031   4.724   2.575   7.209
 1491TIP3    H126032   4.796   2.528   7.167
 1491TIP3    H226033   4.691   2.513   7.274
 1492TIP3   OH226034   4.220   2.171   6.837
 1492TIP3    H126035   4.266   2.090   6.862
 1492TIP3    H226036   4.259   2.194   6.753
 1493TIP3   OH226037   4.590   2.434   7.422
 1493TIP3    H126038   4.506   2.481   7.425
 1493TIP3    H226039   4.635   2.460   7.502
 1494TIP3   OH226040   5.347   2.968   7.460
 1494TIP3    H126041   5.408   3.021   7.409
 1494TIP3    H226042   5.275   2.949   7.399
 1495TIP3   OH226043   4.976   2.374   6.389
 1495TIP3    H126044   4.982   2.410   6.478
 1495TIP3    H226045   5.067   2.365   6.361
 1496TIP3   OH226046   4.779   3.058   7.752
 1496TIP3    H126047   4.820   3.032   7.835
 1496TIP3    H226048   4.760   3.151   7.763
 1497TIP3   OH226049   5.080   2.486   6.630
 1497TIP3    H126050   5.141   2.446   6.691
 1497TIP3    H226051   5.134   2.548   6.579
 1498TIP3   OH226052   4.142   2.940   7.174
 1498TIP3    H126053   4.196   2.930   7.096
 1498TIP3    H226054   4.188   2.890   7.242
 1499TIP3   OH226055   4.860   3.215   6.558
 1499TIP3    H126056   4.893   3.302   6.581
 1499TIP3    H226057   4.795   3.232   6.490
 1500TIP3   OH226058   3.869   2.754   7.705
 1500TIP3    H126059   3.827   2.721   7.784
 1500TIP3    H226060   3.798   2.763   7.642
 1501TIP3   OH226061   4.611   2.766   7.914
 1501TIP3    H126062   4.586   2.777   7.822
 1501TIP3    H226063   4.686   2.707   7.912
 1502TIP3   OH226064   4.991   3.315   7.762
 1502TIP3    H126065   4.899   3.331   7.745
 1502TIP3    H226066   5.002   3.332   7.856
 1503TIP3   OH226067   5.557   2.474   6.568
 1503TIP3    H126068   5.619   2.456   6.497
 1503TIP3    H226069   5.484   2.518   6.524
 1504TIP3   OH226070   5.606   3.149   7.847
 1504TIP3    H126071   5.515   3.141   7.816
 1504TIP3    H226072   5.659   3.123   7.772
 1505TIP3   OH226073   5.138   2.892   7.285
 1505TIP3    H126074   5.043   2.880   7.281
 1505TIP3    H226075   5.174   2.818   7.236
 1506TIP3   OH226076   4.416   3.288   6.944
 1506TIP3    H126077   4.431   3.382   6.950
 1506TIP3    H226078   4.363   3.276   6.865
 1507TIP3   OH226079   4.542   3.034   6.925
 1507TIP3    H126080   4.624   3.068   6.889
 1507TIP3    H226081   4.485   3.111   6.933
 1508TIP3   OH226082   4.603   3.487   7.519
 1508TIP3    H126083   4.653   3.566   7.496
 1508TIP3    H226084   4.668   3.430   7.561
 1509TIP3   OH226085   4.405   3.563   6.934
 1509TIP3    H126086   4.317   3.587   6.906
 1509TIP3    H226087   4.456   3.644   6.926
 1510TIP3   OH226088   4.890   3.102   7.502
 1510TIP3    H126089   4.853   3.079   7.587
 1510TIP3    H226090   4.970   3.050   7.496
 1511TIP3   OH226091   5.201   3.533   7.710
 1511TIP3    H126092   5.116   3.493   7.692
 1511TIP3    H226093   5.207   3.605   7.647
 1512TIP3   OH226094   3.998   2.253   7.667
 1512TIP3    H126095   3.907   2.282   7.663
 1512TIP3    H226096   3.995   2.173   7.719
 1513TIP3   OH226097   5.262   3.046   6.706
 1513TIP3    H126098   5.231   2.964   6.667
 1513TIP3    H226099   5.356   3.045   6.693
 1514TIP3   OH226100   4.004   3.481   7.523
 1514TIP3    H126101   4.038   3.407   7.574
 1514TIP3    H226102   4.019   3.557   7.579
 1515TIP3   OH226103   4.887   2.238   7.580
 1515TIP3    H126104   4.962   2.262   7.634
 1515TIP3    H226105   4.858   2.153   7.615
 1516TIP3   OH226106   4.985   2.188   6.737
 1516TIP3    H126107   4.979   2.256   6.670
 1516TIP3    H226108   5.029   2.231   6.810
 1517TIP3   OH226109   4.681   2.426   6.760
 1517TIP3    H126110   4.749   2.492   6.774
 1517TIP3    H226111   4.669   2.385   6.845
 1518TIP3   OH226112   4.744   2.472   7.655
 1518TIP3    H126113   4.768   2.493   7.745
 1518TIP3    H226114   4.787   2.388   7.638
 1519TIP3   OH226115   4.741   2.075   6.819
 1519TIP3    H126116   4.713   2.145   6.878
 1519TIP3    H226117   4.830   2.100   6.793
 1520TIP3   OH226118   4.335   2.204   6.594
 1520TIP3    H126119   4.302   2.208   6.504
 1520TIP3    H226120   4.430   2.205   6.585
 1521TIP3   OH226121   5.337   2.282   7.770
 1521TIP3    H126122   5.245   2.299   7.752
 1521TIP3    H226123   5.372   2.246   7.689
 1522TIP3   OH226124   5.218   2.649   7.157
 1522TIP3    H126125   5.136   2.604   7.136
 1522TIP3    H226126   5.267   2.587   7.210
 1523TIP3   OH226127   5.343   3.594   7.308
 1523TIP3    H126128   5.324   3.666   7.248
 1523TIP3    H226129   5.439   3.594   7.316
 1524TIP3   OH226130   4.060   1.997   7.195
 1524TIP3    H126131   4.039   1.992   7.101
 1524TIP3    H226132   4.032   1.912   7.230
 1525TIP3   OH226133   3.970   3.449   6.713
 1525TIP3    H126134   3.887   3.474   6.671
 1525TIP3    H226135   4.036   3.462   6.644
 1526TIP3   OH226136   3.928   3.690   7.996
 1526TIP3    H126137   3.991   3.671   8.066
 1526TIP3    H226138   3.898   3.603   7.967
 1527TIP3   OH226139   4.371   3.485   8.144
 1527TIP3    H126140   4.405   3.574   8.153
 1527TIP3    H226141   4.330   3.484   8.057
 1528TIP3   OH226142   5.009   3.336   8.039
 1528TIP3    H126143   4.980   3.259   8.088
 1528TIP3    H226144   5.090   3.362   8.082
 1529TIP3   OH226145   3.886   3.031   8.041
 1529TIP3    H126146   3.894   2.937   8.030
 1529TIP3    H226147   3.815   3.056   7.982
 1530TIP3   OH226148   4.552   3.019   8.016
 1530TIP3    H126149   4.535   3.071   7.938
 1530TIP3    H226150   4.582   2.935   7.983
 1531TIP3   OH226151   5.115   3.067   7.766
 1531TIP3    H126152   5.205   3.087   7.742
 1531TIP3    H226153   5.068   3.150   7.755
 1532TIP3   OH226154   3.975   2.769   8.013
 1532TIP3    H126155   4.056   2.731   7.979
 1532TIP3    H226156   3.983   2.760   8.108
 1533TIP3   OH226157   4.325   2.648   7.692
 1533TIP3    H126158   4.265   2.718   7.716
 1533TIP3    H226159   4.411   2.690   7.684
 1534TIP3   OH226160   4.902   2.900   8.049
 1534TIP3    H126161   4.979   2.865   8.004
 1534TIP3    H226162   4.870   2.827   8.102
 1535TIP3   OH226163   4.416   2.369   7.780
 1535TIP3    H126164   4.444   2.300   7.720
 1535TIP3    H226165   4.495   2.421   7.797
 1536TIP3   OH226166   4.477   2.211   7.562
 1536TIP3    H126167   4.525   2.265   7.500
 1536TIP3    H226168   4.386   2.213   7.531
 1537TIP3   OH226169   4.564   2.785   7.642
 1537TIP3    H126170   4.657   2.782   7.618
 1537TIP3    H226171   4.528   2.857   7.590
 1538TIP3   OH226172   5.023   2.538   8.091
 1538TIP3    H126173   5.023   2.462   8.148
 1538TIP3    H226174   5.116   2.554   8.072
 1539TIP3   OH226175   5.157   2.845   7.915
 1539TIP3    H126176   5.131   2.924   7.867
 1539TIP3    H226177   5.253   2.846   7.911
 1540TIP3   OH226178   4.217   2.506   8.009
 1540TIP3    H126179   4.144   2.497   8.071
 1540TIP3    H226180   4.286   2.451   8.046
 1541TIP3   OH226181   4.520   1.959   7.664
 1541TIP3    H126182   4.509   2.047   7.629
 1541TIP3    H226183   4.452   1.907   7.622
 1542TIP3   OH226184   4.670   2.362   8.052
 1542TIP3    H126185   4.701   2.337   8.139
 1542TIP3    H226186   4.575   2.350   8.056
 1543TIP3   OH226187   4.911   2.288   7.907
 1543TIP3    H126188   4.829   2.291   7.956
 1543TIP3    H226189   4.973   2.246   7.966
 1544TIP3   OH226190   5.101   2.182   8.082
 1544TIP3    H126191   5.093   2.087   8.090
 1544TIP3    H226192   5.068   2.216   8.165
 1545TIP3   OH226193   4.068   2.251   7.975
 1545TIP3    H126194   4.061   2.168   7.928
 1545TIP3    H226195   4.083   2.226   8.066
 1546TIP3   OH226196   4.521   1.898   7.932
 1546TIP3    H126197   4.578   1.821   7.929
 1546TIP3    H226198   4.513   1.926   7.840
 1547TIP3   OH226199   4.563   2.070   8.147
 1547TIP3    H126200   4.558   2.010   8.072
 1547TIP3    H226201   4.508   2.143   8.122
 1548TIP3   OH226202   3.762   3.738   6.894
 1548TIP3    H126203   3.735   3.702   6.810
 1548TIP3    H226204   3.787   3.661   6.945
 1549TIP3   OH226205   3.824   3.541   7.076
 1549TIP3    H126206   3.803   3.451   7.100
 1549TIP3    H226207   3.882   3.572   7.145
 1550TIP3   OH226208   5.612   3.595   7.379
 1550TIP3    H126209   5.613   3.612   7.473
 1550TIP3    H226210   5.688   3.641   7.345
 1551TIP3   OH226211   5.550   3.578   7.653
 1551TIP3    H126212   5.496   3.510   7.614
 1551TIP3    H226213   5.592   3.536   7.728
 1552TIP3   OH226214   5.394   3.141   8.201
 1552TIP3    H126215   5.315   3.159   8.252
 1552TIP3    H226216   5.441   3.225   8.199
 1553TIP3   OH226217   5.533   2.996   6.682
 1553TIP3    H126218   5.608   3.050   6.659
 1553TIP3    H226219   5.570   2.922   6.730
 1554TIP3   OH226220   5.606   2.781   6.855
 1554TIP3    H126221   5.514   2.767   6.879
 1554TIP3    H226222   5.649   2.807   6.936
 1555TIP3   OH226223   5.590   3.087   7.384
 1555TIP3    H126224   5.637   3.025   7.327
 1555TIP3    H226225   5.613   3.173   7.349
 1556TIP3   OH226226   5.383   3.362   7.586
 1556TIP3    H126227   5.312   3.414   7.623
 1556TIP3    H226228   5.358   3.347   7.495
 1557TIP3   OH226229   5.340   2.687   6.906
 1557TIP3    H126230   5.345   2.595   6.878
 1557TIP3    H226231   5.306   2.683   6.995
 1558TIP3   OH226232   3.827   2.812   7.304
 1558TIP3    H126233   3.848   2.821   7.210
 1558TIP3    H226234   3.913   2.812   7.347
 1559TIP3   OH226235   5.432   2.864   7.890
 1559TIP3    H126236   5.491   2.791   7.872
 1559TIP3    H226237   5.452   2.928   7.822
 1560TIP3   OH226238   5.575   2.628   7.877
 1560TIP3    H126239   5.487   2.591   7.892
 1560TIP3    H226240   5.635   2.558   7.904
 1561TIP3   OH226241   5.327   2.423   6.761
 1561TIP3    H126242   5.368   2.337   6.756
 1561TIP3    H226243   5.368   2.473   6.690
 1562TIP3   OH226244   5.373   2.464   7.306
 1562TIP3    H126245   5.464   2.480   7.282
 1562TIP3    H226246   5.370   2.483   7.400
 1563TIP3   OH226247   5.393   2.550   7.574
 1563TIP3    H126248   5.312   2.582   7.612
 1563TIP3    H226249   5.445   2.629   7.559
 1564TIP3   OH226250   3.845   2.407   7.974
 1564TIP3    H126251   3.929   2.361   7.974
 1564TIP3    H226252   3.781   2.340   7.951
 1565TIP3   OH226253   5.626   1.985   8.089
 1565TIP3    H126254   5.683   1.915   8.059
 1565TIP3    H226255   5.622   2.047   8.016
 1566TIP3   OH226256   5.409   2.158   6.749
 1566TIP3    H126257   5.430   2.115   6.832
 1566TIP3    H226258   5.337   2.106   6.713
 1567TIP3   OH226259   3.936   2.236   7.264
 1567TIP3    H126260   3.977   2.150   7.254
 1567TIP3    H226261   4.009   2.297   7.273
 1568TIP3   OH226262   3.753   2.540   7.275
 1568TIP3    H126263   3.831   2.523   7.222
 1568TIP3    H226264   3.758   2.633   7.296
 1569TIP3   OH226265   5.562   2.158   7.889
 1569TIP3    H126266   5.480   2.204   7.908
 1569TIP3    H226267   5.540   2.096   7.821
 1570TIP3   OH226268   3.789   2.216   6.694
 1570TIP3    H126269   3.699   2.195   6.721
 1570TIP3    H226270   3.784   2.226   6.599
 1571TIP3   OH226271   5.330   3.647   6.925
 1571TIP3    H126272   5.396   3.629   6.857
 1571TIP3    H226273   5.355   3.732   6.960
 1572TIP3   OH226274   3.795   2.003   7.563
 1572TIP3    H126275   3.722   1.985   7.623
 1572TIP3    H226276   3.760   2.069   7.503
 1573TIP3   OH226277   4.007   3.384   7.974
 1573TIP3    H126278   3.923   3.388   7.928
 1573TIP3    H226279   3.985   3.347   8.060
 1574TIP3   OH226280   4.347   3.473   7.618
 1574TIP3    H126281   4.313   3.557   7.589
 1574TIP3    H226282   4.439   3.473   7.589
 1575TIP3   OH226283   4.714   3.597   7.863
 1575TIP3    H126284   4.735   3.568   7.952
 1575TIP3    H226285   4.789   3.650   7.836
 1576TIP3   OH226286   4.948   3.737   7.838
 1576TIP3    H126287   5.019   3.709   7.780
 1576TIP3    H226288   4.992   3.761   7.920
 1577TIP3   OH226289   5.470   1.953   7.722
 1577TIP3    H126290   5.402   1.977   7.659
 1577TIP3    H226291   5.489   1.861   7.704
 1578TIP3   OH226292   4.037   3.745   7.629
 1578TIP3    H126293   3.962   3.786   7.585
 1578TIP3    H226294   4.049   3.797   7.708
 1579TIP3   OH226295   4.298   3.732   7.536
 1579TIP3    H126296   4.205   3.743   7.559
 1579TIP3    H226297   4.307   3.775   7.451
 1580TIP3   OH226298   4.745   3.711   7.439
 1580TIP3    H126299   4.700   3.746   7.363
 1580TIP3    H226300   4.759   3.787   7.496
 1581TIP3   OH226301   4.972   3.585   7.534
 1581TIP3    H126302   4.895   3.627   7.497
 1581TIP3    H226303   5.045   3.642   7.509
 1582TIP3   OH226304   5.217   3.725   7.514
 1582TIP3    H126305   5.241   3.817   7.502
 1582TIP3    H226306   5.255   3.681   7.439
 1583TIP3   OH226307   3.995   3.622   7.286
 1583TIP3    H126308   3.999   3.579   7.372
 1583TIP3    H226309   4.068   3.586   7.237
 1584TIP3   OH226310   4.198   3.488   7.171
 1584TIP3    H126311   4.195   3.397   7.199
 1584TIP3    H226312   4.290   3.513   7.183
 1585TIP3   OH226313   4.473   3.521   7.270
 1585TIP3    H126314   4.482   3.434   7.233
 1585TIP3    H226315   4.506   3.513   7.359
 1586TIP3   OH226316   4.798   2.098   7.161
 1586TIP3    H126317   4.737   2.028   7.182
 1586TIP3    H226318   4.873   2.054   7.120
 1587TIP3   OH226319   5.302   1.943   7.166
 1587TIP3    H126320   5.364   1.994   7.114
 1587TIP3    H226321   5.217   1.981   7.146
 1588TIP3   OH226322   5.488   2.021   6.977
 1588TIP3    H126323   5.555   1.960   6.945
 1588TIP3    H226324   5.538   2.099   7.004
 1589TIP3   OH226325   3.998   1.983   6.911
 1589TIP3    H126326   3.911   1.942   6.913
 1589TIP3    H226327   4.058   1.909   6.911
 1590TIP3   OH226328   4.508   1.946   6.939
 1590TIP3    H126329   4.583   1.983   6.893
 1590TIP3    H226330   4.536   1.938   7.030
 1591TIP3   OH226331   5.024   1.963   7.068
 1591TIP3    H126332   5.057   1.938   6.982
 1591TIP3    H226333   5.004   1.881   7.112
 1592TIP3   OH226334   5.197   2.000   6.682
 1592TIP3    H126335   5.123   2.060   6.692
 1592TIP3    H226336   5.157   1.913   6.678
 1593TIP3   OH226337   4.150   2.137   6.296
 1593TIP3    H126338   4.096   2.066   6.262
 1593TIP3    H226339   4.097   2.216   6.281
 1594TIP3   OH226340   4.614   2.210   6.601
 1594TIP3    H126341   4.653   2.142   6.656
 1594TIP3    H226342   4.641   2.292   6.642
 1595TIP3   OH226343   4.762   3.646   6.448
 1595TIP3    H126344   4.755   3.712   6.378
 1595TIP3    H226345   4.730   3.565   6.408
 1596TIP3   OH226346   5.517   3.574   6.724
 1596TIP3    H126347   5.471   3.491   6.713
 1596TIP3    H226348   5.563   3.588   6.641
 1597TIP3   OH226349   4.054   2.001   7.858
 1597TIP3    H126350   3.993   1.938   7.898
 1597TIP3    H226351   4.137   1.985   7.903
 1598TIP3   OH226352   4.260   1.938   8.029
 1598TIP3    H126353   4.349   1.915   8.002
 1598TIP3    H226354   4.230   1.861   8.079
 1599TIP3   OH226355   5.107   1.903   8.081
 1599TIP3    H126356   5.097   1.854   8.162
 1599TIP3    H226357   5.200   1.893   8.058
 1600TIP3   OH226358   5.364   3.526   7.935
 1600TIP3    H126359   5.309   3.519   7.857
 1600TIP3    H226360   5.370   3.620   7.951
 1601TIP3   OH226361   6.829   2.910   6.888
 1601TIP3    H126362   6.814   3.004   6.877
 1601TIP3    H226363   6.764   2.868   6.831
 1602TIP3   OH226364   6.700   2.828   7.296
 1602TIP3    H126365   6.723   2.780   7.376
 1602TIP3    H226366   6.664   2.762   7.237
 1603TIP3   OH226367   5.955   2.760   7.445
 1603TIP3    H126368   5.968   2.683   7.500
 1603TIP3    H226369   6.042   2.779   7.409
 1604TIP3   OH226370   7.114   3.118   7.152
 1604TIP3    H126371   7.058   3.051   7.193
 1604TIP3    H226372   7.133   3.179   7.222
 1605TIP3   OH226373   6.086   3.231   7.264
 1605TIP3    H126374   6.055   3.146   7.234
 1605TIP3    H226375   6.181   3.225   7.259
 1606TIP3   OH226376   5.732   2.549   6.772
 1606TIP3    H126377   5.698   2.633   6.803
 1606TIP3    H226378   5.674   2.524   6.700
 1607TIP3   OH226379   5.791   2.810   7.073
 1607TIP3    H126380   5.826   2.721   7.080
 1607TIP3    H226381   5.868   2.866   7.071
 1608TIP3   OH226382   6.815   3.585   7.202
 1608TIP3    H126383   6.834   3.537   7.121
 1608TIP3    H226384   6.819   3.518   7.270
 1609TIP3   OH226385   6.566   3.076   7.316
 1609TIP3    H126386   6.603   2.994   7.281
 1609TIP3    H226387   6.638   3.115   7.365
 1610TIP3   OH226388   6.879   2.481   7.332
 1610TIP3    H126389   6.892   2.387   7.340
 1610TIP3    H226390   6.867   2.496   7.238
 1611TIP3   OH226391   6.233   2.312   7.058
 1611TIP3    H126392   6.249   2.394   7.011
 1611TIP3    H226393   6.183   2.258   6.997
 1612TIP3   OH226394   6.991   2.341   6.926
 1612TIP3    H126395   7.046   2.279   6.974
 1612TIP3    H226396   7.034   2.350   6.841
 1613TIP3   OH226397   5.875   2.547   7.126
 1613TIP3    H126398   5.941   2.507   7.183
 1613TIP3    H226399   5.898   2.517   7.038
 1614TIP3   OH226400   6.348   2.694   7.121
 1614TIP3    H126401   6.437   2.664   7.139
 1614TIP3    H226402   6.315   2.632   7.056
 1615TIP3   OH226403   6.094   2.219   7.478
 1615TIP3    H126404   6.076   2.278   7.405
 1615TIP3    H226405   6.021   2.234   7.539
 1616TIP3   OH226406   6.762   3.164   6.796
 1616TIP3    H126407   6.785   3.177   6.704
 1616TIP3    H226408   6.719   3.245   6.822
 1617TIP3   OH226409   6.352   2.990   7.465
 1617TIP3    H126410   6.303   3.064   7.501
 1617TIP3    H226411   6.422   3.030   7.414
 1618TIP3   OH226412   7.106   2.203   7.134
 1618TIP3    H126413   7.027   2.181   7.184
 1618TIP3    H226414   7.154   2.262   7.192
 1619TIP3   OH226415   6.066   2.390   7.263
 1619TIP3    H126416   6.123   2.448   7.314
 1619TIP3    H226417   6.123   2.357   7.193
 1620TIP3   OH226418   6.207   3.197   7.578
 1620TIP3    H126419   6.214   3.288   7.547
 1620TIP3    H226420   6.115   3.187   7.601
 1621TIP3   OH226421   5.781   3.142   6.642
 1621TIP3    H126422   5.735   3.190   6.573
 1621TIP3    H226423   5.816   3.209   6.700
 1622TIP3   OH226424   7.128   3.323   7.350
 1622TIP3    H126425   7.035   3.344   7.345
 1622TIP3    H226426   7.172   3.393   7.302
 1623TIP3   OH226427   7.129   2.140   7.459
 1623TIP3    H126428   7.040   2.151   7.426
 1623TIP3    H226429   7.180   2.206   7.412
 1624TIP3   OH226430   6.451   1.905   7.223
 1624TIP3    H126431   6.425   1.813   7.224
 1624TIP3    H226432   6.373   1.952   7.254
 1625TIP3   OH226433   6.912   3.451   6.985
 1625TIP3    H126434   6.963   3.373   6.963
 1625TIP3    H226435   6.975   3.523   6.981
 1626TIP3   OH226436   7.097   3.265   6.915
 1626TIP3    H126437   7.114   3.212   6.838
 1626TIP3    H226438   7.108   3.205   6.989
 1627TIP3   OH226439   7.249   3.093   7.753
 1627TIP3    H126440   7.247   3.028   7.683
 1627TIP3    H226441   7.257   3.177   7.708
 1628TIP3   OH226442   6.672   2.799   6.674
 1628TIP3    H126443   6.609   2.865   6.645
 1628TIP3    H226444   6.745   2.807   6.613
 1629TIP3   OH226445   7.064   2.836   6.760
 1629TIP3    H126446   6.988   2.864   6.812
 1629TIP3    H226447   7.111   2.776   6.817
 1630TIP3   OH226448   7.010   2.672   7.650
 1630TIP3    H126449   7.043   2.762   7.650
 1630TIP3    H226450   6.928   2.677   7.601
 1631TIP3   OH226451   6.203   2.893   6.969
 1631TIP3    H126452   6.174   2.858   6.885
 1631TIP3    H226453   6.264   2.827   7.002
 1632TIP3   OH226454   6.360   3.245   7.218
 1632TIP3    H126455   6.360   3.256   7.123
 1632TIP3    H226456   6.438   3.191   7.235
 1633TIP3   OH226457   6.208   2.798   7.334
 1633TIP3    H126458   6.260   2.770   7.258
 1633TIP3    H226459   6.262   2.864   7.377
 1634TIP3   OH226460   6.856   3.372   7.386
 1634TIP3    H126461   6.855   3.427   7.465
 1634TIP3    H226462   6.829   3.285   7.418
 1635TIP3   OH226463   6.358   3.228   7.806
 1635TIP3    H126464   6.296   3.288   7.847
 1635TIP3    H226465   6.316   3.202   7.724
 1636TIP3   OH226466   6.907   2.793   6.535
 1636TIP3    H126467   6.972   2.809   6.603
 1636TIP3    H226468   6.956   2.796   6.453
 1637TIP3   OH226469   6.016   2.791   7.783
 1637TIP3    H126470   6.032   2.881   7.811
 1637TIP3    H226471   5.931   2.794   7.739
 1638TIP3   OH226472   6.670   3.424   6.856
 1638TIP3    H126473   6.749   3.433   6.910
 1638TIP3    H226474   6.659   3.509   6.814
 1639TIP3   OH226475   6.152   3.405   7.877
 1639TIP3    H126476   6.161   3.434   7.786
 1639TIP3    H226477   6.060   3.385   7.887
 1640TIP3   OH226478   6.092   2.795   6.729
 1640TIP3    H126479   6.081   2.868   6.668
 1640TIP3    H226480   6.010   2.746   6.723
 1641TIP3   OH226481   5.731   3.055   7.624
 1641TIP3    H126482   5.682   3.066   7.542
 1641TIP3    H226483   5.745   2.961   7.631
 1642TIP3   OH226484   5.695   3.335   7.313
 1642TIP3    H126485   5.784   3.346   7.346
 1642TIP3    H226486   5.650   3.417   7.335
 1643TIP3   OH226487   6.601   3.342   7.747
 1643TIP3    H126488   6.597   3.429   7.788
 1643TIP3    H226489   6.517   3.302   7.768
 1644TIP3   OH226490   6.692   3.683   6.739
 1644TIP3    H126491   6.682   3.704   6.646
 1644TIP3    H226492   6.668   3.765   6.784
 1645TIP3   OH226493   6.014   3.584   6.917
 1645TIP3    H126494   6.029   3.542   7.002
 1645TIP3    H226495   5.958   3.523   6.869
 1646TIP3   OH226496   6.892   3.717   6.462
 1646TIP3    H126497   6.923   3.701   6.373
 1646TIP3    H226498   6.941   3.655   6.516
 1647TIP3   OH226499   6.958   3.596   6.718
 1647TIP3    H126500   6.867   3.622   6.730
 1647TIP3    H226501   6.956   3.501   6.721
 1648TIP3   OH226502   7.160   2.599   7.925
 1648TIP3    H126503   7.165   2.587   7.830
 1648TIP3    H226504   7.237   2.553   7.959
 1649TIP3   OH226505   5.951   3.207   7.687
 1649TIP3    H126506   5.978   3.161   7.766
 1649TIP3    H226507   5.874   3.160   7.656
 1650TIP3   OH226508   6.202   2.015   7.317
 1650TIP3    H126509   6.128   2.009   7.257
 1650TIP3    H226510   6.183   2.090   7.373
 1651TIP3   OH226511   6.681   2.000   7.665
 1651TIP3    H126512   6.727   1.944   7.728
 1651TIP3    H226513   6.588   1.983   7.681
 1652TIP3   OH226514   7.011   2.392   7.734
 1652TIP3    H126515   6.948   2.381   7.805
 1652TIP3    H226516   7.002   2.483   7.707
 1653TIP3   OH226517   6.220   2.540   7.438
 1653TIP3    H126518   6.156   2.541   7.509
 1653TIP3    H226519   6.225   2.631   7.408
 1654TIP3   OH226520   6.223   2.551   6.917
 1654TIP3    H126521   6.131   2.529   6.904
 1654TIP3    H226522   6.249   2.597   6.837
 1655TIP3   OH226523   6.756   2.581   6.817
 1655TIP3    H126524   6.726   2.658   6.768
 1655TIP3    H226525   6.820   2.540   6.759
 1656TIP3   OH226526   6.684   2.590   7.920
 1656TIP3    H126527   6.643   2.511   7.955
 1656TIP3    H226528   6.774   2.588   7.954
 1657TIP3   OH226529   6.850   2.525   7.064
 1657TIP3    H126530   6.811   2.570   6.990
 1657TIP3    H226531   6.898   2.452   7.025
 1658TIP3   OH226532   6.008   2.541   7.614
 1658TIP3    H126533   6.005   2.588   7.697
 1658TIP3    H226534   5.964   2.458   7.632
 1659TIP3   OH226535   5.651   2.229   7.021
 1659TIP3    H126536   5.714   2.254   7.089
 1659TIP3    H226537   5.690   2.262   6.940
 1660TIP3   OH226538   6.771   2.660   7.505
 1660TIP3    H126539   6.812   2.600   7.443
 1660TIP3    H226540   6.712   2.605   7.557
 1661TIP3   OH226541   6.498   2.198   7.023
 1661TIP3    H126542   6.416   2.239   7.050
 1661TIP3    H226543   6.554   2.204   7.101
 1662TIP3   OH226544   5.966   2.453   6.883
 1662TIP3    H126545   5.889   2.477   6.831
 1662TIP3    H226546   5.985   2.363   6.856
 1663TIP3   OH226547   6.879   2.204   7.356
 1663TIP3    H126548   6.834   2.222   7.439
 1663TIP3    H226549   6.814   2.161   7.302
 1664TIP3   OH226550   7.242   3.788   7.981
 1664TIP3    H126551   7.250   3.867   7.927
 1664TIP3    H226552   0.029   3.761   7.998
 1665TIP3   OH226553   6.012   3.043   7.912
 1665TIP3    H126554   6.080   3.045   7.979
 1665TIP3    H226555   5.930   3.049   7.961
 1666TIP3   OH226556   6.594   2.581   7.195
 1666TIP3    H126557   6.667   2.551   7.142
 1666TIP3    H226558   6.580   2.512   7.259
 1667TIP3   OH226559   6.077   2.186   6.864
 1667TIP3    H126560   6.024   2.108   6.880
 1667TIP3    H226561   6.137   2.161   6.794
 1668TIP3   OH226562   6.474   2.423   7.437
 1668TIP3    H126563   6.393   2.475   7.434
 1668TIP3    H226564   6.523   2.458   7.511
 1669TIP3   OH226565   6.456   2.965   6.613
 1669TIP3    H126566   6.428   3.039   6.559
 1669TIP3    H226567   6.444   2.996   6.703
 1670TIP3   OH226568   7.173   2.939   7.514
 1670TIP3    H126569   7.251   2.928   7.460
 1670TIP3    H226570   7.101   2.946   7.451
 1671TIP3   OH226571   6.675   3.050   7.731
 1671TIP3    H126572   6.741   3.026   7.796
 1671TIP3    H226573   6.660   3.144   7.745
 1672TIP3   OH226574   6.941   2.455   6.648
 1672TIP3    H126575   7.035   2.471   6.662
 1672TIP3    H226576   6.931   2.455   6.553
 1673TIP3   OH226577   6.036   2.963   7.173
 1673TIP3    H126578   6.090   2.955   7.094
 1673TIP3    H226579   6.082   2.909   7.238
 1674TIP3   OH226580   5.744   2.784   7.713
 1674TIP3    H126581   5.711   2.738   7.790
 1674TIP3    H226582   5.678   2.766   7.645
 1675TIP3   OH226583   6.460   2.753   7.963
 1675TIP3    H126584   6.398   2.725   7.896
 1675TIP3    H226585   6.544   2.717   7.935
 1676TIP3   OH226586   6.874   3.288   7.753
 1676TIP3    H126587   6.786   3.317   7.731
 1676TIP3    H226588   6.892   3.329   7.838
 1677TIP3   OH226589   6.972   2.915   7.312
 1677TIP3    H126590   6.880   2.905   7.289
 1677TIP3    H226591   7.016   2.844   7.265
 1678TIP3   OH226592   6.306   3.317   6.956
 1678TIP3    H126593   6.339   3.402   6.926
 1678TIP3    H226594   6.219   3.310   6.915
 1679TIP3   OH226595   6.391   3.068   6.858
 1679TIP3    H126596   6.386   3.159   6.888
 1679TIP3    H226597   6.323   3.023   6.908
 1680TIP3   OH226598   6.482   3.488   7.525
 1680TIP3    H126599   6.536   3.564   7.504
 1680TIP3    H226600   6.542   3.427   7.569
 1681TIP3   OH226601   6.285   3.578   6.853
 1681TIP3    H126602   6.192   3.596   6.865
 1681TIP3    H226603   6.328   3.657   6.887
 1682TIP3   OH226604   6.790   3.114   7.478
 1682TIP3    H126605   6.759   3.081   7.562
 1682TIP3    H226606   6.861   3.055   7.454
 1683TIP3   OH226607   7.095   3.536   7.703
 1683TIP3    H126608   7.011   3.503   7.671
 1683TIP3    H226609   7.112   3.615   7.651
 1684TIP3   OH226610   5.878   2.285   7.646
 1684TIP3    H126611   5.790   2.318   7.629
 1684TIP3    H226612   5.864   2.201   7.689
 1685TIP3   OH226613   7.164   3.094   6.713
 1685TIP3    H126614   7.131   3.004   6.715
 1685TIP3    H226615   7.254   3.085   6.681
 1686TIP3   OH226616   5.898   3.448   7.511
 1686TIP3    H126617   5.922   3.368   7.557
 1686TIP3    H226618   5.946   3.517   7.557
 1687TIP3   OH226619   6.361   3.264   6.549
 1687TIP3    H126620   6.453   3.247   6.569
 1687TIP3    H226621   6.349   3.357   6.569
 1688TIP3   OH226622   5.990   2.983   6.542
 1688TIP3    H126623   5.911   3.024   6.577
 1688TIP3    H226624   6.036   3.054   6.498
 1689TIP3   OH226625   6.780   2.252   7.611
 1689TIP3    H126626   6.861   2.262   7.662
 1689TIP3    H226627   6.748   2.165   7.635
 1690TIP3   OH226628   6.801   2.207   6.652
 1690TIP3    H126629   6.763   2.225   6.566
 1690TIP3    H226630   6.845   2.289   6.676
 1691TIP3   OH226631   6.631   2.482   7.660
 1691TIP3    H126632   6.654   2.514   7.747
 1691TIP3    H226633   6.681   2.400   7.651
 1692TIP3   OH226634   6.626   2.066   6.815
 1692TIP3    H126635   6.593   2.124   6.883
 1692TIP3    H226636   6.699   2.114   6.776
 1693TIP3   OH226637   6.372   3.538   6.594
 1693TIP3    H126638   6.395   3.625   6.562
 1693TIP3    H226639   6.344   3.552   6.684
 1694TIP3   OH226640   7.240   2.225   7.696
 1694TIP3    H126641   7.185   2.291   7.738
 1694TIP3    H226642   7.192   2.200   7.618
 1695TIP3   OH226643   7.062   2.680   7.186
 1695TIP3    H126644   6.988   2.641   7.140
 1695TIP3    H226645   7.091   2.614   7.248
 1696TIP3   OH226646   6.110   3.198   6.412
 1696TIP3    H126647   6.190   3.226   6.457
 1696TIP3    H226648   6.064   3.279   6.392
 1697TIP3   OH226649   7.242   3.637   7.335
 1697TIP3    H126650   7.224   3.706   7.271
 1697TIP3    H226651   0.031   3.616   7.320
 1698TIP3   OH226652   5.952   1.997   7.192
 1698TIP3    H126653   5.945   1.990   7.097
 1698TIP3    H226654   5.920   1.913   7.224
 1699TIP3   OH226655   5.849   3.423   6.745
 1699TIP3    H126656   5.757   3.448   6.759
 1699TIP3    H226657   5.868   3.450   6.656
 1700TIP3   OH226658   5.803   3.637   7.949
 1700TIP3    H126659   5.864   3.571   7.981
 1700TIP3    H226660   5.725   3.587   7.924
 1701TIP3   OH226661   6.206   3.531   8.117
 1701TIP3    H126662   6.293   3.497   8.139
 1701TIP3    H226663   6.184   3.487   8.035
 1702TIP3   OH226664   6.887   3.373   8.017
 1702TIP3    H126665   6.861   3.286   8.047
 1702TIP3    H226666   6.967   3.393   8.065
 1703TIP3   OH226667   5.766   3.035   8.045
 1703TIP3    H126668   5.767   2.940   8.034
 1703TIP3    H226669   5.700   3.066   7.983
 1704TIP3   OH226670   6.428   3.042   8.001
 1704TIP3    H126671   6.423   3.088   7.917
 1704TIP3    H226672   6.466   2.957   7.980
 1705TIP3   OH226673   6.984   3.036   7.795
 1705TIP3    H126674   7.077   3.050   7.778
 1705TIP3    H226675   6.942   3.118   7.770
 1706TIP3   OH226676   5.846   2.768   8.015
 1706TIP3    H126677   5.920   2.760   7.955
 1706TIP3    H226678   5.886   2.763   8.102
 1707TIP3   OH226679   6.274   2.662   7.767
 1707TIP3    H126680   6.194   2.713   7.761
 1707TIP3    H226681   6.332   2.700   7.702
 1708TIP3   OH226682   6.778   2.887   8.069
 1708TIP3    H126683   6.867   2.868   8.040
 1708TIP3    H226684   6.747   2.803   8.104
 1709TIP3   OH226685   6.321   2.397   7.826
 1709TIP3    H126686   6.327   2.339   7.750
 1709TIP3    H226687   6.313   2.485   7.789
 1710TIP3   OH226688   6.341   2.234   7.598
 1710TIP3    H126689   6.397   2.281   7.536
 1710TIP3    H226690   6.255   2.230   7.556
 1711TIP3   OH226691   6.458   2.780   7.608
 1711TIP3    H126692   6.553   2.791   7.608
 1711TIP3    H226693   6.426   2.856   7.559
 1712TIP3   OH226694   6.923   2.551   8.071
 1712TIP3    H126695   6.931   2.456   8.067
 1712TIP3    H226696   7.003   2.584   8.031
 1713TIP3   OH226697   7.043   2.847   7.994
 1713TIP3    H126698   7.030   2.907   7.920
 1713TIP3    H226699   7.092   2.774   7.956
 1714TIP3   OH226700   6.145   2.451   8.037
 1714TIP3    H126701   6.067   2.401   8.017
 1714TIP3    H226702   6.194   2.453   7.955
 1715TIP3   OH226703   6.400   1.972   7.670
 1715TIP3    H126704   6.383   2.063   7.646
 1715TIP3    H226705   6.336   1.921   7.621
 1716TIP3   OH226706   6.548   2.359   7.984
 1716TIP3    H126707   6.495   2.333   8.059
 1716TIP3    H226708   6.484   2.369   7.913
 1717TIP3   OH226709   6.823   2.317   7.920
 1717TIP3    H126710   6.731   2.307   7.945
 1717TIP3    H226711   6.869   2.253   7.975
 1718TIP3   OH226712   6.975   2.170   8.099
 1718TIP3    H126713   6.964   2.075   8.099
 1718TIP3    H226714   6.941   2.197   8.185
 1719TIP3   OH226715   5.942   2.262   7.995
 1719TIP3    H126716   5.944   2.188   7.934
 1719TIP3    H226717   5.943   2.221   8.082
 1720TIP3   OH226718   6.390   1.886   7.929
 1720TIP3    H126719   6.447   1.809   7.923
 1720TIP3    H226720   6.387   1.921   7.840
 1721TIP3   OH226721   6.476   2.054   8.132
 1721TIP3    H126722   6.459   1.995   8.058
 1721TIP3    H226723   6.423   2.131   8.114
 1722TIP3   OH226724   6.458   3.799   6.454
 1722TIP3    H126725   6.524   3.862   6.426
 1722TIP3    H226726   6.376   3.849   6.454
 1723TIP3   OH226727   5.661   3.731   6.900
 1723TIP3    H126728   5.619   3.686   6.826
 1723TIP3    H226729   5.683   3.660   6.961
 1724TIP3   OH226730   5.719   3.527   7.074
 1724TIP3    H126731   5.689   3.442   7.106
 1724TIP3    H226732   5.774   3.561   7.144
 1725TIP3   OH226733   7.252   3.321   7.602
 1725TIP3    H126734   7.208   3.399   7.635
 1725TIP3    H226735   7.218   3.311   7.513
 1726TIP3   OH226736   7.194   2.667   6.938
 1726TIP3    H126737   7.210   2.573   6.944
 1726TIP3    H226738   7.162   2.692   7.025
 1727TIP3   OH226739   5.716   2.825   7.333
 1727TIP3    H126740   5.732   2.830   7.239
 1727TIP3    H226741   5.803   2.814   7.372
 1728TIP3   OH226742   7.217   2.413   6.710
 1728TIP3    H126743   7.259   2.352   6.769
 1728TIP3    H226744   7.269   2.409   6.630
 1729TIP3   OH226745   7.259   2.340   7.321
 1729TIP3    H126746   0.036   2.307   7.283
 1729TIP3    H226747   7.275   2.433   7.335
 1730TIP3   OH226748   7.271   2.580   7.620
 1730TIP3    H126749   7.177   2.599   7.609
 1730TIP3    H226750   0.001   2.577   7.530
 1731TIP3   OH226751   5.709   2.390   7.917
 1731TIP3    H126752   5.798   2.360   7.939
 1731TIP3    H226753   5.656   2.311   7.921
 1732TIP3   OH226754   7.252   2.120   6.805
 1732TIP3    H126755   7.288   2.035   6.828
 1732TIP3    H226756   7.172   2.100   6.756
 1733TIP3   OH226757   5.822   2.239   7.246
 1733TIP3    H126758   5.863   2.154   7.235
 1733TIP3    H226759   5.895   2.300   7.255
 1734TIP3   OH226760   5.638   2.543   7.284
 1734TIP3    H126761   5.709   2.524   7.222
 1734TIP3    H226762   5.657   2.632   7.315
 1735TIP3   OH226763   5.679   2.233   6.729
 1735TIP3    H126764   5.584   2.220   6.726
 1735TIP3    H226765   5.695   2.310   6.675
 1736TIP3   OH226766   7.096   3.652   6.972
 1736TIP3    H126767   7.098   3.651   6.876
 1736TIP3    H226768   7.186   3.632   6.998
 1737TIP3   OH226769   5.697   2.005   7.559
 1737TIP3    H126770   5.624   1.990   7.619
 1737TIP3    H226771   5.665   2.071   7.497
 1738TIP3   OH226772   5.887   3.374   7.987
 1738TIP3    H126773   5.805   3.372   7.938
 1738TIP3    H226774   5.866   3.336   8.072
 1739TIP3   OH226775   6.222   3.482   7.615
 1739TIP3    H126776   6.198   3.571   7.588
 1739TIP3    H226777   6.314   3.473   7.590
 1740TIP3   OH226778   6.604   3.586   7.885
 1740TIP3    H126779   6.622   3.554   7.973
 1740TIP3    H226780   6.683   3.634   7.860
 1741TIP3   OH226781   6.833   3.728   7.841
 1741TIP3    H126782   6.898   3.689   7.782
 1741TIP3    H226783   6.883   3.752   7.919
 1742TIP3   OH226784   5.908   3.735   7.613
 1742TIP3    H126785   5.855   3.808   7.581
 1742TIP3    H226786   5.860   3.702   7.689
 1743TIP3   OH226787   6.177   3.741   7.540
 1743TIP3    H126788   6.084   3.752   7.560
 1743TIP3    H226789   6.189   3.784   7.455
 1744TIP3   OH226790   6.630   3.707   7.450
 1744TIP3    H126791   6.602   3.733   7.362
 1744TIP3    H226792   6.647   3.789   7.495
 1745TIP3   OH226793   6.857   3.590   7.558
 1745TIP3    H126794   6.779   3.625   7.516
 1745TIP3    H226795   6.927   3.650   7.532
 1746TIP3   OH226796   7.081   3.749   7.524
 1746TIP3    H126797   7.093   3.843   7.508
 1746TIP3    H226798   7.136   3.707   7.458
 1747TIP3   OH226799   5.881   3.617   7.287
 1747TIP3    H126800   5.883   3.568   7.370
 1747TIP3    H226801   5.958   3.585   7.239
 1748TIP3   OH226802   6.093   3.493   7.174
 1748TIP3    H126803   6.085   3.401   7.202
 1748TIP3    H226804   6.182   3.517   7.196
 1749TIP3   OH226805   6.358   3.523   7.274
 1749TIP3    H126806   6.371   3.436   7.237
 1749TIP3    H226807   6.394   3.517   7.363
 1750TIP3   OH226808   6.692   2.073   7.202
 1750TIP3    H126809   6.618   2.014   7.191
 1750TIP3    H226810   6.762   2.034   7.151
 1751TIP3   OH226811   7.180   1.931   7.184
 1751TIP3    H126812   7.217   2.008   7.141
 1751TIP3    H226813   7.088   1.931   7.156
 1752TIP3   OH226814   5.922   1.954   6.917
 1752TIP3    H126815   5.831   1.937   6.890
 1752TIP3    H226816   5.965   1.869   6.910
 1753TIP3   OH226817   6.410   1.911   6.931
 1753TIP3    H126818   6.470   1.968   6.884
 1753TIP3    H226819   6.428   1.928   7.024
 1754TIP3   OH226820   6.909   1.942   7.087
 1754TIP3    H126821   6.937   1.928   6.996
 1754TIP3    H226822   6.883   1.855   7.118
 1755TIP3   OH226823   7.031   2.043   6.665
 1755TIP3    H126824   6.946   2.086   6.655
 1755TIP3    H226825   7.010   1.950   6.666
 1756TIP3   OH226826   6.491   2.205   6.605
 1756TIP3    H126827   6.542   2.150   6.664
 1756TIP3    H226828   6.551   2.223   6.532
 1757TIP3   OH226829   5.938   2.008   7.870
 1757TIP3    H126830   5.876   1.942   7.901
 1757TIP3    H226831   6.018   1.989   7.918
 1758TIP3   OH226832   6.141   1.943   8.051
 1758TIP3    H126833   6.225   1.918   8.014
 1758TIP3    H226834   6.107   1.863   8.090
 1759TIP3   OH226835   6.979   1.892   8.081
 1759TIP3    H126836   6.979   1.839   8.161
 1759TIP3    H226837   7.070   1.889   8.051
 1760TIP3   OH226838   7.200   3.510   7.960
 1760TIP3    H126839   7.169   3.498   7.870
 1760TIP3    H226840   7.221   3.603   7.966
 1761TIP3   OH226841   1.165   4.796   6.925
 1761TIP3    H126842   1.155   4.889   6.905
 1761TIP3    H226843   1.087   4.774   6.975
 1762TIP3   OH226844   1.113   4.707   7.323
 1762TIP3    H126845   1.132   4.653   7.399
 1762TIP3    H226846   1.053   4.654   7.270
 1763TIP3   OH226847   0.308   4.657   7.467
 1763TIP3    H126848   0.310   4.566   7.496
 1763TIP3    H226849   0.393   4.670   7.426
 1764TIP3   OH226850   1.455   5.010   7.137
 1764TIP3    H126851   1.425   4.933   7.186
 1764TIP3    H226852   1.475   5.075   7.204
 1765TIP3   OH226853   0.387   5.140   7.275
 1765TIP3    H126854   0.372   5.047   7.254
 1765TIP3    H226855   0.482   5.148   7.283
 1766TIP3   OH226856   0.152   4.501   6.778
 1766TIP3    H126857   0.157   4.587   6.821
 1766TIP3    H226858   0.058   4.482   6.774
 1767TIP3   OH226859   0.203   4.692   7.079
 1767TIP3    H126860   0.202   4.599   7.099
 1767TIP3    H226861   0.284   4.705   7.029
 1768TIP3   OH226862   1.196   5.482   7.172
 1768TIP3    H126863   1.240   5.442   7.097
 1768TIP3    H226864   1.170   5.408   7.227
 1769TIP3   OH226865   0.875   4.976   7.324
 1769TIP3    H126866   0.841   4.942   7.241
 1769TIP3    H226867   0.970   4.961   7.319
 1770TIP3   OH226868   1.799   4.095   7.409
 1770TIP3    H126869   1.811   4.164   7.474
 1770TIP3    H226870   1.845   4.126   7.331
 1771TIP3   OH226871   1.249   4.373   7.328
 1771TIP3    H126872   1.257   4.278   7.339
 1771TIP3    H226873   1.224   4.384   7.237
 1772TIP3   OH226874   0.595   4.194   7.045
 1772TIP3    H126875   0.598   4.283   7.009
 1772TIP3    H226876   0.539   4.146   6.985
 1773TIP3   OH226877   1.353   4.216   6.903
 1773TIP3    H126878   1.394   4.181   6.983
 1773TIP3    H226879   1.426   4.253   6.853
 1774TIP3   OH226880   0.229   4.430   7.164
 1774TIP3    H126881   0.305   4.397   7.210
 1774TIP3    H226882   0.238   4.397   7.074
 1775TIP3   OH226883   0.694   4.515   7.179
 1775TIP3    H126884   0.789   4.517   7.177
 1775TIP3    H226885   0.668   4.499   7.088
 1776TIP3   OH226886   1.821   4.259   7.635
 1776TIP3    H126887   1.771   4.337   7.608
 1776TIP3    H226888   1.761   4.210   7.691
 1777TIP3   OH226889   0.434   4.107   7.486
 1777TIP3    H126890   0.419   4.164   7.411
 1777TIP3    H226891   0.359   4.122   7.544
 1778TIP3   OH226892   1.104   5.049   6.839
 1778TIP3    H126893   1.017   5.015   6.817
 1778TIP3    H226894   1.092   5.143   6.846
 1779TIP3   OH226895   0.688   4.873   7.494
 1779TIP3    H126896   0.627   4.942   7.521
 1779TIP3    H226897   0.750   4.917   7.435
 1780TIP3   OH226898   1.452   4.161   7.153
 1780TIP3    H126899   1.386   4.129   7.214
 1780TIP3    H226900   1.507   4.219   7.205
 1781TIP3   OH226901   0.437   4.269   7.261
 1781TIP3    H126902   0.496   4.323   7.313
 1781TIP3    H226903   0.489   4.240   7.187
 1782TIP3   OH226904   0.527   5.074   7.596
 1782TIP3    H126905   0.539   5.166   7.576
 1782TIP3    H226906   0.435   5.066   7.622
 1783TIP3   OH226907   0.196   5.083   6.629
 1783TIP3    H126908   0.118   5.107   6.578
 1783TIP3    H226909   0.165   5.015   6.689
 1784TIP3   OH226910   1.495   5.214   7.333
 1784TIP3    H126911   1.401   5.219   7.351
 1784TIP3    H226912   1.519   5.302   7.306
 1785TIP3   OH226913   1.540   3.999   7.483
 1785TIP3    H126914   1.471   4.039   7.429
 1785TIP3    H226915   1.622   4.025   7.441
 1786TIP3   OH226916   0.800   3.798   7.235
 1786TIP3    H126917   0.769   3.708   7.228
 1786TIP3    H226918   0.723   3.848   7.264
 1787TIP3   OH226919   1.329   5.386   6.947
 1787TIP3    H126920   1.358   5.297   6.929
 1787TIP3    H226921   1.409   5.438   6.949
 1788TIP3   OH226922   1.379   5.121   6.894
 1788TIP3    H126923   1.294   5.083   6.875
 1788TIP3    H226924   1.409   5.074   6.973
 1789TIP3   OH226925   1.608   4.997   7.696
 1789TIP3    H126926   1.593   4.941   7.619
 1789TIP3    H226927   1.617   5.085   7.659
 1790TIP3   OH226928   1.031   4.710   6.664
 1790TIP3    H126929   0.943   4.746   6.675
 1790TIP3    H226930   1.088   4.770   6.712
 1791TIP3   OH226931   1.104   4.546   6.362
 1791TIP3    H126932   1.094   4.577   6.452
 1791TIP3    H226933   1.019   4.510   6.339
 1792TIP3   OH226934   1.785   4.670   7.495
 1792TIP3    H126935   1.710   4.729   7.493
 1792TIP3    H226936   1.841   4.701   7.424
 1793TIP3   OH226937   1.379   4.692   6.786
 1793TIP3    H126938   1.311   4.727   6.844
 1793TIP3    H226939   1.448   4.662   6.845
 1794TIP3   OH226940   1.389   4.539   7.708
 1794TIP3    H126941   1.376   4.607   7.774
 1794TIP3    H226942   1.321   4.556   7.643
 1795TIP3   OH226943   0.463   4.695   6.976
 1795TIP3    H126944   0.455   4.700   6.881
 1795TIP3    H226945   0.536   4.753   6.997
 1796TIP3   OH226946   0.688   5.172   7.260
 1796TIP3    H126947   0.671   5.135   7.173
 1796TIP3    H226948   0.757   5.118   7.296
 1797TIP3   OH226949   0.561   4.659   7.366
 1797TIP3    H126950   0.605   4.630   7.287
 1797TIP3    H226951   0.603   4.742   7.389
 1798TIP3   OH226952   1.233   5.236   7.407
 1798TIP3    H126953   1.211   5.290   7.483
 1798TIP3    H226954   1.201   5.148   7.429
 1799TIP3   OH226955   0.701   5.111   7.808
 1799TIP3    H126956   0.640   5.172   7.850
 1799TIP3    H226957   0.655   5.078   7.732
 1800TIP3   OH226958   1.399   4.698   6.518
 1800TIP3    H126959   1.382   4.690   6.612
 1800TIP3    H226960   1.425   4.790   6.506
 1801TIP3   OH226961   0.383   4.685   7.746
 1801TIP3    H126962   0.375   4.767   7.795
 1801TIP3    H226963   0.349   4.707   7.659
 1802TIP3   OH226964   1.072   5.319   6.867
 1802TIP3    H126965   1.155   5.353   6.902
 1802TIP3    H226966   1.023   5.398   6.842
 1803TIP3   OH226967   0.505   5.302   7.873
 1803TIP3    H126968   0.510   5.321   7.780
 1803TIP3    H226969   0.411   5.294   7.891
 1804TIP3   OH226970   0.423   4.678   6.707
 1804TIP3    H126971   0.418   4.751   6.646
 1804TIP3    H226972   0.394   4.602   6.657
 1805TIP3   OH226973   0.158   4.904   7.599
 1805TIP3    H126974   0.142   4.882   7.508
 1805TIP3    H226975   0.127   4.828   7.649
 1806TIP3   OH226976   0.124   5.257   7.254
 1806TIP3    H126977   0.209   5.213   7.257
 1806TIP3    H226978   0.060   5.188   7.268
 1807TIP3   OH226979   1.867   5.306   7.895
 1807TIP3    H126980   1.855   5.212   7.884
 1807TIP3    H226981   1.783   5.337   7.929
 1808TIP3   OH226982   0.942   5.236   7.757
 1808TIP3    H126983   0.937   5.321   7.801
 1808TIP3    H226984   0.857   5.195   7.775
 1809TIP3   OH226985   1.013   5.597   6.767
 1809TIP3    H126986   0.939   5.581   6.709
 1809TIP3    H226987   1.002   5.688   6.796
 1810TIP3   OH226988   0.364   5.498   6.913
 1810TIP3    H126989   0.386   5.448   6.991
 1810TIP3    H226990   0.312   5.438   6.859
 1811TIP3   OH226991   1.333   5.544   6.424
 1811TIP3    H126992   1.390   5.472   6.397
 1811TIP3    H226993   1.314   5.525   6.516
 1812TIP3   OH226994   1.273   5.526   6.697
 1812TIP3    H126995   1.182   5.548   6.714
 1812TIP3    H226996   1.297   5.466   6.768
 1813TIP3   OH226997   1.567   4.409   7.908
 1813TIP3    H126998   1.506   4.445   7.844
 1813TIP3    H226999   1.558   4.314   7.900
 1814TIP3   OH227000   0.281   5.099   7.743
 1814TIP3    H127001   0.319   5.036   7.803
 1814TIP3    H227002   0.224   5.047   7.685
 1815TIP3   OH227003   0.555   3.910   7.323
 1815TIP3    H127004   0.483   3.902   7.260
 1815TIP3    H227005   0.528   3.982   7.380
 1816TIP3   OH227006   1.027   3.878   7.660
 1816TIP3    H127007   1.072   3.830   7.730
 1816TIP3    H227008   0.934   3.869   7.681
 1817TIP3   OH227009   1.347   4.267   7.752
 1817TIP3    H127010   1.273   4.251   7.810
 1817TIP3    H227011   1.339   4.359   7.727
 1818TIP3   OH227012   0.574   4.405   7.463
 1818TIP3    H127013   0.499   4.406   7.522
 1818TIP3    H227014   0.579   4.494   7.428
 1819TIP3   OH227015   0.600   4.443   6.930
 1819TIP3    H127016   0.535   4.512   6.934
 1819TIP3    H227017   0.604   4.419   6.837
 1820TIP3   OH227018   1.115   4.472   6.793
 1820TIP3    H127019   1.083   4.555   6.757
 1820TIP3    H227020   1.188   4.447   6.736
 1821TIP3   OH227021   1.027   4.466   7.922
 1821TIP3    H127022   0.974   4.393   7.956
 1821TIP3    H227023   1.110   4.458   7.969
 1822TIP3   OH227024   1.205   4.399   7.054
 1822TIP3    H127025   1.164   4.448   6.983
 1822TIP3    H227026   1.247   4.325   7.010
 1823TIP3   OH227027   0.340   4.415   7.611
 1823TIP3    H127028   0.333   4.472   7.688
 1823TIP3    H227029   0.295   4.335   7.637
 1824TIP3   OH227030   0.045   4.217   6.982
 1824TIP3    H127031   0.084   4.194   7.067
 1824TIP3    H227032   0.107   4.183   6.917
 1825TIP3   OH227033   1.174   4.536   7.531
 1825TIP3    H127034   1.206   4.479   7.460
 1825TIP3    H227035   1.104   4.486   7.572
 1826TIP3   OH227036   0.870   4.146   7.007
 1826TIP3    H127037   0.779   4.158   7.032
 1826TIP3    H227038   0.914   4.117   7.086
 1827TIP3   OH227039   0.311   4.328   6.925
 1827TIP3    H127040   0.269   4.378   6.854
 1827TIP3    H227041   0.352   4.254   6.881
 1828TIP3   OH227042   0.633   4.356   6.669
 1828TIP3    H127043   0.728   4.356   6.676
 1828TIP3    H227044   0.614   4.400   6.586
 1829TIP3   OH227045   1.256   4.096   7.345
 1829TIP3    H127046   1.216   4.103   7.432
 1829TIP3    H227047   1.187   4.058   7.290
 1830TIP3   OH227048   0.578   4.467   6.425
 1830TIP3    H127049   0.518   4.524   6.378
 1830TIP3    H227050   0.662   4.479   6.382
 1831TIP3   OH227051   1.601   5.665   7.987
 1831TIP3    H127052   1.623   5.702   7.902
 1831TIP3    H227053   1.676   5.687   8.043
 1832TIP3   OH227054   0.359   4.907   7.921
 1832TIP3    H127055   0.418   4.906   7.996
 1832TIP3    H227056   0.271   4.909   7.960
 1833TIP3   OH227057   0.966   4.469   7.227
 1833TIP3    H127058   1.020   4.414   7.170
 1833TIP3    H227059   0.926   4.407   7.289
 1834TIP3   OH227060   0.428   4.085   6.852
 1834TIP3    H127061   0.388   4.001   6.871
 1834TIP3    H227062   0.472   4.073   6.768
 1835TIP3   OH227063   0.834   4.317   7.430
 1835TIP3    H127064   0.748   4.359   7.435
 1835TIP3    H227065   0.880   4.348   7.508
 1836TIP3   OH227066   1.580   4.850   7.463
 1836TIP3    H127067   1.635   4.912   7.414
 1836TIP3    H227068   1.507   4.832   7.405
 1837TIP3   OH227069   1.226   4.185   6.495
 1837TIP3    H127070   1.168   4.205   6.421
 1837TIP3    H227071   1.257   4.270   6.524
 1838TIP3   OH227072   1.051   4.968   7.732
 1838TIP3    H127073   1.044   4.921   7.816
 1838TIP3    H227074   1.004   5.050   7.747
 1839TIP3   OH227075   1.328   4.417   6.611
 1839TIP3    H127076   1.409   4.391   6.656
 1839TIP3    H227077   1.349   4.500   6.569
 1840TIP3   OH227078   0.410   4.876   7.215
 1840TIP3    H127079   0.495   4.890   7.174
 1840TIP3    H227080   0.383   4.789   7.186
 1841TIP3   OH227081   0.059   4.704   7.754
 1841TIP3    H127082   0.100   4.672   7.834
 1841TIP3    H227083   0.026   4.625   7.711
 1842TIP3   OH227084   0.808   4.650   7.953
 1842TIP3    H127085   0.744   4.618   7.891
 1842TIP3    H227086   0.890   4.609   7.927
 1843TIP3   OH227087   1.225   5.238   7.741
 1843TIP3    H127088   1.131   5.233   7.725
 1843TIP3    H227089   1.233   5.236   7.836
 1844TIP3   OH227090   1.770   4.385   6.562
 1844TIP3    H127091   1.756   4.312   6.501
 1844TIP3    H227092   1.733   4.461   6.517
 1845TIP3   OH227093   1.832   5.031   7.856
 1845TIP3    H127094   1.741   5.027   7.826
 1845TIP3    H227095   1.883   5.006   7.778
 1846TIP3   OH227096   1.383   4.775   7.277
 1846TIP3    H127097   1.289   4.765   7.284
 1846TIP3    H227098   1.413   4.697   7.232
 1847TIP3   OH227099   0.588   5.244   6.989
 1847TIP3    H127100   0.623   5.312   6.930
 1847TIP3    H227101   0.612   5.162   6.946
 1848TIP3   OH227102   0.854   4.943   6.790
 1848TIP3    H127103   0.801   4.995   6.730
 1848TIP3    H227104   0.799   4.932   6.867
 1849TIP3   OH227105   0.837   5.407   7.547
 1849TIP3    H127106   0.900   5.476   7.526
 1849TIP3    H227107   0.889   5.337   7.586
 1850TIP3   OH227108   0.642   5.489   6.870
 1850TIP3    H127109   0.548   5.504   6.857
 1850TIP3    H227110   0.678   5.577   6.884
 1851TIP3   OH227111   1.154   4.976   7.475
 1851TIP3    H127112   1.113   4.965   7.561
 1851TIP3    H227113   1.162   4.887   7.441
 1852TIP3   OH227114   1.436   5.416   7.716
 1852TIP3    H127115   1.356   5.364   7.707
 1852TIP3    H227116   1.427   5.484   7.649
 1853TIP3   OH227117   0.223   4.159   7.674
 1853TIP3    H127118   0.128   4.166   7.676
 1853TIP3    H227119   0.242   4.076   7.718
 1854TIP3   OH227120   1.478   4.965   6.535
 1854TIP3    H127121   1.454   4.990   6.624
 1854TIP3    H227122   1.524   5.040   6.499
 1855TIP3   OH227123   0.216   5.376   7.535
 1855TIP3    H127124   0.278   5.308   7.510
 1855TIP3    H227125   0.138   5.329   7.564
 1856TIP3   OH227126   0.382   4.881   6.523
 1856TIP3    H127127   0.347   4.965   6.552
 1856TIP3    H227128   0.464   4.903   6.478
 1857TIP3   OH227129   1.141   4.120   7.595
 1857TIP3    H127130   1.202   4.135   7.667
 1857TIP3    H227131   1.096   4.039   7.617
 1858TIP3   OH227132   1.206   4.050   6.734
 1858TIP3    H127133   1.207   4.093   6.648
 1858TIP3    H227134   1.249   4.113   6.792
 1859TIP3   OH227135   0.900   4.295   6.766
 1859TIP3    H127136   0.972   4.357   6.779
 1859TIP3    H227137   0.885   4.259   6.853
 1860TIP3   OH227138   0.997   4.366   7.653
 1860TIP3    H127139   1.003   4.391   7.745
 1860TIP3    H227140   1.035   4.279   7.649
 1861TIP3   OH227141   0.962   3.960   6.820
 1861TIP3    H127142   0.934   4.030   6.879
 1861TIP3    H227143   1.049   3.987   6.791
 1862TIP3   OH227144   0.564   4.095   6.613
 1862TIP3    H127145   0.577   4.188   6.631
 1862TIP3    H227146   0.650   4.064   6.585
 1863TIP3   OH227147   1.583   4.135   7.723
 1863TIP3    H127148   1.499   4.179   7.737
 1863TIP3    H227149   1.569   4.082   7.644
 1864TIP3   OH227150   1.446   4.527   7.157
 1864TIP3    H127151   1.360   4.490   7.134
 1864TIP3    H227152   1.484   4.463   7.218
 1865TIP3   OH227153   1.571   5.480   7.313
 1865TIP3    H127154   1.554   5.554   7.256
 1865TIP3    H227155   1.666   5.482   7.327
 1866TIP3   OH227156   0.313   3.889   7.190
 1866TIP3    H127157   0.313   3.877   7.095
 1866TIP3    H227158   0.274   3.808   7.224
 1867TIP3   OH227159   0.206   5.338   6.753
 1867TIP3    H127160   0.157   5.362   6.675
 1867TIP3    H227161   0.240   5.250   6.734
 1868TIP3   OH227162   0.201   5.554   8.023
 1868TIP3    H127163   0.254   5.545   8.102
 1868TIP3    H227164   0.200   5.467   7.984
 1869TIP3   OH227165   0.592   5.402   8.115
 1869TIP3    H127166   0.662   5.340   8.136
 1869TIP3    H227167   0.559   5.373   8.030
 1870TIP3   OH227168   1.226   5.247   8.018
 1870TIP3    H127169   1.215   5.161   8.060
 1870TIP3    H227170   1.303   5.284   8.060
 1871TIP3   OH227171   0.085   4.924   7.993
 1871TIP3    H127172   0.091   4.828   7.988
 1871TIP3    H227173   0.029   4.949   7.920
 1872TIP3   OH227174   0.766   4.929   8.009
 1872TIP3    H127175   0.753   4.974   7.926
 1872TIP3    H227176   0.794   4.841   7.986
 1873TIP3   OH227177   1.343   4.939   7.783
 1873TIP3    H127178   1.424   4.980   7.752
 1873TIP3    H227179   1.273   4.990   7.743
 1874TIP3   OH227180   0.187   4.656   7.992
 1874TIP3    H127181   0.275   4.628   7.967
 1874TIP3    H227182   0.187   4.653   8.087
 1875TIP3   OH227183   0.621   4.545   7.769
 1875TIP3    H127184   0.540   4.595   7.758
 1875TIP3    H227185   0.680   4.580   7.703
 1876TIP3   OH227186   0.828   4.497   6.291
 1876TIP3    H127187   0.841   4.420   6.236
 1876TIP3    H227188   0.815   4.569   6.229
 1877TIP3   OH227189   1.123   4.779   8.047
 1877TIP3    H127190   1.196   4.736   8.003
 1877TIP3    H227191   1.087   4.712   8.106
 1878TIP3   OH227192   0.667   4.281   7.823
 1878TIP3    H127193   0.671   4.226   7.745
 1878TIP3    H227194   0.654   4.370   7.788
 1879TIP3   OH227195   0.689   4.124   7.590
 1879TIP3    H127196   0.742   4.171   7.525
 1879TIP3    H227197   0.601   4.123   7.554
 1880TIP3   OH227198   0.808   4.660   7.612
 1880TIP3    H127199   0.898   4.661   7.578
 1880TIP3    H227200   0.765   4.735   7.571
 1881TIP3   OH227201   1.246   4.421   8.097
 1881TIP3    H127202   1.248   4.343   8.153
 1881TIP3    H227203   1.338   4.444   8.084
 1882TIP3   OH227204   1.389   4.718   7.927
 1882TIP3    H127205   1.361   4.798   7.882
 1882TIP3    H227206   1.485   4.719   7.920
 1883TIP3   OH227207   0.501   4.338   8.044
 1883TIP3    H127208   0.420   4.290   8.026
 1883TIP3    H227209   0.548   4.338   7.961
 1884TIP3   OH227210   0.748   3.863   7.668
 1884TIP3    H127211   0.729   3.954   7.642
 1884TIP3    H227212   0.683   3.811   7.621
 1885TIP3   OH227213   0.880   4.244   7.992
 1885TIP3    H127214   0.832   4.217   8.070
 1885TIP3    H227215   0.814   4.253   7.924
 1886TIP3   OH227216   1.139   4.177   7.899
 1886TIP3    H127217   1.053   4.184   7.940
 1886TIP3    H227218   1.194   4.135   7.966
 1887TIP3   OH227219   1.330   4.071   8.081
 1887TIP3    H127220   1.321   3.976   8.088
 1887TIP3    H227221   1.298   4.104   8.165
 1888TIP3   OH227222   0.296   4.155   7.997
 1888TIP3    H127223   0.298   4.082   7.936
 1888TIP3    H227224   0.298   4.113   8.084
 1889TIP3   OH227225   0.748   3.781   7.930
 1889TIP3    H127226   0.804   3.704   7.920
 1889TIP3    H227227   0.741   3.817   7.841
 1890TIP3   OH227228   0.818   3.934   8.152
 1890TIP3    H127229   0.803   3.881   8.073
 1890TIP3    H227230   0.762   4.011   8.140
 1891TIP3   OH227231   0.035   5.675   6.875
 1891TIP3    H127232   0.086   5.656   6.796
 1891TIP3    H227233   0.069   5.615   6.941
 1892TIP3   OH227234   0.095   5.491   7.069
 1892TIP3    H127235   0.100   5.396   7.061
 1892TIP3    H227236   0.151   5.512   7.143
 1893TIP3   OH227237   1.836   5.489   7.387
 1893TIP3    H127238   1.835   5.502   7.482
 1893TIP3    H227239   1.910   5.543   7.357
 1894TIP3   OH227240   1.777   5.468   7.665
 1894TIP3    H127241   1.727   5.394   7.631
 1894TIP3    H227242   1.828   5.432   7.738
 1895TIP3   OH227243   1.637   5.037   8.215
 1895TIP3    H127244   1.550   5.059   8.248
 1895TIP3    H227245   1.684   5.121   8.213
 1896TIP3   OH227246   1.863   4.889   6.669
 1896TIP3    H127247   1.782   4.939   6.660
 1896TIP3    H227248   1.844   4.822   6.734
 1897TIP3   OH227249   1.799   4.706   6.864
 1897TIP3    H127250   1.716   4.662   6.881
 1897TIP3    H227251   1.834   4.726   6.951
 1898TIP3   OH227252   1.817   4.983   7.388
 1898TIP3    H127253   1.870   4.923   7.335
 1898TIP3    H227254   1.838   5.070   7.355
 1899TIP3   OH227255   1.617   5.250   7.584
 1899TIP3    H127256   1.547   5.301   7.624
 1899TIP3    H227257   1.586   5.235   7.494
 1900TIP3   OH227258   1.582   4.552   6.921
 1900TIP3    H127259   1.575   4.465   6.882
 1900TIP3    H227260   1.542   4.543   7.008
 1901TIP3   OH227261   0.101   4.772   7.330
 1901TIP3    H127262   0.120   4.773   7.236
 1901TIP3    H227263   0.182   4.741   7.370
 1902TIP3   OH227264   1.662   4.746   7.891
 1902TIP3    H127265   1.726   4.676   7.875
 1902TIP3    H227266   1.681   4.811   7.824
 1903TIP3   OH227267   1.818   4.516   7.874
 1903TIP3    H127268   1.732   4.476   7.881
 1903TIP3    H227269   1.878   4.454   7.914
 1904TIP3   OH227270   1.608   4.058   6.288
 1904TIP3    H127271   1.584   4.011   6.368
 1904TIP3    H227272   1.524   4.085   6.250
 1905TIP3   OH227273   1.569   4.317   6.748
 1905TIP3    H127274   1.590   4.224   6.750
 1905TIP3    H227275   1.638   4.356   6.695
 1906TIP3   OH227276   1.591   4.340   7.313
 1906TIP3    H127277   1.684   4.352   7.293
 1906TIP3    H227278   1.583   4.365   7.405
 1907TIP3   OH227279   1.626   4.452   7.569
 1907TIP3    H127280   1.547   4.484   7.612
 1907TIP3    H227281   1.675   4.531   7.547
 1908TIP3   OH227282   0.070   4.315   8.005
 1908TIP3    H127283   0.150   4.272   7.976
 1908TIP3    H227284   0.020   4.246   8.048
 1909TIP3   OH227285   1.849   3.868   8.077
 1909TIP3    H127286   1.911   3.799   8.052
 1909TIP3    H227287   1.859   3.934   8.009
 1910TIP3   OH227288   1.635   4.050   6.748
 1910TIP3    H127289   1.657   4.015   6.835
 1910TIP3    H227290   1.567   3.991   6.715
 1911TIP3   OH227291   0.188   4.132   7.215
 1911TIP3    H127292   0.222   4.043   7.209
 1911TIP3    H227293   0.266   4.187   7.220
 1912TIP3   OH227294   0.029   4.495   7.345
 1912TIP3    H127295   0.096   4.470   7.281
 1912TIP3    H227296   0.032   4.590   7.347
 1913TIP3   OH227297   1.796   4.077   7.904
 1913TIP3    H127298   1.728   4.101   7.967
 1913TIP3    H227299   1.748   4.044   7.828
 1914TIP3   OH227300   0.043   4.098   6.690
 1914TIP3    H127301   7.292   4.060   6.759
 1914TIP3    H227302   0.049   4.029   6.624
 1915TIP3   OH227303   1.547   5.546   6.927
 1915TIP3    H127304   1.585   5.536   6.840
 1915TIP3    H227305   1.589   5.624   6.963
 1916TIP3   OH227306   0.070   3.896   7.575
 1916TIP3    H127307   0.028   3.964   7.629
 1916TIP3    H227308   0.026   3.902   7.490
 1917TIP3   OH227309   0.230   5.284   7.949
 1917TIP3    H127310   0.222   5.224   7.875
 1917TIP3    H227311   0.186   5.238   8.021
 1918TIP3   OH227312   0.572   5.345   7.604
 1918TIP3    H127313   0.535   5.423   7.563
 1918TIP3    H227314   0.666   5.352   7.589
 1919TIP3   OH227315   0.953   5.488   7.893
 1919TIP3    H127316   0.964   5.449   7.980
 1919TIP3    H227317   1.039   5.525   7.873
 1920TIP3   OH227318   1.197   5.609   7.850
 1920TIP3    H127319   1.262   5.556   7.803
 1920TIP3    H227320   1.243   5.637   7.930
 1921TIP3   OH227321   1.694   3.829   7.722
 1921TIP3    H127322   1.619   3.840   7.663
 1921TIP3    H227323   1.723   3.740   7.706
 1922TIP3   OH227324   0.276   5.632   7.624
 1922TIP3    H127325   0.190   5.674   7.634
 1922TIP3    H227326   0.256   5.540   7.604
 1923TIP3   OH227327   0.518   5.591   7.504
 1923TIP3    H127328   0.432   5.616   7.538
 1923TIP3    H227329   0.525   5.638   7.421
 1924TIP3   OH227330   0.991   5.647   7.430
 1924TIP3    H127331   0.920   5.626   7.369
 1924TIP3    H227332   1.040   5.717   7.387
 1925TIP3   OH227333   1.192   5.493   7.545
 1925TIP3    H127334   1.126   5.535   7.490
 1925TIP3    H227335   1.274   5.537   7.522
 1926TIP3   OH227336   1.440   5.613   7.516
 1926TIP3    H127337   1.470   5.703   7.505
 1926TIP3    H227338   1.481   5.566   7.443
 1927TIP3   OH227339   0.245   5.539   7.300
 1927TIP3    H127340   0.223   5.490   7.379
 1927TIP3    H227341   0.317   5.490   7.261
 1928TIP3   OH227342   0.434   5.394   7.174
 1928TIP3    H127343   0.410   5.303   7.193
 1928TIP3    H227344   0.522   5.388   7.138
 1929TIP3   OH227345   0.739   5.446   7.283
 1929TIP3    H127346   0.726   5.361   7.243
 1929TIP3    H227347   0.745   5.429   7.377
 1930TIP3   OH227348   1.040   3.987   7.188
 1930TIP3    H127349   0.974   3.918   7.200
 1930TIP3    H227350   1.110   3.945   7.139
 1931TIP3   OH227351   1.539   3.829   7.152
 1931TIP3    H127352   1.597   3.891   7.108
 1931TIP3    H227353   1.451   3.862   7.135
 1932TIP3   OH227354   1.726   3.959   6.993
 1932TIP3    H127355   1.791   3.893   6.968
 1932TIP3    H227356   1.778   4.037   7.013
 1933TIP3   OH227357   0.304   3.847   6.918
 1933TIP3    H127358   0.215   3.836   6.884
 1933TIP3    H227359   0.346   3.763   6.902
 1934TIP3   OH227360   0.764   3.802   6.945
 1934TIP3    H127361   0.824   3.859   6.897
 1934TIP3    H227362   0.782   3.820   7.037
 1935TIP3   OH227363   1.264   3.866   7.072
 1935TIP3    H127364   1.275   3.856   6.978
 1935TIP3    H227365   1.242   3.778   7.103
 1936TIP3   OH227366   1.426   3.883   6.690
 1936TIP3    H127367   1.345   3.933   6.696
 1936TIP3    H227368   1.399   3.792   6.689
 1937TIP3   OH227369   0.846   4.092   6.587
 1937TIP3    H127370   0.878   4.020   6.641
 1937TIP3    H227371   0.867   4.171   6.638
 1938TIP3   OH227372   1.666   5.512   6.676
 1938TIP3    H127373   1.631   5.428   6.646
 1938TIP3    H227374   1.635   5.575   6.611
 1939TIP3   OH227375   0.303   3.901   7.870
 1939TIP3    H127376   0.247   3.835   7.909
 1939TIP3    H227377   0.387   3.891   7.915
 1940TIP3   OH227378   0.501   3.832   8.053
 1940TIP3    H127379   0.586   3.809   8.015
 1940TIP3    H227380   0.475   3.754   8.102
 1941TIP3   OH227381   1.335   3.792   8.078
 1941TIP3    H127382   1.328   3.743   8.160
 1941TIP3    H227383   1.427   3.783   8.053
 1942TIP3   OH227384   1.606   5.394   7.938
 1942TIP3    H127385   1.548   5.390   7.862
 1942TIP3    H227386   1.605   5.486   7.964
 1943TIP3   OH227387   3.081   4.787   6.940
 1943TIP3    H127388   3.063   4.881   6.934
 1943TIP3    H227389   3.031   4.749   6.868
 1944TIP3   OH227390   2.984   4.724   7.305
 1944TIP3    H127391   2.991   4.659   7.375
 1944TIP3    H227392   2.960   4.674   7.227
 1945TIP3   OH227393   2.180   4.642   7.430
 1945TIP3    H127394   2.186   4.571   7.494
 1945TIP3    H227395   2.271   4.661   7.409
 1946TIP3   OH227396   3.363   5.011   7.134
 1946TIP3    H127397   3.315   4.944   7.182
 1946TIP3    H227398   3.378   5.081   7.198
 1947TIP3   OH227399   2.314   5.112   7.242
 1947TIP3    H127400   2.284   5.024   7.221
 1947TIP3    H227401   2.409   5.105   7.245
 1948TIP3   OH227402   1.944   4.503   6.750
 1948TIP3    H127403   1.884   4.571   6.782
 1948TIP3    H227404   1.890   4.450   6.691
 1949TIP3   OH227405   2.101   4.659   7.016
 1949TIP3    H127406   2.082   4.586   7.075
 1949TIP3    H227407   2.153   4.719   7.069
 1950TIP3   OH227408   3.077   5.493   7.169
 1950TIP3    H127409   3.122   5.445   7.100
 1950TIP3    H227410   3.005   5.436   7.195
 1951TIP3   OH227411   2.803   4.965   7.313
 1951TIP3    H127412   2.850   4.898   7.263
 1951TIP3    H227413   2.867   4.996   7.377
 1952TIP3   OH227414   3.697   4.090   7.410
 1952TIP3    H127415   3.708   4.162   7.472
 1952TIP3    H227416   3.759   4.109   7.340
 1953TIP3   OH227417   3.149   4.353   7.342
 1953TIP3    H127418   3.241   4.327   7.336
 1953TIP3    H227419   3.121   4.362   7.251
 1954TIP3   OH227420   2.448   4.222   7.038
 1954TIP3    H127421   2.463   4.296   6.979
 1954TIP3    H227422   2.404   4.157   6.985
 1955TIP3   OH227423   3.230   4.194   6.929
 1955TIP3    H127424   3.277   4.167   7.009
 1955TIP3    H227425   3.298   4.235   6.875
 1956TIP3   OH227426   2.066   4.407   7.120
 1956TIP3    H127427   2.138   4.359   7.160
 1956TIP3    H227428   2.014   4.340   7.074
 1957TIP3   OH227429   2.576   4.555   7.104
 1957TIP3    H127430   2.659   4.513   7.127
 1957TIP3    H227431   2.547   4.508   7.025
 1958TIP3   OH227432   3.719   4.260   7.634
 1958TIP3    H127433   3.659   4.331   7.610
 1958TIP3    H227434   3.749   4.283   7.722
 1959TIP3   OH227435   2.317   4.115   7.482
 1959TIP3    H127436   2.299   4.174   7.409
 1959TIP3    H227437   2.241   4.125   7.540
 1960TIP3   OH227438   3.008   5.040   6.861
 1960TIP3    H127439   3.012   5.043   6.765
 1960TIP3    H227440   2.977   5.127   6.886
 1961TIP3   OH227441   2.583   4.876   7.455
 1961TIP3    H127442   2.533   4.948   7.492
 1961TIP3    H227443   2.653   4.919   7.405
 1962TIP3   OH227444   3.349   4.149   7.180
 1962TIP3    H127445   3.401   4.069   7.178
 1962TIP3    H227446   3.409   4.216   7.213
 1963TIP3   OH227447   2.292   4.278   7.256
 1963TIP3    H127448   2.345   4.338   7.309
 1963TIP3    H227449   2.349   4.254   7.183
 1964TIP3   OH227450   2.435   5.078   7.573
 1964TIP3    H127451   2.442   5.173   7.557
 1964TIP3    H227452   2.344   5.065   7.600
 1965TIP3   OH227453   3.390   5.224   7.329
 1965TIP3    H127454   3.296   5.219   7.348
 1965TIP3    H227455   3.404   5.313   7.299
 1966TIP3   OH227456   3.455   3.967   7.497
 1966TIP3    H127457   3.385   3.999   7.440
 1966TIP3    H227458   3.535   4.004   7.459
 1967TIP3   OH227459   2.664   3.795   7.237
 1967TIP3    H127460   2.641   3.702   7.241
 1967TIP3    H227461   2.586   3.840   7.267
 1968TIP3   OH227462   3.210   5.380   6.956
 1968TIP3    H127463   3.245   5.293   6.934
 1968TIP3    H227464   3.287   5.435   6.966
 1969TIP3   OH227465   3.331   5.148   6.891
 1969TIP3    H127466   3.356   5.099   6.813
 1969TIP3    H227467   3.344   5.087   6.963
 1970TIP3   OH227468   3.484   5.012   7.683
 1970TIP3    H127469   3.480   4.954   7.607
 1970TIP3    H227470   3.496   5.100   7.646
 1971TIP3   OH227471   2.963   4.688   6.709
 1971TIP3    H127472   2.869   4.673   6.700
 1971TIP3    H227473   2.986   4.745   6.635
 1972TIP3   OH227474   3.657   4.665   7.526
 1972TIP3    H127475   3.588   4.730   7.514
 1972TIP3    H227476   3.716   4.678   7.452
 1973TIP3   OH227477   3.300   4.759   6.767
 1973TIP3    H127478   3.231   4.774   6.831
 1973TIP3    H227479   3.365   4.706   6.814
 1974TIP3   OH227480   3.258   4.531   7.704
 1974TIP3    H127481   3.258   4.607   7.762
 1974TIP3    H227482   3.194   4.554   7.636
 1975TIP3   OH227483   2.454   4.767   6.965
 1975TIP3    H127484   2.476   4.758   6.873
 1975TIP3    H227485   2.508   4.702   7.009
 1976TIP3   OH227486   2.591   5.127   7.209
 1976TIP3    H127487   2.592   5.144   7.115
 1976TIP3    H227488   2.671   5.078   7.226
 1977TIP3   OH227489   2.444   4.677   7.327
 1977TIP3    H127490   2.497   4.645   7.253
 1977TIP3    H227491   2.498   4.744   7.368
 1978TIP3   OH227492   3.133   5.217   7.414
 1978TIP3    H127493   3.105   5.292   7.467
 1978TIP3    H227494   3.082   5.144   7.447
 1979TIP3   OH227495   2.586   5.102   7.804
 1979TIP3    H127496   2.525   5.163   7.845
 1979TIP3    H227497   2.544   5.076   7.722
 1980TIP3   OH227498   3.229   4.613   6.537
 1980TIP3    H127499   3.252   4.680   6.601
 1980TIP3    H227500   3.161   4.653   6.484
 1981TIP3   OH227501   2.246   4.683   7.774
 1981TIP3    H127502   2.258   4.770   7.812
 1981TIP3    H227503   2.158   4.685   7.737
 1982TIP3   OH227504   2.940   5.309   6.901
 1982TIP3    H127505   3.030   5.340   6.913
 1982TIP3    H227506   2.907   5.359   6.827
 1983TIP3   OH227507   2.390   5.283   7.871
 1983TIP3    H127508   2.392   5.315   7.780
 1983TIP3    H227509   2.297   5.273   7.891
 1984TIP3   OH227510   2.287   4.582   6.644
 1984TIP3    H127511   2.346   4.651   6.611
 1984TIP3    H227512   2.296   4.511   6.581
 1985TIP3   OH227513   3.692   5.385   6.387
 1985TIP3    H127514   3.686   5.478   6.366
 1985TIP3    H227515   3.670   5.341   6.306
 1986TIP3   OH227516   1.955   4.939   7.630
 1986TIP3    H127517   1.904   4.952   7.550
 1986TIP3    H227518   1.966   4.844   7.636
 1987TIP3   OH227519   1.920   5.233   7.311
 1987TIP3    H127520   2.006   5.242   7.352
 1987TIP3    H227521   1.873   5.313   7.337
 1988TIP3   OH227522   3.734   5.277   7.886
 1988TIP3    H127523   3.720   5.182   7.885
 1988TIP3    H227524   3.651   5.312   7.919
 1989TIP3   OH227525   2.824   5.230   7.753
 1989TIP3    H127526   2.819   5.316   7.794
 1989TIP3    H227527   2.739   5.190   7.771
 1990TIP3   OH227528   2.927   5.578   6.746
 1990TIP3    H127529   2.914   5.572   6.651
 1990TIP3    H227530   2.888   5.662   6.770
 1991TIP3   OH227531   2.260   5.482   6.926
 1991TIP3    H127532   2.282   5.445   7.011
 1991TIP3    H227533   2.208   5.414   6.883
 1992TIP3   OH227534   3.238   5.560   6.446
 1992TIP3    H127535   3.281   5.489   6.398
 1992TIP3    H227536   3.241   5.532   6.538
 1993TIP3   OH227537   3.193   5.529   6.717
 1993TIP3    H127538   3.099   5.542   6.723
 1993TIP3    H227539   3.212   5.462   6.783
 1994TIP3   OH227540   3.428   4.417   7.923
 1994TIP3    H127541   3.371   4.454   7.856
 1994TIP3    H227542   3.441   4.327   7.896
 1995TIP3   OH227543   2.184   5.085   7.683
 1995TIP3    H127544   2.204   5.052   7.771
 1995TIP3    H227545   2.102   5.040   7.659
 1996TIP3   OH227546   2.426   3.908   7.326
 1996TIP3    H127547   2.351   3.891   7.269
 1996TIP3    H227548   2.399   3.981   7.381
 1997TIP3   OH227549   2.913   3.876   7.661
 1997TIP3    H127550   2.958   3.826   7.729
 1997TIP3    H227551   2.820   3.864   7.682
 1998TIP3   OH227552   3.204   4.254   7.717
 1998TIP3    H127553   3.144   4.251   7.791
 1998TIP3    H227554   3.217   4.347   7.700
 1999TIP3   OH227555   2.445   4.424   7.441
 1999TIP3    H127556   2.378   4.425   7.509
 1999TIP3    H227557   2.447   4.515   7.409
 2000TIP3   OH227558   2.487   4.434   6.860
 2000TIP3    H127559   2.417   4.408   6.800
 2000TIP3    H227560   2.550   4.480   6.804
 2001TIP3   OH227561   3.026   4.449   6.820
 2001TIP3    H127562   2.997   4.534   6.786
 2001TIP3    H227563   3.087   4.417   6.754
 2002TIP3   OH227564   2.930   4.503   7.986
 2002TIP3    H127565   2.861   4.436   7.992
 2002TIP3    H227566   3.009   4.454   7.965
 2003TIP3   OH227567   3.090   4.387   7.076
 2003TIP3    H127568   3.053   4.438   7.004
 2003TIP3    H227569   3.126   4.309   7.034
 2004TIP3   OH227570   2.228   4.429   7.611
 2004TIP3    H127571   2.221   4.478   7.693
 2004TIP3    H227572   2.181   4.347   7.627
 2005TIP3   OH227573   1.907   4.188   7.021
 2005TIP3    H127574   1.966   4.142   7.081
 2005TIP3    H227575   1.929   4.155   6.935
 2006TIP3   OH227576   2.069   4.257   6.582
 2006TIP3    H127577   2.151   4.277   6.537
 2006TIP3    H227578   2.002   4.307   6.536
 2007TIP3   OH227579   3.034   4.532   7.515
 2007TIP3    H127580   3.074   4.468   7.455
 2007TIP3    H227581   2.970   4.481   7.564
 2008TIP3   OH227582   2.723   4.169   7.021
 2008TIP3    H127583   2.628   4.172   7.037
 2008TIP3    H227584   2.756   4.250   7.060
 2009TIP3   OH227585   2.210   4.313   6.813
 2009TIP3    H127586   2.159   4.294   6.734
 2009TIP3    H227587   2.243   4.228   6.841
 2010TIP3   OH227588   3.135   4.014   7.338
 2010TIP3    H127589   3.083   4.058   7.405
 2010TIP3    H227590   3.173   4.085   7.286
 2011TIP3   OH227591   3.482   5.660   7.985
 2011TIP3    H127592   3.513   5.682   7.897
 2011TIP3    H227593   3.557   5.679   8.043
 2012TIP3   OH227594   2.248   4.924   7.922
 2012TIP3    H127595   2.314   4.921   7.991
 2012TIP3    H227596   2.165   4.939   7.968
 2013TIP3   OH227597   2.800   4.399   7.175
 2013TIP3    H127598   2.895   4.389   7.165
 2013TIP3    H227599   2.783   4.365   7.263
 2014TIP3   OH227600   2.310   4.060   6.865
 2014TIP3    H127601   2.246   3.993   6.892
 2014TIP3    H227602   2.354   4.022   6.789
 2015TIP3   OH227603   2.703   4.325   7.430
 2015TIP3    H127604   2.618   4.367   7.434
 2015TIP3    H227605   2.749   4.356   7.509
 2016TIP3   OH227606   2.768   4.895   6.631
 2016TIP3    H127607   2.731   4.806   6.626
 2016TIP3    H227608   2.729   4.932   6.710
 2017TIP3   OH227609   3.468   4.854   7.459
 2017TIP3    H127610   3.531   4.905   7.407
 2017TIP3    H227611   3.395   4.838   7.400
 2018TIP3   OH227612   3.051   4.244   6.455
 2018TIP3    H127613   3.100   4.220   6.377
 2018TIP3    H227614   3.114   4.293   6.509
 2019TIP3   OH227615   2.897   4.943   7.755
 2019TIP3    H127616   2.935   4.922   7.841
 2019TIP3    H227617   2.870   5.034   7.763
 2020TIP3   OH227618   3.215   4.364   6.633
 2020TIP3    H127619   3.301   4.348   6.674
 2020TIP3    H227620   3.224   4.451   6.594
 2021TIP3   OH227621   2.268   4.825   7.163
 2021TIP3    H127622   2.328   4.825   7.088
 2021TIP3    H227623   2.317   4.781   7.232
 2022TIP3   OH227624   2.985   5.062   6.580
 2022TIP3    H127625   2.947   5.150   6.574
 2022TIP3    H227626   2.909   5.004   6.581
 2023TIP3   OH227627   1.976   4.664   7.699
 2023TIP3    H127628   1.938   4.618   7.774
 2023TIP3    H227629   1.915   4.646   7.627
 2024TIP3   OH227630   2.673   4.648   7.952
 2024TIP3    H127631   2.609   4.617   7.889
 2024TIP3    H227632   2.758   4.620   7.916
 2025TIP3   OH227633   3.103   5.208   7.756
 2025TIP3    H127634   3.009   5.219   7.740
 2025TIP3    H227635   3.114   5.230   7.849
 2026TIP3   OH227636   3.699   4.993   7.847
 2026TIP3    H127637   3.615   5.010   7.805
 2026TIP3    H227638   3.760   4.983   7.774
 2027TIP3   OH227639   3.564   5.292   6.618
 2027TIP3    H127640   3.501   5.221   6.604
 2027TIP3    H227641   3.597   5.313   6.531
 2028TIP3   OH227642   3.259   4.790   7.285
 2028TIP3    H127643   3.163   4.786   7.281
 2028TIP3    H227644   3.288   4.716   7.231
 2029TIP3   OH227645   2.539   5.212   6.948
 2029TIP3    H127646   2.571   5.296   6.915
 2029TIP3    H227647   2.451   5.204   6.911
 2030TIP3   OH227648   2.633   4.965   6.864
 2030TIP3    H127649   2.624   5.058   6.881
 2030TIP3    H227650   2.570   4.923   6.923
 2031TIP3   OH227651   2.715   5.366   7.520
 2031TIP3    H127652   2.771   5.439   7.496
 2031TIP3    H227653   2.770   5.311   7.576
 2032TIP3   OH227654   2.525   5.468   6.834
 2032TIP3    H127655   2.433   5.488   6.853
 2032TIP3    H227656   2.573   5.544   6.867
 2033TIP3   OH227657   3.004   4.988   7.504
 2033TIP3    H127658   2.973   4.966   7.592
 2033TIP3    H227659   3.069   4.921   7.483
 2034TIP3   OH227660   3.243   5.106   6.463
 2034TIP3    H127661   3.299   5.065   6.528
 2034TIP3    H227662   3.154   5.089   6.494
 2035TIP3   OH227663   3.310   5.435   7.710
 2035TIP3    H127664   3.229   5.397   7.676
 2035TIP3    H227665   3.325   5.512   7.655
 2036TIP3   OH227666   2.093   4.183   7.648
 2036TIP3    H127667   2.003   4.214   7.639
 2036TIP3    H227668   2.086   4.103   7.699
 2037TIP3   OH227669   3.407   4.992   6.664
 2037TIP3    H127670   3.362   4.912   6.691
 2037TIP3    H227671   3.500   4.969   6.663
 2038TIP3   OH227672   2.114   5.362   7.513
 2038TIP3    H127673   2.146   5.288   7.564
 2038TIP3    H227674   2.128   5.438   7.570
 2039TIP3   OH227675   3.009   4.118   7.570
 2039TIP3    H127676   3.086   4.143   7.620
 2039TIP3    H227677   2.980   4.035   7.609
 2040TIP3   OH227678   3.057   4.089   6.717
 2040TIP3    H127679   3.058   4.140   6.636
 2040TIP3    H227680   3.108   4.141   6.778
 2041TIP3   OH227681   2.866   5.312   6.578
 2041TIP3    H127682   2.773   5.335   6.572
 2041TIP3    H227683   2.911   5.385   6.536
 2042TIP3   OH227684   2.877   4.348   7.651
 2042TIP3    H127685   2.869   4.329   7.745
 2042TIP3    H227686   2.913   4.268   7.613
 2043TIP3   OH227687   2.843   3.980   6.862
 2043TIP3    H127688   2.804   4.060   6.898
 2043TIP3    H227689   2.914   4.012   6.806
 2044TIP3   OH227690   2.607   5.433   6.563
 2044TIP3    H127691   2.555   5.363   6.524
 2044TIP3    H227692   2.576   5.439   6.653
 2045TIP3   OH227693   3.461   4.180   7.781
 2045TIP3    H127694   3.370   4.184   7.752
 2045TIP3    H227695   3.513   4.184   7.701
 2046TIP3   OH227696   3.325   4.545   7.156
 2046TIP3    H127697   3.246   4.497   7.130
 2046TIP3    H227698   3.375   4.481   7.207
 2047TIP3   OH227699   3.451   5.506   7.326
 2047TIP3    H127700   3.434   5.578   7.265
 2047TIP3    H227701   3.546   5.506   7.337
 2048TIP3   OH227702   2.187   3.863   7.200
 2048TIP3    H127703   2.175   3.857   7.106
 2048TIP3    H227704   2.152   3.781   7.234
 2049TIP3   OH227705   2.083   5.304   6.812
 2049TIP3    H127706   2.016   5.323   6.878
 2049TIP3    H227707   2.040   5.325   6.729
 2050TIP3   OH227708   2.043   5.572   8.000
 2050TIP3    H127709   2.103   5.550   8.071
 2050TIP3    H227710   2.008   5.488   7.972
 2051TIP3   OH227711   2.461   5.384   8.117
 2051TIP3    H127712   2.539   5.333   8.140
 2051TIP3    H227713   2.437   5.354   8.029
 2052TIP3   OH227714   3.119   5.244   8.033
 2052TIP3    H127715   3.104   5.158   8.071
 2052TIP3    H227716   3.198   5.275   8.076
 2053TIP3   OH227717   3.328   5.331   6.320
 2053TIP3    H127718   3.300   5.249   6.362
 2053TIP3    H227719   3.265   5.344   6.249
 2054TIP3   OH227720   2.000   4.933   8.056
 2054TIP3    H127721   2.003   4.839   8.042
 2054TIP3    H227722   1.932   4.964   7.995
 2055TIP3   OH227723   2.654   4.929   8.009
 2055TIP3    H127724   2.639   4.977   7.927
 2055TIP3    H227725   2.674   4.840   7.981
 2056TIP3   OH227726   3.226   4.959   7.762
 2056TIP3    H127727   3.316   4.981   7.736
 2056TIP3    H227728   3.177   5.041   7.751
 2057TIP3   OH227729   2.080   4.669   8.019
 2057TIP3    H127730   2.152   4.645   7.961
 2057TIP3    H227731   2.112   4.649   8.107
 2058TIP3   OH227732   2.449   4.786   6.533
 2058TIP3    H127733   2.526   4.738   6.563
 2058TIP3    H227734   2.484   4.860   6.483
 2059TIP3   OH227735   2.499   4.553   7.754
 2059TIP3    H127736   2.417   4.602   7.751
 2059TIP3    H227737   2.555   4.594   7.689
 2060TIP3   OH227738   2.696   4.571   6.315
 2060TIP3    H127739   2.641   4.612   6.248
 2060TIP3    H227740   2.662   4.606   6.398
 2061TIP3   OH227741   3.015   4.773   8.010
 2061TIP3    H127742   3.104   4.763   7.975
 2061TIP3    H227743   2.975   4.687   7.997
 2062TIP3   OH227744   3.614   4.775   6.240
 2062TIP3    H127745   3.690   4.797   6.186
 2062TIP3    H227746   3.605   4.849   6.300
 2063TIP3   OH227747   2.551   4.290   7.820
 2063TIP3    H127748   2.552   4.231   7.745
 2063TIP3    H227749   2.531   4.376   7.782
 2064TIP3   OH227750   2.571   4.124   7.591
 2064TIP3    H127751   2.623   4.169   7.524
 2064TIP3    H227752   2.482   4.120   7.554
 2065TIP3   OH227753   2.692   4.671   7.601
 2065TIP3    H127754   2.786   4.688   7.603
 2065TIP3    H227755   2.655   4.744   7.552
 2066TIP3   OH227756   3.197   4.405   8.152
 2066TIP3    H127757   3.255   4.350   8.099
 2066TIP3    H227758   3.243   4.488   8.160
 2067TIP3   OH227759   3.279   4.736   7.902
 2067TIP3    H127760   3.254   4.815   7.855
 2067TIP3    H227761   3.374   4.739   7.905
 2068TIP3   OH227762   2.379   4.331   8.043
 2068TIP3    H127763   2.301   4.279   8.024
 2068TIP3    H227764   2.430   4.327   7.961
 2069TIP3   OH227765   2.632   3.860   7.665
 2069TIP3    H127766   2.612   3.950   7.641
 2069TIP3    H227767   2.562   3.808   7.625
 2070TIP3   OH227768   2.759   4.283   7.997
 2070TIP3    H127769   2.716   4.257   8.078
 2070TIP3    H227770   2.690   4.281   7.930
 2071TIP3   OH227771   3.028   4.233   7.924
 2071TIP3    H127772   2.938   4.224   7.956
 2071TIP3    H227773   3.079   4.174   7.979
 2072TIP3   OH227774   3.182   4.072   8.090
 2072TIP3    H127775   3.187   3.977   8.079
 2072TIP3    H227776   3.181   4.084   8.185
 2073TIP3   OH227777   2.181   4.143   7.988
 2073TIP3    H127778   2.177   4.068   7.930
 2073TIP3    H227779   2.184   4.106   8.076
 2074TIP3   OH227780   2.643   3.796   7.934
 2074TIP3    H127781   2.692   3.715   7.926
 2074TIP3    H227782   2.630   3.825   7.844
 2075TIP3   OH227783   2.711   3.963   8.151
 2075TIP3    H127784   2.693   3.908   8.075
 2075TIP3    H227785   2.654   4.039   8.140
 2076TIP3   OH227786   2.667   5.644   6.385
 2076TIP3    H127787   2.647   5.571   6.443
 2076TIP3    H227788   2.636   5.721   6.432
 2077TIP3   OH227789   1.878   5.591   6.861
 2077TIP3    H127790   1.813   5.555   6.801
 2077TIP3    H227791   1.894   5.521   6.925
 2078TIP3   OH227792   1.948   5.396   7.053
 2078TIP3    H127793   1.912   5.324   7.105
 2078TIP3    H227794   2.000   5.447   7.114
 2079TIP3   OH227795   3.717   5.529   7.394
 2079TIP3    H127796   3.732   5.508   7.486
 2079TIP3    H227797   3.804   5.536   7.355
 2080TIP3   OH227798   3.688   5.451   7.670
 2080TIP3    H127799   3.629   5.389   7.628
 2080TIP3    H227800   3.729   5.402   7.741
 2081TIP3   OH227801   3.516   5.037   8.219
 2081TIP3    H127802   3.429   5.056   8.255
 2081TIP3    H227803   3.560   5.121   8.216
 2082TIP3   OH227804   3.666   4.896   6.680
 2082TIP3    H127805   3.749   4.945   6.674
 2082TIP3    H227806   3.691   4.813   6.721
 2083TIP3   OH227807   3.714   4.654   6.825
 2083TIP3    H127808   3.627   4.635   6.859
 2083TIP3    H227809   3.768   4.665   6.903
 2084TIP3   OH227810   3.712   4.967   7.376
 2084TIP3    H127811   3.754   4.900   7.323
 2084TIP3    H227812   3.744   5.050   7.340
 2085TIP3   OH227813   3.500   5.266   7.581
 2085TIP3    H127814   3.426   5.314   7.618
 2085TIP3    H227815   3.475   5.250   7.490
 2086TIP3   OH227816   3.458   4.573   6.913
 2086TIP3    H127817   3.431   4.486   6.886
 2086TIP3    H227818   3.420   4.584   7.001
 2087TIP3   OH227819   1.970   4.759   7.306
 2087TIP3    H127820   2.007   4.783   7.220
 2087TIP3    H227821   2.044   4.723   7.355
 2088TIP3   OH227822   3.554   4.753   7.908
 2088TIP3    H127823   3.610   4.678   7.885
 2088TIP3    H227824   3.602   4.829   7.875
 2089TIP3   OH227825   3.684   4.515   7.872
 2089TIP3    H127826   3.598   4.479   7.894
 2089TIP3    H227827   3.745   4.445   7.895
 2090TIP3   OH227828   3.476   4.063   6.270
 2090TIP3    H127829   3.567   4.092   6.263
 2090TIP3    H227830   3.481   3.967   6.262
 2091TIP3   OH227831   3.447   4.312   6.782
 2091TIP3    H127832   3.475   4.221   6.776
 2091TIP3    H227833   3.523   4.363   6.754
 2092TIP3   OH227834   3.478   4.359   7.309
 2092TIP3    H127835   3.568   4.374   7.279
 2092TIP3    H227836   3.481   4.379   7.402
 2093TIP3   OH227837   3.507   4.440   7.576
 2093TIP3    H127838   3.427   4.476   7.616
 2093TIP3    H227839   3.562   4.517   7.561
 2094TIP3   OH227840   1.957   4.297   7.975
 2094TIP3    H127841   2.042   4.254   7.972
 2094TIP3    H227842   1.894   4.229   7.952
 2095TIP3   OH227843   3.732   3.863   8.088
 2095TIP3    H127844   3.801   3.800   8.065
 2095TIP3    H227845   3.735   3.928   8.019
 2096TIP3   OH227846   3.518   4.048   6.775
 2096TIP3    H127847   3.545   3.996   6.850
 2096TIP3    H227848   3.446   3.999   6.736
 2097TIP3   OH227849   2.071   4.110   7.225
 2097TIP3    H127850   2.105   4.020   7.227
 2097TIP3    H227851   2.145   4.165   7.248
 2098TIP3   OH227852   1.860   4.406   7.312
 2098TIP3    H127853   1.927   4.407   7.244
 2098TIP3    H227854   1.877   4.484   7.364
 2099TIP3   OH227855   3.674   4.040   7.889
 2099TIP3    H127856   3.594   4.093   7.892
 2099TIP3    H227857   3.656   3.974   7.822
 2100TIP3   OH227858   1.931   4.091   6.768
 2100TIP3    H127859   1.846   4.071   6.730
 2100TIP3    H227860   1.979   4.134   6.697
 2101TIP3   OH227861   3.421   5.555   6.961
 2101TIP3    H127862   3.460   5.538   6.876
 2101TIP3    H227863   3.487   5.607   7.008
 2102TIP3   OH227864   1.918   3.890   7.556
 2102TIP3    H127865   1.848   3.878   7.620
 2102TIP3    H227866   1.884   3.954   7.494
 2103TIP3   OH227867   2.132   5.259   7.965
 2103TIP3    H127868   2.043   5.271   7.932
 2103TIP3    H227869   2.120   5.240   8.059
 2104TIP3   OH227870   2.454   5.356   7.605
 2104TIP3    H127871   2.424   5.443   7.579
 2104TIP3    H227872   2.547   5.355   7.581
 2105TIP3   OH227873   2.832   5.476   7.884
 2105TIP3    H127874   2.843   5.445   7.974
 2105TIP3    H227875   2.913   5.523   7.865
 2106TIP3   OH227876   3.068   5.611   7.845
 2106TIP3    H127877   3.137   5.565   7.796
 2106TIP3    H227878   3.111   5.638   7.926
 2107TIP3   OH227879   3.584   3.843   7.718
 2107TIP3    H127880   3.525   3.875   7.648
 2107TIP3    H227881   3.599   3.751   7.695
 2108TIP3   OH227882   2.148   5.631   7.623
 2108TIP3    H127883   2.071   5.672   7.585
 2108TIP3    H227884   2.162   5.678   7.705
 2109TIP3   OH227885   2.408   5.619   7.534
 2109TIP3    H127886   2.316   5.628   7.557
 2109TIP3    H227887   2.417   5.663   7.449
 2110TIP3   OH227888   2.859   5.584   7.436
 2110TIP3    H127889   2.812   5.623   7.362
 2110TIP3    H227890   2.870   5.656   7.498
 2111TIP3   OH227891   3.098   5.473   7.520
 2111TIP3    H127892   3.012   5.507   7.495
 2111TIP3    H227893   3.158   5.508   7.455
 2112TIP3   OH227894   3.377   5.650   7.547
 2112TIP3    H127895   3.371   5.740   7.514
 2112TIP3    H227896   3.401   5.598   7.471
 2113TIP3   OH227897   2.108   5.506   7.274
 2113TIP3    H127898   2.105   5.462   7.359
 2113TIP3    H227899   2.187   5.470   7.232
 2114TIP3   OH227900   2.328   5.380   7.175
 2114TIP3    H127901   2.316   5.288   7.198
 2114TIP3    H227902   2.417   5.401   7.204
 2115TIP3   OH227903   2.593   5.407   7.269
 2115TIP3    H127904   2.603   5.320   7.231
 2115TIP3    H227905   2.624   5.397   7.359
 2116TIP3   OH227906   2.893   3.916   7.129
 2116TIP3    H127907   2.806   3.896   7.162
 2116TIP3    H227908   2.879   3.949   7.041
 2117TIP3   OH227909   3.409   3.848   7.194
 2117TIP3    H127910   3.486   3.867   7.141
 2117TIP3    H227911   3.338   3.841   7.131
 2118TIP3   OH227912   3.597   3.912   7.011
 2118TIP3    H127913   3.662   3.854   6.972
 2118TIP3    H227914   3.644   3.993   7.030
 2119TIP3   OH227915   2.146   3.848   6.929
 2119TIP3    H127916   2.055   3.831   6.904
 2119TIP3    H227917   2.190   3.764   6.917
 2120TIP3   OH227918   2.638   3.806   6.940
 2120TIP3    H127919   2.704   3.867   6.907
 2120TIP3    H227920   2.646   3.809   7.035
 2121TIP3   OH227921   3.197   3.839   7.018
 2121TIP3    H127922   3.190   3.909   6.953
 2121TIP3    H227923   3.230   3.764   6.969
 2122TIP3   OH227924   3.282   3.906   6.729
 2122TIP3    H127925   3.203   3.949   6.697
 2122TIP3    H227926   3.269   3.814   6.707
 2123TIP3   OH227927   1.982   5.401   6.542
 2123TIP3    H127928   2.058   5.427   6.490
 2123TIP3    H227929   1.956   5.481   6.587
 2124TIP3   OH227930   2.963   5.550   6.471
 2124TIP3    H127931   3.057   5.560   6.454
 2124TIP3    H227932   2.921   5.569   6.387
 2125TIP3   OH227933   3.586   5.533   6.744
 2125TIP3    H127934   3.581   5.446   6.705
 2125TIP3    H227935   3.573   5.593   6.670
 2126TIP3   OH227936   2.170   3.890   7.870
 2126TIP3    H127937   2.108   3.825   7.902
 2126TIP3    H227938   2.251   3.872   7.918
 2127TIP3   OH227939   2.381   3.829   8.041
 2127TIP3    H127940   2.470   3.806   8.012
 2127TIP3    H227941   2.346   3.749   8.079
 2128TIP3   OH227942   2.170   5.489   6.365
 2128TIP3    H127943   2.185   5.582   6.347
 2128TIP3    H227944   2.254   5.447   6.346
 2129TIP3   OH227945   3.223   3.796   8.076
 2129TIP3    H127946   3.215   3.748   8.158
 2129TIP3    H227947   3.315   3.785   8.050
 2130TIP3   OH227948   3.479   5.389   7.930
 2130TIP3    H127949   3.421   5.389   7.853
 2130TIP3    H227950   3.483   5.481   7.956
 2131TIP3   OH227951   4.886   4.807   6.913
 2131TIP3    H127952   4.901   4.893   6.875
 2131TIP3    H227953   4.801   4.814   6.956
 2132TIP3   OH227954   4.849   4.712   7.293
 2132TIP3    H127955   4.872   4.670   7.376
 2132TIP3    H227956   4.800   4.645   7.245
 2133TIP3   OH227957   4.064   4.642   7.437
 2133TIP3    H127958   4.073   4.567   7.495
 2133TIP3    H227959   4.153   4.662   7.408
 2134TIP3   OH227960   5.230   5.019   7.126
 2134TIP3    H127961   5.194   4.943   7.171
 2134TIP3    H227962   5.248   5.082   7.197
 2135TIP3   OH227963   4.189   5.124   7.254
 2135TIP3    H127964   4.164   5.036   7.228
 2135TIP3    H227965   4.285   5.122   7.260
 2136TIP3   OH227966   3.894   4.674   7.050
 2136TIP3    H127967   3.930   4.587   7.063
 2136TIP3    H227968   3.970   4.728   7.025
 2137TIP3   OH227969   4.973   5.492   7.154
 2137TIP3    H127970   5.014   5.440   7.085
 2137TIP3    H227971   4.935   5.427   7.214
 2138TIP3   OH227972   4.686   4.957   7.329
 2138TIP3    H127973   4.726   4.887   7.277
 2138TIP3    H227974   4.755   4.987   7.387
 2139TIP3   OH227975   5.585   4.097   7.410
 2139TIP3    H127976   5.592   4.182   7.452
 2139TIP3    H227977   5.639   4.104   7.331
 2140TIP3   OH227978   4.992   4.372   7.322
 2140TIP3    H127979   5.013   4.279   7.331
 2140TIP3    H227980   4.986   4.387   7.228
 2141TIP3   OH227981   4.359   4.196   7.048
 2141TIP3    H127982   4.352   4.281   7.005
 2141TIP3    H227983   4.312   4.135   6.990
 2142TIP3   OH227984   5.102   4.204   6.917
 2142TIP3    H127985   5.147   4.172   6.995
 2142TIP3    H227986   5.169   4.250   6.867
 2143TIP3   OH227987   3.981   4.417   7.112
 2143TIP3    H127988   4.054   4.383   7.163
 2143TIP3    H227989   3.984   4.369   7.030
 2144TIP3   OH227990   4.459   4.575   7.118
 2144TIP3    H127991   4.549   4.547   7.136
 2144TIP3    H227992   4.427   4.513   7.053
 2145TIP3   OH227993   5.612   4.283   7.634
 2145TIP3    H127994   5.543   4.344   7.608
 2145TIP3    H227995   5.627   4.300   7.727
 2146TIP3   OH227996   4.210   4.105   7.475
 2146TIP3    H127997   4.190   4.162   7.401
 2146TIP3    H227998   4.136   4.118   7.535
 2147TIP3   OH227999   4.910   5.059   6.814
 2147TIP3    H128000   5.003   5.081   6.819
 2147TIP3    H228001   4.864   5.142   6.830
 2148TIP3   OH228002   4.471   4.867   7.475
 2148TIP3    H128003   4.421   4.942   7.507
 2148TIP3    H228004   4.542   4.905   7.424
 2149TIP3   OH228005   5.224   4.152   7.158
 2149TIP3    H128006   5.161   4.127   7.226
 2149TIP3    H228007   5.283   4.213   7.201
 2150TIP3   OH228008   4.183   4.269   7.251
 2150TIP3    H128009   4.236   4.329   7.302
 2150TIP3    H228010   4.242   4.236   7.183
 2151TIP3   OH228011   4.323   5.079   7.580
 2151TIP3    H128012   4.333   5.173   7.561
 2151TIP3    H228013   4.231   5.068   7.601
 2152TIP3   OH228014   3.902   5.058   6.650
 2152TIP3    H128015   3.883   5.103   6.568
 2152TIP3    H228016   3.924   5.129   6.712
 2153TIP3   OH228017   5.266   5.213   7.340
 2153TIP3    H128018   5.172   5.216   7.357
 2153TIP3    H228019   5.288   5.303   7.315
 2154TIP3   OH228020   5.333   3.983   7.489
 2154TIP3    H128021   5.262   4.028   7.443
 2154TIP3    H228022   5.413   4.016   7.446
 2155TIP3   OH228023   4.569   3.795   7.231
 2155TIP3    H128024   4.539   3.705   7.220
 2155TIP3    H228025   4.491   3.844   7.258
 2156TIP3   OH228026   5.104   5.364   6.941
 2156TIP3    H128027   5.136   5.277   6.918
 2156TIP3    H228028   5.184   5.416   6.950
 2157TIP3   OH228029   5.184   5.107   6.861
 2157TIP3    H128030   5.211   5.044   6.795
 2157TIP3    H228031   5.207   5.066   6.945
 2158TIP3   OH228032   5.385   4.977   7.697
 2158TIP3    H128033   5.371   4.928   7.617
 2158TIP3    H228034   5.389   5.069   7.669
 2159TIP3   OH228035   5.540   4.668   7.515
 2159TIP3    H128036   5.468   4.730   7.503
 2159TIP3    H228037   5.599   4.685   7.441
 2160TIP3   OH228038   5.070   4.616   6.837
 2160TIP3    H128039   5.016   4.690   6.863
 2160TIP3    H228040   5.146   4.656   6.794
 2161TIP3   OH228041   5.144   4.525   7.674
 2161TIP3    H128042   5.143   4.593   7.742
 2161TIP3    H228043   5.074   4.551   7.613
 2162TIP3   OH228044   4.314   4.772   6.970
 2162TIP3    H128045   4.287   4.741   6.884
 2162TIP3    H228046   4.372   4.704   7.003
 2163TIP3   OH228047   4.471   5.133   7.219
 2163TIP3    H128048   4.465   5.135   7.124
 2163TIP3    H228049   4.545   5.075   7.237
 2164TIP3   OH228050   4.323   4.683   7.334
 2164TIP3    H128051   4.374   4.658   7.257
 2164TIP3    H228052   4.378   4.747   7.379
 2165TIP3   OH228053   5.004   5.231   7.415
 2165TIP3    H128054   4.986   5.301   7.477
 2165TIP3    H228055   4.959   5.155   7.450
 2166TIP3   OH228056   4.481   5.110   7.808
 2166TIP3    H128057   4.417   5.167   7.851
 2166TIP3    H228058   4.437   5.082   7.727
 2167TIP3   OH228059   4.135   4.691   7.788
 2167TIP3    H128060   4.145   4.782   7.815
 2167TIP3    H228061   4.052   4.689   7.741
 2168TIP3   OH228062   4.837   5.321   6.869
 2168TIP3    H128063   4.925   5.339   6.901
 2168TIP3    H228064   4.803   5.406   6.840
 2169TIP3   OH228065   4.267   5.284   7.871
 2169TIP3    H128066   4.273   5.312   7.779
 2169TIP3    H228067   4.173   5.278   7.888
 2170TIP3   OH228068   4.226   4.670   6.728
 2170TIP3    H128069   4.190   4.748   6.686
 2170TIP3    H228070   4.270   4.623   6.658
 2171TIP3   OH228071   3.844   4.944   7.622
 2171TIP3    H128072   3.798   4.951   7.538
 2171TIP3    H228073   3.861   4.850   7.632
 2172TIP3   OH228074   3.866   5.194   7.305
 2172TIP3    H128075   3.953   5.172   7.272
 2172TIP3    H228076   3.883   5.250   7.381
 2173TIP3   OH228077   5.640   5.308   7.896
 2173TIP3    H128078   5.630   5.214   7.880
 2173TIP3    H228079   5.555   5.336   7.930
 2174TIP3   OH228080   4.719   5.238   7.752
 2174TIP3    H128081   4.711   5.322   7.798
 2174TIP3    H228082   4.637   5.192   7.771
 2175TIP3   OH228083   4.809   5.582   6.773
 2175TIP3    H128084   4.790   5.575   6.679
 2175TIP3    H228085   4.776   5.668   6.798
 2176TIP3   OH228086   4.131   5.473   6.923
 2176TIP3    H128087   4.155   5.433   7.007
 2176TIP3    H228088   4.078   5.407   6.879
 2177TIP3   OH228089   5.064   5.488   6.426
 2177TIP3    H128090   5.153   5.482   6.391
 2177TIP3    H228091   5.076   5.495   6.521
 2178TIP3   OH228092   5.076   5.538   6.707
 2178TIP3    H128093   4.983   5.552   6.722
 2178TIP3    H228094   5.101   5.472   6.772
 2179TIP3   OH228095   5.337   4.415   7.923
 2179TIP3    H128096   5.268   4.468   7.884
 2179TIP3    H228097   5.332   4.331   7.876
 2180TIP3   OH228098   4.064   5.098   7.680
 2180TIP3    H128099   4.089   5.059   7.764
 2180TIP3    H228100   3.987   5.049   7.653
 2181TIP3   OH228101   4.316   3.898   7.317
 2181TIP3    H128102   4.244   3.890   7.255
 2181TIP3    H228103   4.293   3.975   7.370
 2182TIP3   OH228104   4.789   3.882   7.655
 2182TIP3    H128105   4.836   3.839   7.727
 2182TIP3    H228106   4.697   3.874   7.678
 2183TIP3   OH228107   5.105   4.255   7.733
 2183TIP3    H128108   5.037   4.247   7.799
 2183TIP3    H228109   5.104   4.348   7.708
 2184TIP3   OH228110   4.333   4.423   7.426
 2184TIP3    H128111   4.268   4.423   7.497
 2184TIP3    H228112   4.336   4.513   7.396
 2185TIP3   OH228113   4.317   4.437   6.922
 2185TIP3    H128114   4.240   4.490   6.904
 2185TIP3    H228115   4.352   4.415   6.835
 2186TIP3   OH228116   4.908   4.422   6.719
 2186TIP3    H128117   4.970   4.489   6.749
 2186TIP3    H228118   4.957   4.373   6.652
 2187TIP3   OH228119   4.803   4.462   7.903
 2187TIP3    H128120   4.760   4.390   7.948
 2187TIP3    H228121   4.885   4.474   7.951
 2188TIP3   OH228122   4.972   4.414   7.049
 2188TIP3    H128123   4.969   4.484   6.984
 2188TIP3    H228124   5.000   4.337   6.999
 2189TIP3   OH228125   4.115   4.417   7.600
 2189TIP3    H128126   4.164   4.445   7.677
 2189TIP3    H228127   4.073   4.336   7.627
 2190TIP3   OH228128   3.746   4.134   7.039
 2190TIP3    H128129   3.818   4.145   7.101
 2190TIP3    H228130   3.786   4.142   6.953
 2191TIP3   OH228131   4.916   4.549   7.511
 2191TIP3    H128132   4.950   4.491   7.443
 2191TIP3    H228133   4.851   4.497   7.557
 2192TIP3   OH228134   4.642   4.150   6.987
 2192TIP3    H128135   4.554   4.163   7.023
 2192TIP3    H228136   4.695   4.123   7.063
 2193TIP3   OH228137   4.005   4.263   6.888
 2193TIP3    H128138   3.941   4.222   6.830
 2193TIP3    H228139   4.084   4.208   6.879
 2194TIP3   OH228140   4.390   4.385   6.668
 2194TIP3    H128141   4.484   4.366   6.667
 2194TIP3    H228142   4.364   4.382   6.576
 2195TIP3   OH228143   5.022   4.096   7.344
 2195TIP3    H128144   4.977   4.107   7.428
 2195TIP3    H228145   4.956   4.060   7.285
 2196TIP3   OH228146   5.370   5.663   7.987
 2196TIP3    H128147   5.389   5.690   7.897
 2196TIP3    H228148   5.447   5.689   8.037
 2197TIP3   OH228149   4.122   4.941   7.912
 2197TIP3    H128150   4.189   4.939   7.980
 2197TIP3    H228151   4.039   4.943   7.961
 2198TIP3   OH228152   4.708   4.470   7.200
 2198TIP3    H128153   4.781   4.433   7.151
 2198TIP3    H228154   4.686   4.403   7.265
 2199TIP3   OH228155   4.198   4.062   6.865
 2199TIP3    H128156   4.143   3.986   6.885
 2199TIP3    H228157   4.230   4.047   6.776
 2200TIP3   OH228158   4.589   4.313   7.424
 2200TIP3    H128159   4.506   4.361   7.425
 2200TIP3    H228160   4.638   4.348   7.498
 2201TIP3   OH228161   5.348   4.854   7.455
 2201TIP3    H128162   5.407   4.910   7.403
 2201TIP3    H228163   5.275   4.836   7.396
 2202TIP3   OH228164   4.794   4.928   7.767
 2202TIP3    H128165   4.819   4.875   7.843
 2202TIP3    H228166   4.767   5.012   7.804
 2203TIP3   OH228167   4.158   4.859   7.178
 2203TIP3    H128168   4.206   4.844   7.097
 2203TIP3    H228169   4.199   4.799   7.241
 2204TIP3   OH228170   3.862   4.679   7.716
 2204TIP3    H128171   3.836   4.633   7.796
 2204TIP3    H228172   3.795   4.655   7.652
 2205TIP3   OH228173   4.595   4.647   7.933
 2205TIP3    H128174   4.563   4.657   7.843
 2205TIP3    H228175   4.681   4.606   7.924
 2206TIP3   OH228176   5.000   5.214   7.749
 2206TIP3    H128177   4.906   5.217   7.730
 2206TIP3    H228178   5.005   5.225   7.844
 2207TIP3   OH228179   5.613   5.036   7.847
 2207TIP3    H128180   5.521   5.022   7.824
 2207TIP3    H228181   5.662   5.009   7.770
 2208TIP3   OH228182   5.459   5.249   6.692
 2208TIP3    H128183   5.385   5.193   6.714
 2208TIP3    H228184   5.471   5.237   6.598
 2209TIP3   OH228185   5.140   4.786   7.274
 2209TIP3    H128186   5.045   4.780   7.269
 2209TIP3    H228187   5.172   4.707   7.231
 2210TIP3   OH228188   4.418   5.187   6.949
 2210TIP3    H128189   4.437   5.280   6.937
 2210TIP3    H228190   4.347   5.169   6.888
 2211TIP3   OH228191   3.988   4.735   6.378
 2211TIP3    H128192   4.070   4.692   6.354
 2211TIP3    H228193   4.007   4.828   6.371
 2212TIP3   OH228194   4.546   4.935   6.971
 2212TIP3    H128195   4.527   5.025   6.945
 2212TIP3    H228196   4.463   4.889   6.963
 2213TIP3   OH228197   4.604   5.376   7.527
 2213TIP3    H128198   4.661   5.449   7.503
 2213TIP3    H228199   4.659   5.319   7.581
 2214TIP3   OH228200   4.411   5.459   6.907
 2214TIP3    H128201   4.320   5.479   6.887
 2214TIP3    H228202   4.455   5.544   6.906
 2215TIP3   OH228203   4.895   4.989   7.515
 2215TIP3    H128204   4.856   4.967   7.599
 2215TIP3    H228205   4.969   4.928   7.506
 2216TIP3   OH228206   5.208   5.405   7.721
 2216TIP3    H128207   5.127   5.354   7.712
 2216TIP3    H228208   5.198   5.476   7.658
 2217TIP3   OH228209   3.996   4.158   7.650
 2217TIP3    H128210   3.905   4.183   7.631
 2217TIP3    H228211   3.989   4.078   7.702
 2218TIP3   OH228212   5.264   4.931   6.657
 2218TIP3    H128213   5.218   4.902   6.578
 2218TIP3    H228214   5.356   4.910   6.641
 2219TIP3   OH228215   3.986   5.345   7.523
 2219TIP3    H128216   4.021   5.268   7.567
 2219TIP3    H228217   4.004   5.417   7.584
 2220TIP3   OH228218   4.130   4.896   6.604
 2220TIP3    H128219   4.051   4.946   6.625
 2220TIP3    H228220   4.152   4.922   6.515
 2221TIP3   OH228221   4.896   4.130   7.588
 2221TIP3    H128222   4.969   4.145   7.648
 2221TIP3    H228223   4.859   4.046   7.616
 2222TIP3   OH228224   4.970   4.067   6.712
 2222TIP3    H128225   4.977   4.131   6.641
 2222TIP3    H228226   5.009   4.112   6.787
 2223TIP3   OH228227   4.770   5.295   6.444
 2223TIP3    H128228   4.721   5.256   6.516
 2223TIP3    H228229   4.792   5.383   6.475
 2224TIP3   OH228230   4.655   4.315   6.746
 2224TIP3    H128231   4.742   4.355   6.740
 2224TIP3    H228232   4.656   4.269   6.831
 2225TIP3   OH228233   4.752   4.370   7.642
 2225TIP3    H128234   4.769   4.396   7.732
 2225TIP3    H228235   4.797   4.286   7.632
 2226TIP3   OH228236   4.735   3.954   6.806
 2226TIP3    H128237   4.704   4.029   6.858
 2226TIP3    H228238   4.818   3.982   6.770
 2227TIP3   OH228239   5.361   4.170   7.760
 2227TIP3    H128240   5.267   4.182   7.747
 2227TIP3    H228241   5.399   4.184   7.673
 2228TIP3   OH228242   5.210   4.537   7.162
 2228TIP3    H128243   5.132   4.493   7.127
 2228TIP3    H228244   5.258   4.469   7.208
 2229TIP3   OH228245   5.342   5.483   7.325
 2229TIP3    H128246   5.322   5.556   7.267
 2229TIP3    H228247   5.437   5.482   7.332
 2230TIP3   OH228248   4.065   3.880   7.190
 2230TIP3    H128249   4.056   3.873   7.095
 2230TIP3    H228250   4.032   3.797   7.223
 2231TIP3   OH228251   3.945   5.303   6.797
 2231TIP3    H128252   3.866   5.322   6.848
 2231TIP3    H228253   3.934   5.354   6.716
 2232TIP3   OH228254   3.938   5.575   7.995
 2232TIP3    H128255   3.999   5.565   8.069
 2232TIP3    H228256   3.927   5.487   7.961
 2233TIP3   OH228257   4.345   5.386   8.115
 2233TIP3    H128258   4.422   5.332   8.135
 2233TIP3    H228259   4.318   5.357   8.028
 2234TIP3   OH228260   5.014   5.244   8.024
 2234TIP3    H128261   5.034   5.152   8.045
 2234TIP3    H228262   5.083   5.293   8.068
 2235TIP3   OH228263   5.343   5.476   6.384
 2235TIP3    H128264   5.332   5.386   6.356
 2235TIP3    H228265   5.426   5.504   6.343
 2236TIP3   OH228266   3.878   4.913   8.044
 2236TIP3    H128267   3.885   4.818   8.035
 2236TIP3    H228268   3.807   4.938   7.984
 2237TIP3   OH228269   4.524   4.916   8.005
 2237TIP3    H128270   4.527   4.975   7.930
 2237TIP3    H228271   4.570   4.837   7.976
 2238TIP3   OH228272   5.116   4.902   7.751
 2238TIP3    H128273   5.205   4.937   7.742
 2238TIP3    H228274   5.060   4.980   7.753
 2239TIP3   OH228275   3.960   4.648   8.011
 2239TIP3    H128276   4.037   4.646   7.953
 2239TIP3    H228277   3.996   4.646   8.099
 2240TIP3   OH228278   4.346   4.522   7.732
 2240TIP3    H128279   4.284   4.590   7.758
 2240TIP3    H228280   4.422   4.570   7.697
 2241TIP3   OH228281   4.868   4.782   8.003
 2241TIP3    H128282   4.944   4.832   8.033
 2241TIP3    H228283   4.839   4.734   8.080
 2242TIP3   OH228284   4.436   4.280   7.825
 2242TIP3    H128285   4.446   4.221   7.750
 2242TIP3    H228286   4.415   4.365   7.786
 2243TIP3   OH228287   4.459   4.123   7.591
 2243TIP3    H128288   4.514   4.169   7.528
 2243TIP3    H228289   4.373   4.120   7.550
 2244TIP3   OH228290   4.563   4.675   7.653
 2244TIP3    H128291   4.657   4.674   7.637
 2244TIP3    H228292   4.529   4.744   7.595
 2245TIP3   OH228293   5.032   4.479   8.065
 2245TIP3    H128294   5.098   4.414   8.089
 2245TIP3    H228295   5.083   4.550   8.025
 2246TIP3   OH228296   5.174   4.669   7.911
 2246TIP3    H128297   5.124   4.747   7.887
 2246TIP3    H228298   5.264   4.700   7.921
 2247TIP3   OH228299   4.271   4.328   8.048
 2247TIP3    H128300   4.188   4.285   8.026
 2247TIP3    H228301   4.321   4.329   7.966
 2248TIP3   OH228302   4.509   3.863   7.672
 2248TIP3    H128303   4.494   3.954   7.644
 2248TIP3    H228304   4.445   3.813   7.622
 2249TIP3   OH228305   4.655   4.246   7.995
 2249TIP3    H128306   4.606   4.225   8.075
 2249TIP3    H228307   4.587   4.258   7.928
 2250TIP3   OH228308   4.914   4.177   7.908
 2250TIP3    H128309   4.827   4.186   7.946
 2250TIP3    H228310   4.967   4.137   7.977
 2251TIP3   OH228311   5.087   4.064   8.098
 2251TIP3    H128312   5.073   3.969   8.101
 2251TIP3    H228313   5.055   4.095   8.183
 2252TIP3   OH228314   4.048   4.162   7.999
 2252TIP3    H128315   4.051   4.090   7.936
 2252TIP3    H228316   4.055   4.120   8.085
 2253TIP3   OH228317   4.500   3.768   7.927
 2253TIP3    H128318   4.564   3.699   7.914
 2253TIP3    H228319   4.492   3.810   7.841
 2254TIP3   OH228320   4.588   3.936   8.138
 2254TIP3    H128321   4.567   3.893   8.055
 2254TIP3    H228322   4.536   4.017   8.137
 2255TIP3   OH228323   3.776   5.636   6.910
 2255TIP3    H128324   3.720   5.601   6.840
 2255TIP3    H228325   3.794   5.560   6.966
 2256TIP3   OH228326   3.823   5.422   7.078
 2256TIP3    H128327   3.784   5.342   7.111
 2256TIP3    H228328   3.881   5.451   7.149
 2257TIP3   OH228329   5.611   5.484   7.388
 2257TIP3    H128330   5.608   5.487   7.484
 2257TIP3    H228331   5.689   5.533   7.364
 2258TIP3   OH228332   5.558   5.447   7.662
 2258TIP3    H128333   5.504   5.375   7.630
 2258TIP3    H228334   5.605   5.411   7.737
 2259TIP3   OH228335   5.418   5.027   8.179
 2259TIP3    H128336   5.328   5.034   8.146
 2259TIP3    H228337   5.446   5.118   8.190
 2260TIP3   OH228338   5.547   4.864   6.651
 2260TIP3    H128339   5.612   4.935   6.655
 2260TIP3    H228340   5.560   4.815   6.731
 2261TIP3   OH228341   5.584   4.705   6.872
 2261TIP3    H128342   5.503   4.656   6.891
 2261TIP3    H228343   5.634   4.700   6.953
 2262TIP3   OH228344   5.595   4.974   7.377
 2262TIP3    H128345   5.640   4.912   7.319
 2262TIP3    H228346   5.616   5.060   7.339
 2263TIP3   OH228347   5.386   5.236   7.593
 2263TIP3    H128348   5.317   5.288   7.633
 2263TIP3    H228349   5.357   5.222   7.503
 2264TIP3   OH228350   5.681   4.748   6.429
 2264TIP3    H128351   5.627   4.795   6.365
 2264TIP3    H228352   5.633   4.756   6.511
 2265TIP3   OH228353   5.376   4.544   6.932
 2265TIP3    H128354   5.350   4.468   6.880
 2265TIP3    H228355   5.310   4.550   7.000
 2266TIP3   OH228356   3.828   4.707   7.316
 2266TIP3    H128357   3.845   4.709   7.221
 2266TIP3    H228358   3.915   4.695   7.355
 2267TIP3   OH228359   5.439   4.753   7.891
 2267TIP3    H128360   5.502   4.688   7.859
 2267TIP3    H228361   5.435   4.818   7.821
 2268TIP3   OH228362   5.586   4.515   7.866
 2268TIP3    H128363   5.497   4.485   7.887
 2268TIP3    H228364   5.643   4.444   7.896
 2269TIP3   OH228365   5.308   4.318   6.778
 2269TIP3    H128366   5.363   4.241   6.762
 2269TIP3    H228367   5.285   4.350   6.691
 2270TIP3   OH228368   5.366   4.343   7.305
 2270TIP3    H128369   5.457   4.357   7.279
 2270TIP3    H228370   5.363   4.369   7.397
 2271TIP3   OH228371   5.392   4.439   7.570
 2271TIP3    H128372   5.306   4.469   7.601
 2271TIP3    H228373   5.440   4.520   7.551
 2272TIP3   OH228374   3.817   4.275   7.898
 2272TIP3    H128375   3.905   4.257   7.931
 2272TIP3    H228376   3.769   4.193   7.911
 2273TIP3   OH228377   5.663   3.869   8.100
 2273TIP3    H128378   5.633   3.784   8.070
 2273TIP3    H228379   5.634   3.930   8.033
 2274TIP3   OH228380   5.416   4.052   6.736
 2274TIP3    H128381   5.423   4.009   6.822
 2274TIP3    H228382   5.343   4.007   6.693
 2275TIP3   OH228383   3.935   4.119   7.247
 2275TIP3    H128384   3.976   4.034   7.231
 2275TIP3    H228385   4.008   4.181   7.249
 2276TIP3   OH228386   3.745   4.429   7.277
 2276TIP3    H128387   3.816   4.405   7.217
 2276TIP3    H228388   3.766   4.519   7.302
 2277TIP3   OH228389   5.538   4.050   7.937
 2277TIP3    H128390   5.477   4.093   7.997
 2277TIP3    H228391   5.497   4.057   7.851
 2278TIP3   OH228392   3.807   4.107   6.765
 2278TIP3    H128393   3.713   4.096   6.746
 2278TIP3    H228394   3.849   4.034   6.720
 2279TIP3   OH228395   5.314   5.542   6.936
 2279TIP3    H128396   5.362   5.535   6.854
 2279TIP3    H228397   5.352   5.619   6.979
 2280TIP3   OH228398   3.813   3.879   7.551
 2280TIP3    H128399   3.740   3.872   7.613
 2280TIP3    H228400   3.783   3.945   7.488
 2281TIP3   OH228401   3.997   5.283   7.966
 2281TIP3    H128402   3.911   5.275   7.926
 2281TIP3    H228403   3.986   5.246   8.054
 2282TIP3   OH228404   4.341   5.359   7.606
 2282TIP3    H128405   4.313   5.447   7.581
 2282TIP3    H228406   4.435   5.357   7.585
 2283TIP3   OH228407   4.716   5.479   7.895
 2283TIP3    H128408   4.737   5.443   7.981
 2283TIP3    H228409   4.794   5.528   7.870
 2284TIP3   OH228410   4.948   5.617   7.842
 2284TIP3    H128411   5.009   5.569   7.787
 2284TIP3    H228412   4.999   5.643   7.918
 2285TIP3   OH228413   5.457   3.845   7.705
 2285TIP3    H128414   5.405   3.888   7.638
 2285TIP3    H228415   5.474   3.757   7.670
 2286TIP3   OH228416   4.034   5.648   7.619
 2286TIP3    H128417   3.956   5.691   7.585
 2286TIP3    H228418   4.050   5.690   7.703
 2287TIP3   OH228419   4.298   5.623   7.538
 2287TIP3    H128420   4.205   5.634   7.557
 2287TIP3    H228421   4.308   5.661   7.450
 2288TIP3   OH228422   4.751   5.596   7.440
 2288TIP3    H128423   4.703   5.629   7.364
 2288TIP3    H228424   4.763   5.673   7.496
 2289TIP3   OH228425   4.980   5.481   7.546
 2289TIP3    H128426   4.902   5.516   7.504
 2289TIP3    H228427   5.051   5.540   7.520
 2290TIP3   OH228428   5.227   5.621   7.533
 2290TIP3    H128429   5.239   5.713   7.507
 2290TIP3    H228430   5.264   5.571   7.461
 2291TIP3   OH228431   3.991   5.502   7.293
 2291TIP3    H128432   3.992   5.454   7.376
 2291TIP3    H228433   4.068   5.471   7.246
 2292TIP3   OH228434   4.209   5.389   7.179
 2292TIP3    H128435   4.200   5.296   7.199
 2292TIP3    H228436   4.300   5.410   7.197
 2293TIP3   OH228437   4.478   5.408   7.277
 2293TIP3    H128438   4.485   5.320   7.241
 2293TIP3    H228439   4.513   5.400   7.366
 2294TIP3   OH228440   4.805   3.996   7.178
 2294TIP3    H128441   4.742   3.926   7.192
 2294TIP3    H228442   4.876   3.954   7.130
 2295TIP3   OH228443   5.286   3.831   7.180
 2295TIP3    H128444   5.348   3.876   7.123
 2295TIP3    H228445   5.200   3.863   7.153
 2296TIP3   OH228446   5.467   3.908   6.979
 2296TIP3    H128447   5.539   3.851   6.951
 2296TIP3    H228448   5.509   3.987   7.011
 2297TIP3   OH228449   4.034   3.846   6.917
 2297TIP3    H128450   3.950   3.841   6.871
 2297TIP3    H228451   4.072   3.759   6.906
 2298TIP3   OH228452   3.876   3.878   6.632
 2298TIP3    H128453   3.906   3.930   6.557
 2298TIP3    H228454   3.817   3.813   6.594
 2299TIP3   OH228455   4.537   3.806   6.940
 2299TIP3    H128456   4.601   3.858   6.891
 2299TIP3    H228457   4.559   3.823   7.032
 2300TIP3   OH228458   5.020   3.861   7.068
 2300TIP3    H128459   5.038   3.849   6.975
 2300TIP3    H228460   5.002   3.772   7.100
 2301TIP3   OH228461   5.200   3.897   6.655
 2301TIP3    H128462   5.133   3.965   6.646
 2301TIP3    H228463   5.156   3.827   6.704
 2302TIP3   OH228464   3.894   5.448   6.571
 2302TIP3    H128465   3.822   5.420   6.514
 2302TIP3    H228466   3.941   5.513   6.519
 2303TIP3   OH228467   4.802   5.565   6.502
 2303TIP3    H128468   4.878   5.571   6.444
 2303TIP3    H228469   4.733   5.612   6.457
 2304TIP3   OH228470   5.474   5.521   6.705
 2304TIP3    H128471   5.476   5.425   6.705
 2304TIP3    H228472   5.441   5.544   6.619
 2305TIP3   OH228473   4.044   3.908   7.864
 2305TIP3    H128474   3.985   3.842   7.902
 2305TIP3    H228475   4.128   3.894   7.909
 2306TIP3   OH228476   4.250   3.835   8.035
 2306TIP3    H128477   4.335   3.806   8.003
 2306TIP3    H228478   4.217   3.760   8.085
 2307TIP3   OH228479   5.101   3.780   8.072
 2307TIP3    H128480   5.103   3.733   8.155
 2307TIP3    H228481   5.192   3.780   8.042
 2308TIP3   OH228482   5.378   5.389   7.943
 2308TIP3    H128483   5.319   5.381   7.868
 2308TIP3    H228484   5.375   5.482   7.967
 2309TIP3   OH228485   6.842   4.803   6.917
 2309TIP3    H128486   6.797   4.887   6.915
 2309TIP3    H228487   6.794   4.748   6.856
 2310TIP3   OH228488   6.699   4.711   7.290
 2310TIP3    H128489   6.723   4.664   7.370
 2310TIP3    H228490   6.659   4.643   7.235
 2311TIP3   OH228491   5.967   4.647   7.419
 2311TIP3    H128492   5.969   4.573   7.480
 2311TIP3    H228493   6.059   4.662   7.397
 2312TIP3   OH228494   7.101   5.012   7.153
 2312TIP3    H128495   7.060   4.937   7.195
 2312TIP3    H228496   7.123   5.071   7.225
 2313TIP3   OH228497   6.100   5.141   7.266
 2313TIP3    H128498   6.069   5.053   7.245
 2313TIP3    H228499   6.195   5.133   7.268
 2314TIP3   OH228500   5.690   4.471   6.739
 2314TIP3    H128501   5.770   4.520   6.721
 2314TIP3    H228502   5.631   4.535   6.779
 2315TIP3   OH228503   5.797   4.669   7.055
 2315TIP3    H128504   5.817   4.577   7.075
 2315TIP3    H228505   5.834   4.684   6.968
 2316TIP3   OH228506   6.821   5.490   7.196
 2316TIP3    H128507   6.842   5.431   7.124
 2316TIP3    H228508   6.797   5.432   7.268
 2317TIP3   OH228509   6.573   4.963   7.311
 2317TIP3    H128510   6.605   4.879   7.277
 2317TIP3    H228511   6.646   4.996   7.363
 2318TIP3   OH228512   6.882   4.371   7.335
 2318TIP3    H128513   6.892   4.277   7.346
 2318TIP3    H228514   6.874   4.384   7.240
 2319TIP3   OH228515   6.238   4.195   7.044
 2319TIP3    H128516   6.243   4.279   6.998
 2319TIP3    H228517   6.190   4.138   6.985
 2320TIP3   OH228518   6.984   4.209   6.906
 2320TIP3    H128519   7.026   4.158   6.976
 2320TIP3    H228520   7.057   4.237   6.850
 2321TIP3   OH228521   5.862   4.411   7.129
 2321TIP3    H128522   5.937   4.378   7.179
 2321TIP3    H228523   5.878   4.380   7.039
 2322TIP3   OH228524   6.347   4.573   7.112
 2322TIP3    H128525   6.435   4.537   7.130
 2322TIP3    H228526   6.312   4.516   7.044
 2323TIP3   OH228527   6.093   4.107   7.476
 2323TIP3    H128528   6.077   4.162   7.400
 2323TIP3    H228529   6.018   4.123   7.534
 2324TIP3   OH228530   6.726   5.037   6.836
 2324TIP3    H128531   6.656   5.001   6.782
 2324TIP3    H228532   6.698   5.126   6.856
 2325TIP3   OH228533   6.361   4.877   7.465
 2325TIP3    H128534   6.305   4.948   7.496
 2325TIP3    H228535   6.426   4.920   7.410
 2326TIP3   OH228536   7.072   4.130   7.152
 2326TIP3    H128537   7.006   4.099   7.213
 2326TIP3    H228538   7.140   4.168   7.208
 2327TIP3   OH228539   6.074   4.269   7.254
 2327TIP3    H128540   6.131   4.326   7.305
 2327TIP3    H228541   6.129   4.239   7.181
 2328TIP3   OH228542   6.208   5.081   7.574
 2328TIP3    H128543   6.213   5.175   7.555
 2328TIP3    H228544   6.116   5.066   7.595
 2329TIP3   OH228545   5.726   5.139   6.593
 2329TIP3    H128546   5.721   5.143   6.498
 2329TIP3    H228547   5.638   5.160   6.623
 2330TIP3   OH228548   7.142   5.212   7.351
 2330TIP3    H128549   7.047   5.217   7.364
 2330TIP3    H228550   7.168   5.302   7.330
 2331TIP3   OH228551   7.122   4.028   7.464
 2331TIP3    H128552   7.035   4.038   7.427
 2331TIP3    H228553   7.176   4.091   7.417
 2332TIP3   OH228554   6.454   3.791   7.232
 2332TIP3    H128555   6.426   3.700   7.229
 2332TIP3    H228556   6.376   3.839   7.261
 2333TIP3   OH228557   6.913   5.343   6.981
 2333TIP3    H128558   6.946   5.255   6.961
 2333TIP3    H228559   6.992   5.397   6.986
 2334TIP3   OH228560   7.019   5.103   6.906
 2334TIP3    H128561   6.949   5.042   6.885
 2334TIP3    H228562   7.061   5.066   6.983
 2335TIP3   OH228563   7.233   5.000   7.756
 2335TIP3    H128564   7.264   4.936   7.693
 2335TIP3    H228565   7.251   5.085   7.715
 2336TIP3   OH228566   6.715   4.696   6.695
 2336TIP3    H128567   6.652   4.762   6.666
 2336TIP3    H228568   6.772   4.683   6.619
 2337TIP3   OH228569   7.068   4.775   6.759
 2337TIP3    H128570   6.997   4.791   6.821
 2337TIP3    H228571   7.127   4.716   6.806
 2338TIP3   OH228572   6.996   4.565   7.666
 2338TIP3    H128573   7.007   4.655   7.696
 2338TIP3    H228574   6.921   4.568   7.606
 2339TIP3   OH228575   6.203   4.770   6.982
 2339TIP3    H128576   6.169   4.723   6.906
 2339TIP3    H228577   6.261   4.708   7.025
 2340TIP3   OH228578   6.376   5.145   7.221
 2340TIP3    H128579   6.366   5.148   7.126
 2340TIP3    H228580   6.448   5.084   7.236
 2341TIP3   OH228581   6.233   4.662   7.348
 2341TIP3    H128582   6.274   4.645   7.263
 2341TIP3    H228583   6.275   4.741   7.380
 2342TIP3   OH228584   6.876   5.250   7.408
 2342TIP3    H128585   6.864   5.306   7.485
 2342TIP3    H228586   6.842   5.165   7.434
 2343TIP3   OH228587   6.359   5.098   7.803
 2343TIP3    H128588   6.299   5.160   7.845
 2343TIP3    H228589   6.316   5.074   7.721
 2344TIP3   OH228590   6.949   4.655   6.545
 2344TIP3    H128591   7.004   4.699   6.610
 2344TIP3    H228592   6.990   4.676   6.461
 2345TIP3   OH228593   6.015   4.678   7.782
 2345TIP3    H128594   6.030   4.768   7.811
 2345TIP3    H228595   5.929   4.681   7.738
 2346TIP3   OH228596   6.662   5.300   6.881
 2346TIP3    H128597   6.744   5.324   6.923
 2346TIP3    H228598   6.638   5.377   6.829
 2347TIP3   OH228599   6.163   5.282   7.871
 2347TIP3    H128600   6.166   5.313   7.780
 2347TIP3    H228601   6.070   5.273   7.890
 2348TIP3   OH228602   5.729   4.938   7.620
 2348TIP3    H128603   5.680   4.950   7.539
 2348TIP3    H228604   5.741   4.843   7.627
 2349TIP3   OH228605   5.693   5.229   7.302
 2349TIP3    H128606   5.780   5.235   7.343
 2349TIP3    H228607   5.647   5.308   7.332
 2350TIP3   OH228608   6.601   5.221   7.752
 2350TIP3    H128609   6.591   5.306   7.793
 2350TIP3    H228610   6.517   5.177   7.767
 2351TIP3   OH228611   6.661   5.537   6.718
 2351TIP3    H128612   6.639   5.478   6.646
 2351TIP3    H228613   6.605   5.613   6.706
 2352TIP3   OH228614   6.025   5.477   6.909
 2352TIP3    H128615   6.037   5.439   6.996
 2352TIP3    H228616   5.965   5.417   6.864
 2353TIP3   OH228617   7.002   5.587   6.458
 2353TIP3    H128618   7.024   5.515   6.399
 2353TIP3    H228619   6.968   5.543   6.536
 2354TIP3   OH228620   6.931   5.510   6.724
 2354TIP3    H128621   6.836   5.518   6.718
 2354TIP3    H228622   6.946   5.450   6.798
 2355TIP3   OH228623   7.163   4.476   7.925
 2355TIP3    H128624   7.168   4.471   7.830
 2355TIP3    H228625   7.240   4.428   7.956
 2356TIP3   OH228626   5.951   5.089   7.678
 2356TIP3    H128627   5.974   5.051   7.763
 2356TIP3    H228628   5.873   5.041   7.650
 2357TIP3   OH228629   6.206   3.902   7.319
 2357TIP3    H128630   6.135   3.892   7.256
 2357TIP3    H228631   6.182   3.979   7.371
 2358TIP3   OH228632   6.684   3.887   7.661
 2358TIP3    H128633   6.728   3.832   7.726
 2358TIP3    H228634   6.591   3.872   7.675
 2359TIP3   OH228635   7.008   4.280   7.736
 2359TIP3    H128636   6.942   4.265   7.804
 2359TIP3    H228637   6.998   4.372   7.713
 2360TIP3   OH228638   7.086   4.711   6.314
 2360TIP3    H128639   7.045   4.652   6.251
 2360TIP3    H228640   7.178   4.715   6.288
 2361TIP3   OH228641   6.590   4.069   6.330
 2361TIP3    H128642   6.576   4.084   6.424
 2361TIP3    H228643   6.644   4.143   6.302
 2362TIP3   OH228644   6.224   4.409   7.445
 2362TIP3    H128645   6.153   4.413   7.509
 2362TIP3    H228646   6.233   4.499   7.414
 2363TIP3   OH228647   6.213   4.438   6.910
 2363TIP3    H128648   6.118   4.423   6.901
 2363TIP3    H228649   6.247   4.427   6.821
 2364TIP3   OH228650   6.764   4.459   6.817
 2364TIP3    H128651   6.738   4.542   6.777
 2364TIP3    H228652   6.831   4.424   6.758
 2365TIP3   OH228653   6.678   4.469   7.921
 2365TIP3    H128654   6.636   4.392   7.957
 2365TIP3    H228655   6.768   4.466   7.954
 2366TIP3   OH228656   6.864   4.400   7.065
 2366TIP3    H128657   6.822   4.446   6.992
 2366TIP3    H228658   6.904   4.323   7.025
 2367TIP3   OH228659   6.002   4.431   7.606
 2367TIP3    H128660   5.990   4.483   7.685
 2367TIP3    H228661   5.954   4.350   7.623
 2368TIP3   OH228662   6.250   4.157   6.213
 2368TIP3    H128663   6.276   4.171   6.304
 2368TIP3    H228664   6.262   4.242   6.171
 2369TIP3   OH228665   5.637   4.110   7.038
 2369TIP3    H128666   5.709   4.132   7.097
 2369TIP3    H228667   5.674   4.117   6.950
 2370TIP3   OH228668   5.792   4.270   6.586
 2370TIP3    H128669   5.882   4.304   6.588
 2370TIP3    H228670   5.741   4.334   6.636
 2371TIP3   OH228671   6.767   4.549   7.504
 2371TIP3    H128672   6.812   4.491   7.443
 2371TIP3    H228673   6.714   4.490   7.558
 2372TIP3   OH228674   6.521   4.138   7.021
 2372TIP3    H128675   6.430   4.149   7.049
 2372TIP3    H228676   6.566   4.103   7.097
 2373TIP3   OH228677   5.958   4.327   6.890
 2373TIP3    H128678   5.953   4.371   6.805
 2373TIP3    H228679   5.983   4.237   6.869
 2374TIP3   OH228680   6.330   4.382   6.666
 2374TIP3    H128681   6.410   4.350   6.706
 2374TIP3    H228682   6.359   4.439   6.595
 2375TIP3   OH228683   6.874   4.091   7.351
 2375TIP3    H128684   6.830   4.107   7.435
 2375TIP3    H228685   6.807   4.052   7.295
 2376TIP3   OH228686   7.254   5.664   7.987
 2376TIP3    H128687   7.224   5.577   7.960
 2376TIP3    H228688   0.032   5.647   8.034
 2377TIP3   OH228689   6.010   4.928   7.913
 2377TIP3    H128690   6.077   4.929   7.981
 2377TIP3    H228691   5.928   4.939   7.961
 2378TIP3   OH228692   6.590   4.461   7.199
 2378TIP3    H128693   6.662   4.418   7.152
 2378TIP3    H228694   6.565   4.399   7.267
 2379TIP3   OH228695   6.075   4.073   6.853
 2379TIP3    H128696   6.019   3.998   6.875
 2379TIP3    H228697   6.108   4.054   6.765
 2380TIP3   OH228698   6.484   4.316   7.426
 2380TIP3    H128699   6.397   4.357   7.432
 2380TIP3    H228700   6.529   4.344   7.505
 2381TIP3   OH228701   6.538   4.911   6.657
 2381TIP3    H128702   6.488   4.864   6.590
 2381TIP3    H228703   6.477   4.921   6.730
 2382TIP3   OH228704   7.180   4.851   7.474
 2382TIP3    H128705   7.255   4.829   7.419
 2382TIP3    H228706   7.104   4.834   7.419
 2383TIP3   OH228707   6.862   4.186   6.488
 2383TIP3    H128708   6.823   4.217   6.405
 2383TIP3    H228709   6.902   4.264   6.526
 2384TIP3   OH228710   6.742   4.962   7.753
 2384TIP3    H128711   6.711   4.913   7.829
 2384TIP3    H228712   6.693   5.044   7.755
 2385TIP3   OH228713   6.964   4.397   6.636
 2385TIP3    H128714   7.054   4.390   6.668
 2385TIP3    H228715   6.961   4.480   6.590
 2386TIP3   OH228716   6.057   4.881   7.191
 2386TIP3    H128717   6.104   4.852   7.113
 2386TIP3    H228718   6.014   4.802   7.223
 2387TIP3   OH228719   5.749   4.663   7.698
 2387TIP3    H128720   5.712   4.620   7.775
 2387TIP3    H228721   5.685   4.649   7.629
 2388TIP3   OH228722   6.464   4.649   7.957
 2388TIP3    H128723   6.399   4.617   7.894
 2388TIP3    H228724   6.545   4.606   7.931
 2389TIP3   OH228725   6.877   5.264   7.747
 2389TIP3    H128726   6.784   5.244   7.732
 2389TIP3    H228727   6.889   5.254   7.842
 2390TIP3   OH228728   6.974   4.794   7.290
 2390TIP3    H128729   6.881   4.782   7.270
 2390TIP3    H228730   7.018   4.722   7.245
 2391TIP3   OH228731   6.295   5.201   6.960
 2391TIP3    H128732   6.326   5.285   6.925
 2391TIP3    H228733   6.202   5.200   6.941
 2392TIP3   OH228734   6.389   4.954   6.880
 2392TIP3    H128735   6.366   5.044   6.905
 2392TIP3    H228736   6.323   4.900   6.922
 2393TIP3   OH228737   6.486   5.377   7.528
 2393TIP3    H128738   6.542   5.451   7.503
 2393TIP3    H228739   6.544   5.317   7.575
 2394TIP3   OH228740   6.299   5.465   6.871
 2394TIP3    H128741   6.206   5.487   6.876
 2394TIP3    H228742   6.344   5.550   6.874
 2395TIP3   OH228743   6.798   4.992   7.478
 2395TIP3    H128744   6.782   4.969   7.570
 2395TIP3    H228745   6.860   4.927   7.448
 2396TIP3   OH228746   7.096   5.412   7.685
 2396TIP3    H128747   7.014   5.364   7.690
 2396TIP3    H228748   7.080   5.482   7.622
 2397TIP3   OH228749   5.863   4.168   7.625
 2397TIP3    H128750   5.783   4.219   7.616
 2397TIP3    H228751   5.834   4.077   7.629
 2398TIP3   OH228752   5.888   5.347   7.515
 2398TIP3    H128753   5.918   5.265   7.555
 2398TIP3    H228754   5.900   5.413   7.583
 2399TIP3   OH228755   6.411   5.163   6.516
 2399TIP3    H128756   6.466   5.095   6.557
 2399TIP3    H228757   6.409   5.140   6.424
 2400TIP3   OH228758   6.782   4.138   7.605
 2400TIP3    H128759   6.859   4.151   7.660
 2400TIP3    H228760   6.749   4.052   7.631
 2401TIP3   OH228761   6.810   4.079   6.732
 2401TIP3    H128762   6.831   4.104   6.642
 2401TIP3    H228763   6.874   4.127   6.785
 2402TIP3   OH228764   6.599   5.367   6.521
 2402TIP3    H128765   6.529   5.302   6.524
 2402TIP3    H228766   6.603   5.393   6.428
 2403TIP3   OH228767   6.552   4.288   6.789
 2403TIP3    H128768   6.630   4.343   6.798
 2403TIP3    H228769   6.548   4.240   6.872
 2404TIP3   OH228770   6.632   4.367   7.657
 2404TIP3    H128771   6.649   4.397   7.746
 2404TIP3    H228772   6.681   4.285   7.649
 2405TIP3   OH228773   6.615   3.941   6.845
 2405TIP3    H128774   6.584   4.010   6.903
 2405TIP3    H228775   6.694   3.977   6.805
 2406TIP3   OH228776   6.267   4.157   6.508
 2406TIP3    H128777   6.255   4.235   6.562
 2406TIP3    H228778   6.351   4.121   6.536
 2407TIP3   OH228779   7.240   4.114   7.697
 2407TIP3    H128780   7.186   4.180   7.740
 2407TIP3    H228781   7.190   4.088   7.620
 2408TIP3   OH228782   7.078   4.562   7.169
 2408TIP3    H128783   7.005   4.510   7.137
 2408TIP3    H228784   7.124   4.504   7.230
 2409TIP3   OH228785   7.240   5.471   7.321
 2409TIP3    H128786   7.235   5.541   7.256
 2409TIP3    H228787   0.016   5.422   7.297
 2410TIP3   OH228788   5.959   3.876   7.193
 2410TIP3    H128789   5.951   3.874   7.097
 2410TIP3    H228790   5.921   3.794   7.223
 2411TIP3   OH228791   5.847   5.313   6.773
 2411TIP3    H128792   5.769   5.323   6.828
 2411TIP3    H228793   5.823   5.246   6.709
 2412TIP3   OH228794   5.812   5.571   8.003
 2412TIP3    H128795   5.874   5.547   8.072
 2412TIP3    H228796   5.779   5.487   7.970
 2413TIP3   OH228797   6.233   5.383   8.117
 2413TIP3    H128798   6.311   5.331   8.137
 2413TIP3    H228799   6.207   5.355   8.029
 2414TIP3   OH228800   6.898   5.249   8.024
 2414TIP3    H128801   6.862   5.164   8.051
 2414TIP3    H228802   6.974   5.262   8.080
 2415TIP3   OH228803   7.114   5.339   6.365
 2415TIP3    H128804   7.200   5.324   6.405
 2415TIP3    H228805   7.134   5.383   6.283
 2416TIP3   OH228806   5.767   4.931   8.054
 2416TIP3    H128807   5.765   4.835   8.044
 2416TIP3    H228808   5.703   4.963   7.991
 2417TIP3   OH228809   6.429   4.928   8.009
 2417TIP3    H128810   6.414   4.972   7.926
 2417TIP3    H228811   6.454   4.839   7.986
 2418TIP3   OH228812   6.997   4.836   7.761
 2418TIP3    H128813   7.069   4.897   7.743
 2418TIP3    H228814   6.918   4.890   7.752
 2419TIP3   OH228815   5.848   4.660   8.019
 2419TIP3    H128816   5.920   4.652   7.957
 2419TIP3    H228817   5.889   4.652   8.105
 2420TIP3   OH228818   6.417   4.742   6.464
 2420TIP3    H128819   6.371   4.674   6.415
 2420TIP3    H228820   6.475   4.783   6.400
 2421TIP3   OH228821   6.274   4.550   7.771
 2421TIP3    H128822   6.191   4.597   7.763
 2421TIP3    H228823   6.331   4.588   7.704
 2422TIP3   OH228824   6.785   4.772   8.056
 2422TIP3    H128825   6.875   4.747   8.035
 2422TIP3    H228826   6.751   4.698   8.107
 2423TIP3   OH228827   6.326   4.285   7.824
 2423TIP3    H128828   6.331   4.229   7.746
 2423TIP3    H228829   6.315   4.373   7.790
 2424TIP3   OH228830   6.343   4.127   7.590
 2424TIP3    H128831   6.398   4.171   7.525
 2424TIP3    H228832   6.256   4.124   7.551
 2425TIP3   OH228833   6.460   4.664   7.608
 2425TIP3    H128834   6.550   4.653   7.577
 2425TIP3    H228835   6.427   4.740   7.559
 2426TIP3   OH228836   6.922   4.426   8.070
 2426TIP3    H128837   6.936   4.334   8.092
 2426TIP3    H228838   7.001   4.452   8.023
 2427TIP3   OH228839   7.056   4.719   8.001
 2427TIP3    H128840   7.043   4.765   7.918
 2427TIP3    H228841   7.100   4.638   7.977
 2428TIP3   OH228842   6.160   4.335   8.046
 2428TIP3    H128843   6.075   4.297   8.022
 2428TIP3    H228844   6.209   4.338   7.963
 2429TIP3   OH228845   6.403   3.866   7.660
 2429TIP3    H128846   6.386   3.956   7.635
 2429TIP3    H228847   6.336   3.815   7.615
 2430TIP3   OH228848   6.542   4.240   7.992
 2430TIP3    H128849   6.491   4.217   8.069
 2430TIP3    H228850   6.477   4.251   7.923
 2431TIP3   OH228851   6.810   4.192   7.907
 2431TIP3    H128852   6.721   4.189   7.941
 2431TIP3    H228853   6.861   4.138   7.967
 2432TIP3   OH228854   6.973   4.061   8.091
 2432TIP3    H128855   6.963   3.966   8.091
 2432TIP3    H228856   6.939   4.089   8.176
 2433TIP3   OH228857   5.942   4.159   8.000
 2433TIP3    H128858   5.938   4.079   7.948
 2433TIP3    H228859   5.969   4.130   8.087
 2434TIP3   OH228860   6.425   3.794   7.920
 2434TIP3    H128861   6.479   3.715   7.910
 2434TIP3    H228862   6.413   3.827   7.831
 2435TIP3   OH228863   6.468   3.929   8.161
 2435TIP3    H128864   6.467   3.886   8.075
 2435TIP3    H228865   6.419   4.010   8.148
 2436TIP3   OH228866   5.657   5.632   6.888
 2436TIP3    H128867   5.602   5.597   6.818
 2436TIP3    H228868   5.675   5.556   6.944
 2437TIP3   OH228869   5.722   5.426   7.064
 2437TIP3    H128870   5.683   5.345   7.097
 2437TIP3    H228871   5.771   5.461   7.138
 2438TIP3   OH228872   7.283   5.232   7.596
 2438TIP3    H128873   7.222   5.298   7.630
 2438TIP3    H228874   7.243   5.204   7.513
 2439TIP3   OH228875   7.191   4.580   6.907
 2439TIP3    H128876   7.174   4.488   6.884
 2439TIP3    H228877   7.167   4.586   7.000
 2440TIP3   OH228878   5.723   4.714   7.317
 2440TIP3    H128879   5.738   4.711   7.222
 2440TIP3    H228880   5.809   4.699   7.355
 2441TIP3   OH228881   7.216   4.251   6.259
 2441TIP3    H128882   7.177   4.170   6.227
 2441TIP3    H228883   7.145   4.316   6.252
 2442TIP3   OH228884   7.208   4.326   6.778
 2442TIP3    H128885   7.250   4.295   6.858
 2442TIP3    H228886   7.246   4.272   6.709
 2443TIP3   OH228887   7.262   4.224   7.331
 2443TIP3    H128888   0.039   4.190   7.292
 2443TIP3    H228889   7.278   4.317   7.345
 2444TIP3   OH228890   7.260   4.484   7.625
 2444TIP3    H128891   7.167   4.507   7.615
 2444TIP3    H228892   7.292   4.474   7.536
 2445TIP3   OH228893   5.706   4.272   7.910
 2445TIP3    H128894   5.794   4.244   7.932
 2445TIP3    H228895   5.651   4.195   7.924
 2446TIP3   OH228896   7.191   3.958   6.864
 2446TIP3    H128897   7.248   3.882   6.869
 2446TIP3    H228898   7.125   3.935   6.799
 2447TIP3   OH228899   5.828   4.115   7.248
 2447TIP3    H128900   5.871   4.031   7.231
 2447TIP3    H228901   5.899   4.179   7.247
 2448TIP3   OH228902   5.637   4.414   7.299
 2448TIP3    H128903   5.704   4.392   7.234
 2448TIP3    H228904   5.651   4.507   7.318
 2449TIP3   OH228905   5.697   4.082   6.768
 2449TIP3    H128906   5.605   4.078   6.741
 2449TIP3    H228907   5.738   4.140   6.703
 2450TIP3   OH228908   7.119   5.511   6.966
 2450TIP3    H128909   7.177   5.522   6.891
 2450TIP3    H228910   7.168   5.548   7.040
 2451TIP3   OH228911   5.708   3.928   7.591
 2451TIP3    H128912   5.631   3.908   7.644
 2451TIP3    H228913   5.673   3.979   7.518
 2452TIP3   OH228914   5.905   5.264   7.968
 2452TIP3    H128915   5.816   5.273   7.933
 2452TIP3    H228916   5.892   5.234   8.058
 2453TIP3   OH228917   6.224   5.361   7.608
 2453TIP3    H128918   6.194   5.447   7.580
 2453TIP3    H228919   6.318   5.360   7.587
 2454TIP3   OH228920   6.595   5.467   7.882
 2454TIP3    H128921   6.612   5.439   7.972
 2454TIP3    H228922   6.673   5.519   7.859
 2455TIP3   OH228923   6.824   5.613   7.836
 2455TIP3    H128924   6.879   5.560   7.778
 2455TIP3    H228925   6.879   5.632   7.912
 2456TIP3   OH228926   5.924   5.652   7.621
 2456TIP3    H128927   5.841   5.688   7.588
 2456TIP3    H228928   5.936   5.695   7.706
 2457TIP3   OH228929   6.182   5.624   7.533
 2457TIP3    H128930   6.090   5.634   7.558
 2457TIP3    H228931   6.187   5.664   7.446
 2458TIP3   OH228932   6.623   5.599   7.435
 2458TIP3    H128933   6.577   5.632   7.359
 2458TIP3    H228934   6.631   5.674   7.494
 2459TIP3   OH228935   6.857   5.503   7.544
 2459TIP3    H128936   6.778   5.533   7.499
 2459TIP3    H228937   6.928   5.556   7.506
 2460TIP3   OH228938   7.105   5.629   7.499
 2460TIP3    H128939   7.109   5.717   7.463
 2460TIP3    H228940   7.149   5.574   7.433
 2461TIP3   OH228941   5.884   5.509   7.289
 2461TIP3    H128942   5.884   5.459   7.370
 2461TIP3    H228943   5.959   5.477   7.240
 2462TIP3   OH228944   6.098   5.394   7.167
 2462TIP3    H128945   6.087   5.304   7.198
 2462TIP3    H228946   6.187   5.417   7.192
 2463TIP3   OH228947   6.363   5.418   7.276
 2463TIP3    H128948   6.373   5.330   7.240
 2463TIP3    H228949   6.391   5.410   7.367
 2464TIP3   OH228950   6.676   3.972   7.192
 2464TIP3    H128951   6.609   3.904   7.199
 2464TIP3    H228952   6.749   3.930   7.146
 2465TIP3   OH228953   7.181   3.856   7.180
 2465TIP3    H128954   7.199   3.937   7.133
 2465TIP3    H228955   7.095   3.829   7.149
 2466TIP3   OH228956   5.924   3.848   6.922
 2466TIP3    H128957   5.833   3.842   6.892
 2466TIP3    H228958   5.960   3.761   6.905
 2467TIP3   OH228959   6.404   3.801   6.952
 2467TIP3    H128960   6.473   3.845   6.904
 2467TIP3    H228961   6.431   3.808   7.044
 2468TIP3   OH228962   6.896   3.830   7.099
 2468TIP3    H128963   6.941   3.809   7.017
 2468TIP3    H228964   6.872   3.745   7.136
 2469TIP3   OH228965   7.047   3.854   6.662
 2469TIP3    H128966   7.013   3.872   6.574
 2469TIP3    H228967   7.023   3.763   6.678
 2470TIP3   OH228968   6.516   4.082   6.605
 2470TIP3    H128969   6.550   4.010   6.657
 2470TIP3    H228970   6.542   4.161   6.652
 2471TIP3   OH228971   5.934   3.881   7.952
 2471TIP3    H128972   5.887   3.804   7.920
 2471TIP3    H228973   6.026   3.855   7.952
 2472TIP3   OH228974   6.182   3.801   8.046
 2472TIP3    H128975   6.263   3.811   7.997
 2472TIP3    H228976   6.185   3.712   8.080
 2473TIP3   OH228977   6.982   3.783   8.076
 2473TIP3    H128978   6.981   3.730   8.156
 2473TIP3    H228979   7.073   3.780   8.046
 2474TIP3   OH228980   7.184   5.412   7.943
 2474TIP3    H128981   7.160   5.396   7.852
 2474TIP3    H228982   7.157   5.332   7.989
 2475TIP3   OH228983   1.170   6.669   6.890
 2475TIP3    H128984   1.157   6.764   6.895
 2475TIP3    H228985   1.107   6.640   6.823
 2476TIP3   OH228986   1.070   6.585   7.302
 2476TIP3    H128987   1.101   6.544   7.383
 2476TIP3    H228988   1.031   6.513   7.253
 2477TIP3   OH228989   0.316   6.536   7.436
 2477TIP3    H128990   0.320   6.457   7.491
 2477TIP3    H228991   0.404   6.546   7.401
 2478TIP3   OH228992   1.458   6.897   7.136
 2478TIP3    H128993   1.420   6.825   7.186
 2478TIP3    H228994   1.469   6.967   7.200
 2479TIP3   OH228995   0.392   7.009   7.262
 2479TIP3    H128996   0.390   6.921   7.226
 2479TIP3    H228997   0.447   7.001   7.340
 2480TIP3   OH228998   0.094   6.316   6.741
 2480TIP3    H128999   0.039   6.388   6.774
 2480TIP3    H229000   0.075   6.244   6.801
 2481TIP3   OH229001   0.126   6.587   7.095
 2481TIP3    H129002   0.167   6.501   7.087
 2481TIP3    H229003   0.123   6.621   7.006
 2482TIP3   OH229004   0.920   6.819   7.327
 2482TIP3    H129005   0.958   6.739   7.290
 2482TIP3    H229006   0.988   6.854   7.384
 2483TIP3   OH229007   1.810   5.978   7.416
 2483TIP3    H129008   1.825   6.053   7.474
 2483TIP3    H229009   1.863   5.997   7.338
 2484TIP3   OH229010   1.224   6.255   7.328
 2484TIP3    H129011   1.252   6.164   7.334
 2484TIP3    H229012   1.214   6.271   7.234
 2485TIP3   OH229013   0.607   6.104   7.054
 2485TIP3    H129014   0.617   6.186   7.007
 2485TIP3    H229015   0.570   6.043   6.990
 2486TIP3   OH229016   1.364   6.125   6.928
 2486TIP3    H129017   1.412   6.078   6.997
 2486TIP3    H229018   1.432   6.152   6.866
 2487TIP3   OH229019   0.235   6.328   7.123
 2487TIP3    H129020   0.303   6.288   7.178
 2487TIP3    H229021   0.253   6.294   7.035
 2488TIP3   OH229022   0.712   6.459   7.125
 2488TIP3    H129023   0.800   6.427   7.143
 2488TIP3    H229024   0.683   6.408   7.049
 2489TIP3   OH229025   1.845   6.154   7.635
 2489TIP3    H129026   1.772   6.212   7.613
 2489TIP3    H229027   1.862   6.171   7.727
 2490TIP3   OH229028   0.449   6.005   7.499
 2490TIP3    H129029   0.429   6.055   7.419
 2490TIP3    H229030   0.373   6.017   7.555
 2491TIP3   OH229031   1.127   6.938   6.827
 2491TIP3    H129032   1.113   6.956   6.734
 2491TIP3    H229033   1.217   6.965   6.843
 2492TIP3   OH229034   0.699   6.749   7.473
 2492TIP3    H129035   0.647   6.821   7.509
 2492TIP3    H229036   0.771   6.792   7.426
 2493TIP3   OH229037   1.474   6.030   7.162
 2493TIP3    H129038   1.409   6.006   7.228
 2493TIP3    H229039   1.530   6.094   7.206
 2494TIP3   OH229040   0.428   6.160   7.257
 2494TIP3    H129041   0.483   6.214   7.314
 2494TIP3    H229042   0.487   6.130   7.188
 2495TIP3   OH229043   0.532   6.940   7.582
 2495TIP3    H129044   0.538   7.035   7.578
 2495TIP3    H229045   0.444   6.923   7.616
 2496TIP3   OH229046   0.110   6.883   6.831
 2496TIP3    H129047   0.139   6.911   6.744
 2496TIP3    H229048   0.180   6.911   6.890
 2497TIP3   OH229049   1.485   7.112   7.320
 2497TIP3    H129050   1.414   7.151   7.372
 2497TIP3    H229051   1.515   7.184   7.264
 2498TIP3   OH229052   1.558   5.876   7.501
 2498TIP3    H129053   1.488   5.915   7.448
 2498TIP3    H229054   1.639   5.903   7.457
 2499TIP3   OH229055   0.799   5.704   7.217
 2499TIP3    H129056   0.777   5.611   7.218
 2499TIP3    H229057   0.719   5.747   7.248
 2500TIP3   OH229058   1.320   7.253   6.939
 2500TIP3    H129059   1.353   7.163   6.930
 2500TIP3    H229060   1.353   7.298   6.862
 2501TIP3   OH229061   1.391   6.991   6.882
 2501TIP3    H129062   1.447   6.958   6.811
 2501TIP3    H229063   1.427   6.951   6.961
 2502TIP3   OH229064   1.596   6.904   7.687
 2502TIP3    H129065   1.590   6.846   7.611
 2502TIP3    H229066   1.599   6.992   7.650
 2503TIP3   OH229067   1.002   6.595   6.681
 2503TIP3    H129068   0.950   6.668   6.649
 2503TIP3    H229069   1.023   6.544   6.603
 2504TIP3   OH229070   1.080   6.423   6.482
 2504TIP3    H129071   1.170   6.447   6.463
 2504TIP3    H229072   1.039   6.412   6.396
 2505TIP3   OH229073   1.766   6.554   7.531
 2505TIP3    H129074   1.695   6.617   7.521
 2505TIP3    H229075   1.824   6.570   7.456
 2506TIP3   OH229076   1.395   6.603   6.738
 2506TIP3    H129077   1.323   6.624   6.797
 2506TIP3    H229078   1.460   6.559   6.794
 2507TIP3   OH229079   1.377   6.417   7.709
 2507TIP3    H129080   1.373   6.489   7.772
 2507TIP3    H229081   1.315   6.442   7.641
 2508TIP3   OH229082   0.567   6.638   6.973
 2508TIP3    H129083   0.553   6.565   6.912
 2508TIP3    H229084   0.634   6.605   7.034
 2509TIP3   OH229085   0.775   7.001   7.181
 2509TIP3    H129086   0.736   6.938   7.120
 2509TIP3    H229087   0.831   6.947   7.238
 2510TIP3   OH229088   0.568   6.557   7.334
 2510TIP3    H129089   0.623   6.529   7.261
 2510TIP3    H229090   0.620   6.623   7.379
 2511TIP3   OH229091   1.041   7.111   7.435
 2511TIP3    H129092   1.116   7.168   7.452
 2511TIP3    H229093   1.075   7.022   7.448
 2512TIP3   OH229094   0.713   6.979   7.804
 2512TIP3    H129095   0.650   7.042   7.840
 2512TIP3    H229096   0.671   6.945   7.726
 2513TIP3   OH229097   1.347   6.502   6.474
 2513TIP3    H129098   1.367   6.537   6.561
 2513TIP3    H229099   1.383   6.566   6.413
 2514TIP3   OH229100   0.388   6.591   7.742
 2514TIP3    H129101   0.388   6.663   7.806
 2514TIP3    H229102   0.337   6.625   7.669
 2515TIP3   OH229103   1.045   7.256   6.977
 2515TIP3    H129104   1.135   7.225   6.966
 2515TIP3    H229105   1.040   0.033   6.927
 2516TIP3   OH229106   0.509   7.159   7.845
 2516TIP3    H129107   0.518   7.196   7.757
 2516TIP3    H229108   0.422   7.189   7.874
 2517TIP3   OH229109   1.807   7.181   6.348
 2517TIP3    H129110   1.837   7.225   6.427
 2517TIP3    H229111   1.866   7.106   6.338
 2518TIP3   OH229112   0.184   6.769   7.606
 2518TIP3    H129113   0.155   6.753   7.516
 2518TIP3    H229114   0.134   6.706   7.658
 2519TIP3   OH229115   0.169   7.189   7.277
 2519TIP3    H129116   0.221   7.112   7.251
 2519TIP3    H229117   0.183   7.196   7.371
 2520TIP3   OH229118   1.871   7.148   7.939
 2520TIP3    H129119   1.861   7.055   7.917
 2520TIP3    H229120   1.782   7.182   7.941
 2521TIP3   OH229121   0.930   7.162   7.798
 2521TIP3    H129122   1.011   7.113   7.781
 2521TIP3    H229123   0.861   7.096   7.795
 2522TIP3   OH229124   1.554   6.298   7.913
 2522TIP3    H129125   1.496   6.337   7.847
 2522TIP3    H229126   1.563   6.207   7.886
 2523TIP3   OH229127   0.269   6.990   7.738
 2523TIP3    H129128   0.319   6.940   7.803
 2523TIP3    H229129   0.223   6.923   7.687
 2524TIP3   OH229130   0.561   5.808   7.329
 2524TIP3    H129131   0.491   5.799   7.265
 2524TIP3    H229132   0.530   5.875   7.390
 2525TIP3   OH229133   1.028   5.762   7.693
 2525TIP3    H129134   1.089   5.712   7.747
 2525TIP3    H229135   1.014   5.707   7.615
 2526TIP3   OH229136   1.313   6.148   7.716
 2526TIP3    H129137   1.259   6.132   7.794
 2526TIP3    H229138   1.327   6.242   7.715
 2527TIP3   OH229139   0.571   6.306   7.445
 2527TIP3    H129140   0.504   6.310   7.513
 2527TIP3    H229141   0.577   6.395   7.412
 2528TIP3   OH229142   0.582   6.343   6.902
 2528TIP3    H129143   0.492   6.310   6.895
 2528TIP3    H229144   0.622   6.322   6.817
 2529TIP3   OH229145   1.100   6.359   6.797
 2529TIP3    H129146   1.059   6.441   6.769
 2529TIP3    H229147   1.163   6.339   6.728
 2530TIP3   OH229148   1.028   6.329   7.916
 2530TIP3    H129149   0.981   6.254   7.952
 2530TIP3    H229150   1.110   6.332   7.965
 2531TIP3   OH229151   1.194   6.294   7.055
 2531TIP3    H129152   1.159   6.345   6.982
 2531TIP3    H229153   1.245   6.224   7.013
 2532TIP3   OH229154   0.353   6.327   7.611
 2532TIP3    H129155   0.346   6.386   7.686
 2532TIP3    H229156   0.303   6.249   7.637
 2533TIP3   OH229157   0.025   6.136   6.942
 2533TIP3    H129158   0.080   6.102   7.013
 2533TIP3    H229159   7.286   6.059   6.906
 2534TIP3   OH229160   0.270   6.113   6.575
 2534TIP3    H129161   0.345   6.094   6.518
 2534TIP3    H229162   0.244   6.202   6.552
 2535TIP3   OH229163   1.159   6.432   7.524
 2535TIP3    H129164   1.192   6.374   7.454
 2535TIP3    H229165   1.091   6.380   7.567
 2536TIP3   OH229166   0.886   6.042   7.042
 2536TIP3    H129167   0.793   6.053   7.063
 2536TIP3    H229168   0.925   6.008   7.123
 2537TIP3   OH229169   0.334   6.222   6.880
 2537TIP3    H129170   0.276   6.237   6.806
 2537TIP3    H229171   0.374   6.137   6.862
 2538TIP3   OH229172   0.662   6.270   6.651
 2538TIP3    H129173   0.745   6.226   6.669
 2538TIP3    H229174   0.651   6.262   6.556
 2539TIP3   OH229175   1.265   5.979   7.349
 2539TIP3    H129176   1.215   5.988   7.430
 2539TIP3    H229177   1.206   5.935   7.288
 2540TIP3   OH229178   0.365   6.802   7.926
 2540TIP3    H129179   0.423   6.798   8.002
 2540TIP3    H229180   0.277   6.804   7.963
 2541TIP3   OH229181   0.952   6.348   7.200
 2541TIP3    H129182   1.023   6.315   7.145
 2541TIP3    H229183   0.935   6.277   7.262
 2542TIP3   OH229184   0.480   5.986   6.842
 2542TIP3    H129185   0.437   5.904   6.870
 2542TIP3    H229186   0.521   5.964   6.759
 2543TIP3   OH229187   0.827   6.199   7.432
 2543TIP3    H129188   0.746   6.251   7.432
 2543TIP3    H229189   0.880   6.240   7.501
 2544TIP3   OH229190   0.833   6.821   6.623
 2544TIP3    H129191   0.755   6.867   6.593
 2544TIP3    H229192   0.827   6.823   6.718
 2545TIP3   OH229193   1.569   6.739   7.465
 2545TIP3    H129194   1.634   6.786   7.414
 2545TIP3    H229195   1.499   6.719   7.403
 2546TIP3   OH229196   1.037   6.793   7.759
 2546TIP3    H129197   1.055   6.747   7.841
 2546TIP3    H229198   1.075   6.880   7.771
 2547TIP3   OH229199   0.422   6.752   7.180
 2547TIP3    H129200   0.458   6.723   7.096
 2547TIP3    H229201   0.444   6.682   7.240
 2548TIP3   OH229202   1.071   6.974   6.543
 2548TIP3    H129203   1.026   7.039   6.488
 2548TIP3    H229204   1.008   6.902   6.550
 2549TIP3   OH229205   0.068   6.573   7.755
 2549TIP3    H129206   0.103   6.542   7.838
 2549TIP3    H229207   0.033   6.494   7.713
 2550TIP3   OH229208   0.819   6.522   7.943
 2550TIP3    H129209   0.756   6.496   7.875
 2550TIP3    H229210   0.900   6.479   7.919
 2551TIP3   OH229211   1.178   7.039   7.767
 2551TIP3    H129212   1.213   7.095   7.697
 2551TIP3    H229213   1.213   7.077   7.848
 2552TIP3   OH229214   1.784   6.265   6.556
 2552TIP3    H129215   1.754   6.187   6.509
 2552TIP3    H229216   1.774   6.336   6.492
 2553TIP3   OH229217   1.813   6.877   7.851
 2553TIP3    H129218   1.729   6.899   7.812
 2553TIP3    H229219   1.872   6.864   7.777
 2554TIP3   OH229220   1.650   7.161   6.686
 2554TIP3    H129221   1.637   7.088   6.625
 2554TIP3    H229222   1.665   7.237   6.629
 2555TIP3   OH229223   1.361   6.667   7.283
 2555TIP3    H129224   1.266   6.661   7.270
 2555TIP3    H229225   1.397   6.592   7.237
 2556TIP3   OH229226   0.658   7.099   6.924
 2556TIP3    H129227   0.659   7.151   6.844
 2556TIP3    H229228   0.587   7.136   6.976
 2557TIP3   OH229229   0.742   6.839   6.886
 2557TIP3    H129230   0.704   6.927   6.881
 2557TIP3    H229231   0.668   6.782   6.908
 2558TIP3   OH229232   0.828   7.277   7.508
 2558TIP3    H129233   0.897   0.030   7.542
 2558TIP3    H229234   0.872   7.194   7.491
 2559TIP3   OH229235   1.131   6.853   7.497
 2559TIP3    H129236   1.106   6.821   7.584
 2559TIP3    H229237   1.217   6.813   7.480
 2560TIP3   OH229238   1.356   7.014   6.473
 2560TIP3    H129239   1.407   6.955   6.529
 2560TIP3    H229240   1.265   6.992   6.492
 2561TIP3   OH229241   0.230   6.086   7.685
 2561TIP3    H129242   0.135   6.095   7.683
 2561TIP3    H229243   0.250   6.058   7.775
 2562TIP3   OH229244   1.498   6.850   6.654
 2562TIP3    H129245   1.457   6.766   6.675
 2562TIP3    H229246   1.592   6.831   6.654
 2563TIP3   OH229247   0.239   7.221   7.544
 2563TIP3    H129248   0.237   7.151   7.609
 2563TIP3    H229249   0.171   7.282   7.572
 2564TIP3   OH229250   1.123   6.002   7.589
 2564TIP3    H129251   1.199   6.041   7.632
 2564TIP3    H229252   1.110   5.918   7.634
 2565TIP3   OH229253   0.896   6.167   6.789
 2565TIP3    H129254   0.967   6.231   6.784
 2565TIP3    H229255   0.898   6.137   6.880
 2566TIP3   OH229256   0.992   6.250   7.650
 2566TIP3    H129257   1.007   6.275   7.741
 2566TIP3    H229258   1.040   6.168   7.639
 2567TIP3   OH229259   0.959   5.866   6.833
 2567TIP3    H129260   0.954   5.932   6.902
 2567TIP3    H229261   0.943   5.915   6.752
 2568TIP3   OH229262   1.566   6.059   7.764
 2568TIP3    H129263   1.474   6.074   7.742
 2568TIP3    H229264   1.606   6.029   7.682
 2569TIP3   OH229265   1.439   6.421   7.161
 2569TIP3    H129266   1.360   6.378   7.130
 2569TIP3    H229267   1.485   6.354   7.211
 2570TIP3   OH229268   0.315   5.787   7.204
 2570TIP3    H129269   0.322   5.775   7.109
 2570TIP3    H229270   0.283   5.703   7.236
 2571TIP3   OH229271   0.164   7.227   6.781
 2571TIP3    H129272   0.126   7.139   6.772
 2571TIP3    H229273   0.201   7.246   6.695
 2572TIP3   OH229274   0.631   7.237   8.164
 2572TIP3    H129275   0.664   7.149   8.185
 2572TIP3    H229276   0.687   7.267   8.092
 2573TIP3   OH229277   1.260   7.121   8.018
 2573TIP3    H129278   1.222   7.040   8.052
 2573TIP3    H229279   1.334   7.138   8.075
 2574TIP3   OH229280   1.519   7.212   6.359
 2574TIP3    H129281   1.460   7.142   6.385
 2574TIP3    H229282   1.600   7.166   6.333
 2575TIP3   OH229283   0.090   6.809   7.985
 2575TIP3    H129284   0.092   6.713   7.985
 2575TIP3    H229285   0.034   6.831   7.910
 2576TIP3   OH229286   0.770   6.795   8.007
 2576TIP3    H129287   0.767   6.848   7.927
 2576TIP3    H229288   0.804   6.711   7.979
 2577TIP3   OH229289   1.346   6.817   7.761
 2577TIP3    H129290   1.433   6.850   7.738
 2577TIP3    H229291   1.288   6.893   7.754
 2578TIP3   OH229292   0.192   6.534   8.000
 2578TIP3    H129293   0.283   6.514   7.982
 2578TIP3    H229294   0.187   6.545   8.095
 2579TIP3   OH229295   0.622   6.439   7.758
 2579TIP3    H129296   0.545   6.496   7.750
 2579TIP3    H229297   0.683   6.472   7.693
 2580TIP3   OH229298   1.117   6.650   8.021
 2580TIP3    H129299   1.204   6.619   7.995
 2580TIP3    H229300   1.089   6.588   8.088
 2581TIP3   OH229301   0.661   6.183   7.833
 2581TIP3    H129302   0.667   6.133   7.751
 2581TIP3    H229303   0.653   6.274   7.805
 2582TIP3   OH229304   0.709   6.022   7.609
 2582TIP3    H129305   0.755   6.072   7.542
 2582TIP3    H229306   0.620   6.012   7.575
 2583TIP3   OH229307   0.819   6.541   7.604
 2583TIP3    H129308   0.911   6.563   7.615
 2583TIP3    H229309   0.781   6.617   7.559
 2584TIP3   OH229310   1.249   6.305   8.087
 2584TIP3    H129311   1.254   6.230   8.147
 2584TIP3    H229312   1.340   6.332   8.075
 2585TIP3   OH229313   1.392   6.606   7.918
 2585TIP3    H129314   1.364   6.682   7.868
 2585TIP3    H229315   1.488   6.609   7.916
 2586TIP3   OH229316   0.481   6.242   8.038
 2586TIP3    H129317   0.408   6.184   8.017
 2586TIP3    H229318   0.537   6.239   7.961
 2587TIP3   OH229319   0.721   5.733   7.620
 2587TIP3    H129320   0.719   5.788   7.542
 2587TIP3    H229321   0.664   5.659   7.598
 2588TIP3   OH229322   0.880   6.097   7.984
 2588TIP3    H129323   0.860   6.079   8.075
 2588TIP3    H229324   0.798   6.131   7.947
 2589TIP3   OH229325   1.141   6.040   7.899
 2589TIP3    H129326   1.061   6.052   7.950
 2589TIP3    H229327   1.205   6.007   7.961
 2590TIP3   OH229328   1.329   5.952   8.082
 2590TIP3    H129329   1.323   5.857   8.093
 2590TIP3    H229330   1.300   5.988   8.165
 2591TIP3   OH229331   0.294   6.036   8.001
 2591TIP3    H129332   0.285   5.949   7.964
 2591TIP3    H229333   0.308   6.021   8.095
 2592TIP3   OH229334   0.781   5.704   7.895
 2592TIP3    H129335   0.840   5.630   7.907
 2592TIP3    H229336   0.727   5.680   7.819
 2593TIP3   OH229337   0.805   5.824   8.154
 2593TIP3    H129338   0.802   5.778   8.070
 2593TIP3    H229339   0.741   5.894   8.144
 2594TIP3   OH229340   0.196   7.003   6.603
 2594TIP3    H129341   0.290   7.017   6.599
 2594TIP3    H229342   0.163   7.035   6.519
 2595TIP3   OH229343   1.600   6.912   8.161
 2595TIP3    H129344   1.519   6.928   8.210
 2595TIP3    H229345   1.653   6.989   8.179
 2596TIP3   OH229346   1.758   6.771   6.679
 2596TIP3    H129347   1.837   6.824   6.668
 2596TIP3    H229348   1.786   6.698   6.734
 2597TIP3   OH229349   1.815   6.563   6.859
 2597TIP3    H129350   1.725   6.536   6.878
 2597TIP3    H229351   1.854   6.576   6.945
 2598TIP3   OH229352   1.819   6.844   7.396
 2598TIP3    H129353   1.865   6.779   7.342
 2598TIP3    H229354   1.853   6.928   7.366
 2599TIP3   OH229355   1.591   7.156   7.578
 2599TIP3    H129356   1.501   7.187   7.587
 2599TIP3    H229357   1.600   7.135   7.485
 2600TIP3   OH229358   1.564   6.457   6.911
 2600TIP3    H129359   1.568   6.367   6.877
 2600TIP3    H229360   1.526   6.447   6.999
 2601TIP3   OH229361   0.094   6.663   7.354
 2601TIP3    H129362   0.096   6.664   7.258
 2601TIP3    H229363   0.178   6.623   7.379
 2602TIP3   OH229364   1.667   6.631   7.905
 2602TIP3    H129365   1.727   6.560   7.880
 2602TIP3    H229366   1.711   6.711   7.876
 2603TIP3   OH229367   1.809   6.398   7.873
 2603TIP3    H129368   1.721   6.363   7.888
 2603TIP3    H229369   1.868   6.328   7.900
 2604TIP3   OH229370   1.588   6.209   6.777
 2604TIP3    H129371   1.616   6.117   6.773
 2604TIP3    H229372   1.634   6.251   6.704
 2605TIP3   OH229373   1.599   6.233   7.307
 2605TIP3    H129374   1.689   6.250   7.282
 2605TIP3    H229375   1.596   6.254   7.401
 2606TIP3   OH229376   1.624   6.322   7.575
 2606TIP3    H129377   1.543   6.354   7.613
 2606TIP3    H229378   1.677   6.401   7.559
 2607TIP3   OH229379   0.071   6.193   7.981
 2607TIP3    H129380   0.160   6.159   7.980
 2607TIP3    H229381   0.017   6.120   8.011
 2608TIP3   OH229382   1.847   5.746   8.089
 2608TIP3    H129383   1.916   5.683   8.068
 2608TIP3    H229384   1.853   5.811   8.019
 2609TIP3   OH229385   1.650   5.940   6.752
 2609TIP3    H129386   1.649   5.881   6.827
 2609TIP3    H229387   1.609   5.890   6.682
 2610TIP3   OH229388   0.185   6.028   7.194
 2610TIP3    H129389   0.216   5.938   7.194
 2610TIP3    H229390   0.263   6.081   7.209
 2611TIP3   OH229391   0.032   6.382   7.326
 2611TIP3    H129392   0.097   6.363   7.258
 2611TIP3    H229393   0.036   6.477   7.338
 2612TIP3   OH229394   1.792   5.933   7.900
 2612TIP3    H129395   1.716   5.973   7.943
 2612TIP3    H229396   1.755   5.884   7.827
 2613TIP3   OH229397   0.192   5.906   6.738
 2613TIP3    H129398   0.097   5.917   6.735
 2613TIP3    H229399   0.227   5.975   6.683
 2614TIP3   OH229400   0.017   5.745   7.641
 2614TIP3    H129401   7.257   5.677   7.618
 2614TIP3    H229402   0.014   5.806   7.568
 2615TIP3   OH229403   0.201   7.194   7.914
 2615TIP3    H129404   0.213   7.122   7.852
 2615TIP3    H229405   0.187   7.151   7.998
 2616TIP3   OH229406   0.531   7.210   7.567
 2616TIP3    H129407   0.453   7.250   7.530
 2616TIP3    H229408   0.604   7.256   7.526
 2617TIP3   OH229409   1.690   5.735   7.720
 2617TIP3    H129410   1.630   5.766   7.652
 2617TIP3    H229411   1.706   5.643   7.698
 2618TIP3   OH229412   0.483   7.214   7.103
 2618TIP3    H129413   0.448   7.140   7.152
 2618TIP3    H229414   0.522   7.270   7.171
 2619TIP3   OH229415   1.037   5.853   7.221
 2619TIP3    H129416   0.958   5.802   7.204
 2619TIP3    H229417   1.102   5.818   7.160
 2620TIP3   OH229418   1.518   5.721   7.194
 2620TIP3    H129419   1.579   5.767   7.136
 2620TIP3    H229420   1.431   5.747   7.164
 2621TIP3   OH229421   1.703   5.776   6.977
 2621TIP3    H129422   1.775   5.723   6.942
 2621TIP3    H229423   1.746   5.855   7.010
 2622TIP3   OH229424   0.329   5.768   6.934
 2622TIP3    H129425   0.273   5.800   6.863
 2622TIP3    H229426   0.344   5.676   6.914
 2623TIP3   OH229427   0.131   5.747   6.480
 2623TIP3    H129428   0.155   5.749   6.388
 2623TIP3    H229429   0.212   5.772   6.526
 2624TIP3   OH229430   0.737   5.737   6.942
 2624TIP3    H129431   0.807   5.781   6.893
 2624TIP3    H229432   0.771   5.728   7.031
 2625TIP3   OH229433   1.249   5.739   7.090
 2625TIP3    H129434   1.263   5.732   6.996
 2625TIP3    H229435   1.233   5.649   7.118
 2626TIP3   OH229436   0.233   5.792   7.889
 2626TIP3    H129437   0.224   5.712   7.942
 2626TIP3    H229438   0.311   5.776   7.836
 2627TIP3   OH229439   0.487   5.718   8.059
 2627TIP3    H129440   0.572   5.682   8.031
 2627TIP3    H229441   0.447   5.647   8.110
 2628TIP3   OH229442   1.340   5.673   8.081
 2628TIP3    H129443   1.333   5.625   8.164
 2628TIP3    H229444   1.432   5.665   8.057
 2629TIP3   OH229445   1.615   7.247   7.926
 2629TIP3    H129446   1.536   7.207   7.889
 2629TIP3    H229447   1.637   0.014   7.864
 2630TIP3   OH229448   3.131   6.685   6.910
 2630TIP3    H129449   3.096   6.774   6.898
 2630TIP3    H229450   3.068   6.628   6.866
 2631TIP3   OH229451   2.981   6.592   7.298
 2631TIP3    H129452   2.993   6.539   7.377
 2631TIP3    H229453   2.930   6.536   7.239
 2632TIP3   OH229454   2.193   6.528   7.428
 2632TIP3    H129455   2.198   6.453   7.488
 2632TIP3    H229456   2.284   6.546   7.405
 2633TIP3   OH229457   3.300   6.857   7.054
 2633TIP3    H129458   3.249   6.788   7.011
 2633TIP3    H229459   3.271   6.856   7.145
 2634TIP3   OH229460   2.331   6.976   7.302
 2634TIP3    H129461   2.293   6.901   7.258
 2634TIP3    H229462   2.423   6.976   7.275
 2635TIP3   OH229463   1.951   6.337   6.774
 2635TIP3    H129464   1.912   6.421   6.800
 2635TIP3    H229465   1.898   6.307   6.701
 2636TIP3   OH229466   2.005   6.565   7.068
 2636TIP3    H129467   2.040   6.476   7.078
 2636TIP3    H229468   2.067   6.608   7.009
 2637TIP3   OH229469   2.817   6.840   7.307
 2637TIP3    H129470   2.852   6.766   7.257
 2637TIP3    H229471   2.887   6.863   7.368
 2638TIP3   OH229472   3.689   5.981   7.400
 2638TIP3    H129473   3.711   6.047   7.466
 2638TIP3    H229474   3.751   5.997   7.329
 2639TIP3   OH229475   3.136   6.256   7.339
 2639TIP3    H129476   3.153   6.162   7.347
 2639TIP3    H229477   3.118   6.270   7.246
 2640TIP3   OH229478   2.471   6.067   7.049
 2640TIP3    H129479   2.471   6.154   7.009
 2640TIP3    H229480   2.422   6.013   6.988
 2641TIP3   OH229481   3.227   6.103   6.905
 2641TIP3    H129482   3.277   6.066   6.978
 2641TIP3    H229483   3.294   6.139   6.847
 2642TIP3   OH229484   2.100   6.311   7.133
 2642TIP3    H129485   2.170   6.271   7.185
 2642TIP3    H229486   2.116   6.279   7.044
 2643TIP3   OH229487   2.578   6.467   7.111
 2643TIP3    H129488   2.665   6.431   7.127
 2643TIP3    H229489   2.537   6.405   7.050
 2644TIP3   OH229490   3.756   6.149   7.616
 2644TIP3    H129491   3.719   6.232   7.589
 2644TIP3    H229492   3.771   6.159   7.710
 2645TIP3   OH229493   2.324   5.990   7.478
 2645TIP3    H129494   2.303   6.044   7.402
 2645TIP3    H229495   2.250   6.002   7.538
 2646TIP3   OH229496   3.045   6.931   6.849
 2646TIP3    H129497   3.089   6.953   6.766
 2646TIP3    H229498   2.998   7.010   6.873
 2647TIP3   OH229499   2.597   6.758   7.465
 2647TIP3    H129500   2.534   6.823   7.496
 2647TIP3    H229501   2.654   6.806   7.405
 2648TIP3   OH229502   3.372   6.043   7.128
 2648TIP3    H129503   3.383   5.958   7.170
 2648TIP3    H229504   3.422   6.103   7.184
 2649TIP3   OH229505   2.302   6.152   7.255
 2649TIP3    H129506   2.360   6.209   7.305
 2649TIP3    H229507   2.357   6.117   7.185
 2650TIP3   OH229508   2.411   6.939   7.561
 2650TIP3    H129509   2.383   6.962   7.473
 2650TIP3    H229510   2.333   6.952   7.615
 2651TIP3   OH229511   1.982   6.927   6.640
 2651TIP3    H129512   1.984   6.953   6.548
 2651TIP3    H229513   2.009   7.007   6.687
 2652TIP3   OH229514   3.394   7.126   7.327
 2652TIP3    H129515   3.301   7.110   7.342
 2652TIP3    H229516   3.404   7.122   7.232
 2653TIP3   OH229517   3.407   5.921   7.480
 2653TIP3    H129518   3.334   5.940   7.422
 2653TIP3    H229519   3.485   5.931   7.425
 2654TIP3   OH229520   2.685   5.678   7.232
 2654TIP3    H129521   2.654   5.587   7.226
 2654TIP3    H229522   2.607   5.727   7.258
 2655TIP3   OH229523   3.224   7.252   6.910
 2655TIP3    H129524   3.264   7.166   6.900
 2655TIP3    H229525   3.252   7.301   6.832
 2656TIP3   OH229526   3.355   7.023   6.826
 2656TIP3    H129527   3.297   7.005   6.752
 2656TIP3    H229528   3.330   6.957   6.892
 2657TIP3   OH229529   3.479   6.906   7.687
 2657TIP3    H129530   3.471   6.843   7.615
 2657TIP3    H229531   3.468   6.992   7.645
 2658TIP3   OH229532   2.959   6.596   6.706
 2658TIP3    H129533   2.886   6.657   6.693
 2658TIP3    H229534   3.017   6.612   6.632
 2659TIP3   OH229535   3.681   6.560   7.519
 2659TIP3    H129536   3.608   6.622   7.513
 2659TIP3    H229537   3.736   6.581   7.442
 2660TIP3   OH229538   3.344   6.621   6.732
 2660TIP3    H129539   3.275   6.658   6.787
 2660TIP3    H229540   3.381   6.550   6.785
 2661TIP3   OH229541   3.273   6.471   7.654
 2661TIP3    H129542   3.270   6.556   7.700
 2661TIP3    H229543   3.190   6.467   7.607
 2662TIP3   OH229544   2.434   6.664   6.949
 2662TIP3    H129545   2.407   6.632   6.864
 2662TIP3    H229546   2.490   6.595   6.984
 2663TIP3   OH229547   2.590   6.971   7.223
 2663TIP3    H129548   2.594   7.011   7.136
 2663TIP3    H229549   2.678   6.936   7.237
 2664TIP3   OH229550   2.455   6.553   7.342
 2664TIP3    H129551   2.498   6.535   7.259
 2664TIP3    H229552   2.502   6.628   7.377
 2665TIP3   OH229553   3.134   7.090   7.391
 2665TIP3    H129554   3.063   7.132   7.344
 2665TIP3    H229555   3.098   7.007   7.420
 2666TIP3   OH229556   2.584   6.968   7.775
 2666TIP3    H129557   2.521   7.024   7.820
 2666TIP3    H229558   2.543   6.948   7.691
 2667TIP3   OH229559   3.154   6.663   6.515
 2667TIP3    H129560   3.219   6.654   6.585
 2667TIP3    H229561   3.205   6.659   6.434
 2668TIP3   OH229562   2.252   6.563   7.778
 2668TIP3    H129563   2.264   6.650   7.816
 2668TIP3    H229564   2.165   6.565   7.738
 2669TIP3   OH229565   2.951   7.182   6.906
 2669TIP3    H129566   3.039   7.220   6.907
 2669TIP3    H229567   2.895   7.254   6.879
 2670TIP3   OH229568   2.391   7.140   7.872
 2670TIP3    H129569   2.393   7.184   7.787
 2670TIP3    H229570   2.298   7.133   7.894
 2671TIP3   OH229571   3.550   5.711   6.542
 2671TIP3    H129572   3.459   5.721   6.515
 2671TIP3    H229573   3.597   5.686   6.462
 2672TIP3   OH229574   2.340   6.587   6.689
 2672TIP3    H129575   2.282   6.657   6.659
 2672TIP3    H229576   2.310   6.509   6.642
 2673TIP3   OH229577   3.510   6.958   6.432
 2673TIP3    H129578   3.460   7.033   6.399
 2673TIP3    H229579   3.490   6.888   6.369
 2674TIP3   OH229580   1.964   6.818   7.633
 2674TIP3    H129581   1.914   6.830   7.552
 2674TIP3    H229582   1.980   6.724   7.638
 2675TIP3   OH229583   1.947   7.076   7.322
 2675TIP3    H129584   2.030   7.073   7.275
 2675TIP3    H229585   1.901   7.151   7.284
 2676TIP3   OH229586   3.730   7.137   7.940
 2676TIP3    H129587   3.732   7.045   7.914
 2676TIP3    H229588   3.637   7.159   7.945
 2677TIP3   OH229589   2.831   7.094   7.772
 2677TIP3    H129590   2.811   7.167   7.831
 2677TIP3    H229591   2.747   7.054   7.754
 2678TIP3   OH229592   3.421   6.277   7.943
 2678TIP3    H129593   3.340   6.308   7.983
 2678TIP3    H229594   3.438   6.193   7.984
 2679TIP3   OH229595   2.182   6.968   7.709
 2679TIP3    H129596   2.205   6.917   7.787
 2679TIP3    H229597   2.103   6.925   7.676
 2680TIP3   OH229598   2.436   5.788   7.317
 2680TIP3    H129599   2.363   5.779   7.255
 2680TIP3    H229600   2.410   5.861   7.373
 2681TIP3   OH229601   2.897   5.743   7.657
 2681TIP3    H129602   2.945   5.698   7.727
 2681TIP3    H229603   2.804   5.734   7.682
 2682TIP3   OH229604   3.157   6.195   7.731
 2682TIP3    H129605   3.113   6.150   7.804
 2682TIP3    H229606   3.087   6.215   7.669
 2683TIP3   OH229607   3.309   6.642   6.288
 2683TIP3    H129608   3.293   6.676   6.199
 2683TIP3    H229609   3.404   6.642   6.297
 2684TIP3   OH229610   2.452   6.298   7.442
 2684TIP3    H129611   2.382   6.299   7.507
 2684TIP3    H229612   2.456   6.389   7.411
 2685TIP3   OH229613   2.436   6.312   6.932
 2685TIP3    H129614   2.341   6.302   6.922
 2685TIP3    H229615   2.471   6.293   6.845
 2686TIP3   OH229616   2.993   6.348   6.815
 2686TIP3    H129617   2.968   6.433   6.779
 2686TIP3    H229618   3.062   6.317   6.756
 2687TIP3   OH229619   2.924   6.350   7.927
 2687TIP3    H129620   2.871   6.280   7.966
 2687TIP3    H229621   3.012   6.336   7.962
 2688TIP3   OH229622   3.094   6.284   7.066
 2688TIP3    H129623   3.049   6.330   6.995
 2688TIP3    H229624   3.133   6.208   7.023
 2689TIP3   OH229625   2.233   6.311   7.608
 2689TIP3    H129626   2.218   6.363   7.687
 2689TIP3    H229627   2.187   6.228   7.625
 2690TIP3   OH229628   2.536   6.074   6.296
 2690TIP3    H129629   2.496   6.047   6.379
 2690TIP3    H229630   2.501   6.012   6.232
 2691TIP3   OH229631   1.865   5.983   7.038
 2691TIP3    H129632   1.933   6.010   7.099
 2691TIP3    H229633   1.903   5.996   6.951
 2692TIP3   OH229634   2.033   6.120   6.556
 2692TIP3    H129635   2.094   6.173   6.504
 2692TIP3    H229636   1.950   6.167   6.551
 2693TIP3   OH229637   3.033   6.432   7.516
 2693TIP3    H129638   3.071   6.372   7.452
 2693TIP3    H229639   2.970   6.378   7.565
 2694TIP3   OH229640   2.756   6.033   7.009
 2694TIP3    H129641   2.664   6.035   7.037
 2694TIP3    H229642   2.802   5.996   7.084
 2695TIP3   OH229643   2.177   6.222   6.888
 2695TIP3    H129644   2.103   6.253   6.835
 2695TIP3    H229645   2.197   6.136   6.852
 2696TIP3   OH229646   2.517   6.228   6.687
 2696TIP3    H129647   2.612   6.226   6.682
 2696TIP3    H229648   2.490   6.279   6.610
 2697TIP3   OH229649   3.145   5.980   7.367
 2697TIP3    H129650   3.082   5.981   7.439
 2697TIP3    H229651   3.098   5.941   7.293
 2698TIP3   OH229652   2.411   6.355   6.473
 2698TIP3    H129653   2.329   6.332   6.429
 2698TIP3    H229654   2.470   6.379   6.402
 2699TIP3   OH229655   2.244   6.804   7.925
 2699TIP3    H129656   2.310   6.809   7.994
 2699TIP3    H229657   2.160   6.810   7.972
 2700TIP3   OH229658   2.826   6.355   7.209
 2700TIP3    H129659   2.887   6.301   7.159
 2700TIP3    H229660   2.791   6.296   7.275
 2701TIP3   OH229661   2.307   5.960   6.850
 2701TIP3    H129662   2.249   5.886   6.867
 2701TIP3    H229663   2.336   5.947   6.759
 2702TIP3   OH229664   2.712   6.213   7.427
 2702TIP3    H129665   2.623   6.248   7.433
 2702TIP3    H229666   2.756   6.245   7.506
 2703TIP3   OH229667   2.772   6.797   6.630
 2703TIP3    H129668   2.710   6.734   6.594
 2703TIP3    H229669   2.731   6.826   6.712
 2704TIP3   OH229670   3.464   6.730   7.472
 2704TIP3    H129671   3.523   6.780   7.416
 2704TIP3    H229672   3.393   6.703   7.414
 2705TIP3   OH229673   2.964   6.855   7.752
 2705TIP3    H129674   2.918   6.801   7.816
 2705TIP3    H229675   2.922   6.940   7.758
 2706TIP3   OH229676   3.182   6.265   6.632
 2706TIP3    H129677   3.274   6.240   6.641
 2706TIP3    H229678   3.150   6.214   6.557
 2707TIP3   OH229679   2.279   6.744   7.168
 2707TIP3    H129680   2.330   6.733   7.087
 2707TIP3    H229681   2.283   6.658   7.210
 2708TIP3   OH229682   1.983   6.545   7.707
 2708TIP3    H129683   1.948   6.506   7.787
 2708TIP3    H229684   1.913   6.531   7.642
 2709TIP3   OH229685   2.698   6.532   7.944
 2709TIP3    H129686   2.633   6.498   7.883
 2709TIP3    H229687   2.779   6.485   7.922
 2710TIP3   OH229688   3.211   7.096   7.720
 2710TIP3    H129689   3.127   7.095   7.673
 2710TIP3    H229690   3.187   7.090   7.812
 2711TIP3   OH229691   3.703   6.875   7.839
 2711TIP3    H129692   3.617   6.892   7.800
 2711TIP3    H229693   3.762   6.868   7.765
 2712TIP3   OH229694   3.571   7.102   6.674
 2712TIP3    H129695   3.500   7.094   6.737
 2712TIP3    H229696   3.536   7.065   6.593
 2713TIP3   OH229697   3.263   6.638   7.299
 2713TIP3    H129698   3.169   6.631   7.285
 2713TIP3    H229699   3.300   6.572   7.240
 2714TIP3   OH229700   2.563   7.099   6.977
 2714TIP3    H129701   2.601   7.180   6.944
 2714TIP3    H229702   2.481   7.127   7.018
 2715TIP3   OH229703   2.107   6.577   6.450
 2715TIP3    H129704   2.145   6.644   6.392
 2715TIP3    H229705   2.016   6.603   6.460
 2716TIP3   OH229706   2.624   6.857   6.853
 2716TIP3    H129707   2.606   6.943   6.890
 2716TIP3    H229708   2.555   6.800   6.888
 2717TIP3   OH229709   2.667   7.212   7.479
 2717TIP3    H129710   2.671   7.242   7.388
 2717TIP3    H229711   2.758   7.214   7.509
 2718TIP3   OH229712   3.032   6.852   7.482
 2718TIP3    H129713   3.006   6.842   7.573
 2718TIP3    H229714   3.063   6.765   7.456
 2719TIP3   OH229715   2.109   6.054   7.645
 2719TIP3    H129716   2.020   6.084   7.627
 2719TIP3    H229717   2.097   5.975   7.697
 2720TIP3   OH229718   2.173   7.250   7.523
 2720TIP3    H129719   2.137   7.164   7.544
 2720TIP3    H229720   2.099   0.006   7.534
 2721TIP3   OH229721   2.633   6.993   6.422
 2721TIP3    H129722   2.634   6.941   6.502
 2721TIP3    H229723   2.559   7.052   6.433
 2722TIP3   OH229724   2.987   5.993   7.603
 2722TIP3    H129725   3.047   5.991   7.677
 2722TIP3    H229726   2.942   5.909   7.606
 2723TIP3   OH229727   3.069   5.961   6.712
 2723TIP3    H129728   3.057   6.006   6.629
 2723TIP3    H229729   3.115   6.024   6.768
 2724TIP3   OH229730   2.785   6.168   6.763
 2724TIP3    H129731   2.856   6.231   6.775
 2724TIP3    H229732   2.771   6.130   6.850
 2725TIP3   OH229733   2.880   6.251   7.653
 2725TIP3    H129734   2.875   6.270   7.747
 2725TIP3    H229735   2.889   6.156   7.648
 2726TIP3   OH229736   2.855   5.841   6.830
 2726TIP3    H129737   2.826   5.912   6.887
 2726TIP3    H229738   2.935   5.873   6.789
 2727TIP3   OH229739   2.550   0.119   6.638
 2727TIP3    H129740   2.535   0.172   6.559
 2727TIP3    H229741   2.491   0.045   6.627
 2728TIP3   OH229742   2.435   5.985   6.568
 2728TIP3    H129743   2.436   6.074   6.604
 2728TIP3    H229744   2.526   5.955   6.577
 2729TIP3   OH229745   3.419   6.031   7.730
 2729TIP3    H129746   3.365   5.970   7.781
 2729TIP3    H229747   3.427   5.990   7.644
 2730TIP3   OH229748   3.339   6.414   7.141
 2730TIP3    H129749   3.256   6.374   7.116
 2730TIP3    H229750   3.385   6.346   7.190
 2731TIP3   OH229751   2.145   6.314   6.382
 2731TIP3    H129752   2.132   6.404   6.413
 2731TIP3    H229753   2.092   6.308   6.302
 2732TIP3   OH229754   2.187   5.766   7.192
 2732TIP3    H129755   2.177   5.764   7.097
 2732TIP3    H229756   2.150   5.683   7.222
 2733TIP3   OH229757   2.061   7.185   6.737
 2733TIP3    H129758   1.991   7.249   6.731
 2733TIP3    H229759   2.125   7.213   6.671
 2734TIP3   OH229760   2.536   7.239   8.078
 2734TIP3    H129761   2.583   7.169   8.124
 2734TIP3    H229762   2.484   7.194   8.012
 2735TIP3   OH229763   3.161   7.095   7.987
 2735TIP3    H129764   3.133   7.016   8.033
 2735TIP3    H229765   3.099   7.162   8.016
 2736TIP3   OH229766   3.387   7.184   6.336
 2736TIP3    H129767   3.323   7.188   6.406
 2736TIP3    H229768   3.348   7.235   6.265
 2737TIP3   OH229769   1.995   6.808   8.050
 2737TIP3    H129770   2.001   6.713   8.044
 2737TIP3    H229771   1.923   6.832   7.992
 2738TIP3   OH229772   2.662   6.810   7.992
 2738TIP3    H129773   2.639   6.850   7.908
 2738TIP3    H229774   2.681   6.719   7.971
 2739TIP3   OH229775   3.226   6.768   7.752
 2739TIP3    H129776   3.286   6.841   7.734
 2739TIP3    H229777   3.139   6.807   7.752
 2740TIP3   OH229778   2.073   6.545   8.014
 2740TIP3    H129779   2.152   6.526   7.962
 2740TIP3    H229780   2.099   6.529   8.104
 2741TIP3   OH229781   2.596   6.613   6.540
 2741TIP3    H129782   2.511   6.595   6.579
 2741TIP3    H229783   2.598   6.560   6.460
 2742TIP3   OH229784   2.507   6.435   7.762
 2742TIP3    H129785   2.423   6.481   7.757
 2742TIP3    H229786   2.560   6.475   7.693
 2743TIP3   OH229787   2.606   6.457   6.304
 2743TIP3    H129788   2.565   6.511   6.236
 2743TIP3    H229789   2.661   6.396   6.256
 2744TIP3   OH229790   3.005   6.646   8.062
 2744TIP3    H129791   3.058   6.594   8.001
 2744TIP3    H229792   2.965   6.581   8.120
 2745TIP3   OH229793   2.555   6.172   7.824
 2745TIP3    H129794   2.555   6.115   7.747
 2745TIP3    H229795   2.537   6.260   7.789
 2746TIP3   OH229796   2.574   6.012   7.590
 2746TIP3    H129797   2.626   6.055   7.522
 2746TIP3    H229798   2.486   6.007   7.552
 2747TIP3   OH229799   2.698   6.545   7.600
 2747TIP3    H129800   2.787   6.537   7.565
 2747TIP3    H229801   2.661   6.621   7.555
 2748TIP3   OH229802   3.185   6.313   8.100
 2748TIP3    H129803   3.167   6.237   8.156
 2748TIP3    H229804   3.221   6.378   8.159
 2749TIP3   OH229805   3.309   6.596   7.940
 2749TIP3    H129806   3.271   6.661   7.881
 2749TIP3    H229807   3.403   6.604   7.928
 2750TIP3   OH229808   2.381   6.219   8.046
 2750TIP3    H129809   2.301   6.170   8.028
 2750TIP3    H229810   2.429   6.217   7.963
 2751TIP3   OH229811   2.619   5.746   7.669
 2751TIP3    H129812   2.603   5.837   7.643
 2751TIP3    H229813   2.551   5.696   7.622
 2752TIP3   OH229814   2.763   6.140   8.002
 2752TIP3    H129815   2.718   6.112   8.081
 2752TIP3    H229816   2.694   6.146   7.936
 2753TIP3   OH229817   3.019   6.052   7.912
 2753TIP3    H129818   2.933   6.058   7.954
 2753TIP3    H229819   3.075   6.011   7.978
 2754TIP3   OH229820   3.218   5.950   8.086
 2754TIP3    H129821   3.208   5.855   8.092
 2754TIP3    H229822   3.181   5.984   8.167
 2755TIP3   OH229823   2.172   6.037   7.997
 2755TIP3    H129824   2.173   5.964   7.935
 2755TIP3    H229825   2.177   5.995   8.083
 2756TIP3   OH229826   2.630   5.666   7.930
 2756TIP3    H129827   2.687   5.590   7.920
 2756TIP3    H229828   2.618   5.699   7.841
 2757TIP3   OH229829   2.702   5.827   8.147
 2757TIP3    H129830   2.683   5.772   8.071
 2757TIP3    H229831   2.643   5.901   8.139
 2758TIP3   OH229832   2.014   6.985   6.362
 2758TIP3    H129833   2.104   6.958   6.380
 2758TIP3    H229834   1.991   6.940   6.281
 2759TIP3   OH229835   3.543   6.948   8.229
 2759TIP3    H129836   3.451   6.970   8.246
 2759TIP3    H229837   3.589   7.030   8.242
 2760TIP3   OH229838   3.699   6.849   7.383
 2760TIP3    H129839   3.749   6.785   7.332
 2760TIP3    H229840   3.732   6.934   7.354
 2761TIP3   OH229841   3.425   7.194   7.587
 2761TIP3    H129842   3.348   7.170   7.638
 2761TIP3    H229843   3.413   7.149   7.503
 2762TIP3   OH229844   3.627   6.282   6.388
 2762TIP3    H129845   3.673   6.350   6.339
 2762TIP3    H229846   3.543   6.274   6.344
 2763TIP3   OH229847   3.467   6.435   6.889
 2763TIP3    H129848   3.457   6.344   6.861
 2763TIP3    H229849   3.432   6.437   6.979
 2764TIP3   OH229850   1.948   6.597   7.331
 2764TIP3    H129851   1.960   6.598   7.236
 2764TIP3    H229852   2.035   6.582   7.366
 2765TIP3   OH229853   3.582   6.633   7.921
 2765TIP3    H129854   3.625   6.554   7.888
 2765TIP3    H229855   3.625   6.705   7.875
 2766TIP3   OH229856   3.670   6.382   7.857
 2766TIP3    H129857   3.587   6.346   7.890
 2766TIP3    H229858   3.735   6.315   7.878
 2767TIP3   OH229859   3.448   6.189   6.746
 2767TIP3    H129860   3.468   6.096   6.757
 2767TIP3    H229861   3.522   6.224   6.696
 2768TIP3   OH229862   3.498   6.233   7.288
 2768TIP3    H129863   3.592   6.246   7.272
 2768TIP3    H229864   3.486   6.260   7.380
 2769TIP3   OH229865   3.499   6.359   7.543
 2769TIP3    H129866   3.426   6.420   7.541
 2769TIP3    H229867   3.576   6.414   7.531
 2770TIP3   OH229868   1.942   6.162   7.909
 2770TIP3    H129869   2.029   6.134   7.937
 2770TIP3    H229870   1.888   6.083   7.915
 2771TIP3   OH229871   3.730   5.739   8.078
 2771TIP3    H129872   3.800   5.676   8.063
 2771TIP3    H229873   3.741   5.804   8.007
 2772TIP3   OH229874   3.507   5.925   6.774
 2772TIP3    H129875   3.515   5.879   6.858
 2772TIP3    H229876   3.442   5.873   6.725
 2773TIP3   OH229877   2.053   6.005   7.246
 2773TIP3    H129878   2.095   5.920   7.233
 2773TIP3    H229879   2.126   6.067   7.247
 2774TIP3   OH229880   1.865   6.313   7.290
 2774TIP3    H129881   1.935   6.291   7.229
 2774TIP3    H229882   1.883   6.403   7.316
 2775TIP3   OH229883   3.669   5.930   7.888
 2775TIP3    H129884   3.589   5.966   7.927
 2775TIP3    H229885   3.638   5.875   7.816
 2776TIP3   OH229886   1.934   5.969   6.768
 2776TIP3    H129887   1.842   5.968   6.743
 2776TIP3    H229888   1.979   6.013   6.696
 2777TIP3   OH229889   1.921   5.764   7.552
 2777TIP3    H129890   1.852   5.760   7.618
 2777TIP3    H229891   1.892   5.833   7.492
 2778TIP3   OH229892   2.138   7.168   8.009
 2778TIP3    H129893   2.056   7.169   7.960
 2778TIP3    H229894   2.115   7.127   8.093
 2779TIP3   OH229895   2.432   7.259   7.625
 2779TIP3    H129896   2.349   7.261   7.578
 2779TIP3    H229897   2.495   7.226   7.561
 2780TIP3   OH229898   3.582   5.701   7.726
 2780TIP3    H129899   3.508   5.695   7.666
 2780TIP3    H229900   3.628   5.618   7.716
 2781TIP3   OH229901   2.377   7.202   7.150
 2781TIP3    H129902   2.342   7.133   7.206
 2781TIP3    H229903   2.402   7.272   7.210
 2782TIP3   OH229904   2.920   5.869   7.180
 2782TIP3    H129905   2.858   5.797   7.193
 2782TIP3    H229906   2.993   5.829   7.132
 2783TIP3   OH229907   3.400   5.763   7.201
 2783TIP3    H129908   3.466   5.778   7.134
 2783TIP3    H229909   3.318   5.753   7.152
 2784TIP3   OH229910   3.598   5.816   7.017
 2784TIP3    H129911   3.665   5.757   6.983
 2784TIP3    H229912   3.641   5.902   7.021
 2785TIP3   OH229913   2.148   5.736   6.920
 2785TIP3    H129914   2.062   5.728   6.880
 2785TIP3    H229915   2.188   5.649   6.909
 2786TIP3   OH229916   2.649   5.687   6.945
 2786TIP3    H129917   2.717   5.737   6.899
 2786TIP3    H229918   2.670   5.696   7.037
 2787TIP3   OH229919   3.149   5.740   7.074
 2787TIP3    H129920   3.164   5.726   6.980
 2787TIP3    H229921   3.124   5.654   7.107
 2788TIP3   OH229922   3.289   5.788   6.684
 2788TIP3    H129923   3.206   5.835   6.678
 2788TIP3    H229924   3.264   5.696   6.685
 2789TIP3   OH229925   2.702   5.944   6.615
 2789TIP3    H129926   2.751   5.880   6.667
 2789TIP3    H229927   2.731   6.029   6.648
 2790TIP3   OH229928   2.167   5.782   7.866
 2790TIP3    H129929   2.106   5.720   7.905
 2790TIP3    H229930   2.250   5.766   7.910
 2791TIP3   OH229931   2.373   5.706   8.036
 2791TIP3    H129932   2.461   5.684   8.006
 2791TIP3    H229933   2.344   5.628   8.083
 2792TIP3   OH229934   3.220   5.672   8.076
 2792TIP3    H129935   3.211   5.622   8.158
 2792TIP3    H229936   3.311   5.661   8.052
 2793TIP3   OH229937   3.460   7.212   7.957
 2793TIP3    H129938   3.376   7.173   7.932
 2793TIP3    H229939   3.475   7.282   7.893
 2794TIP3   OH229940   4.971   6.680   6.928
 2794TIP3    H129941   4.964   6.774   6.916
 2794TIP3    H229942   4.907   6.643   6.867
 2795TIP3   OH229943   4.847   6.594   7.304
 2795TIP3    H129944   4.873   6.545   7.382
 2795TIP3    H229945   4.805   6.529   7.248
 2796TIP3   OH229946   4.061   6.520   7.435
 2796TIP3    H129947   4.067   6.446   7.494
 2796TIP3    H229948   4.151   6.536   7.407
 2797TIP3   OH229949   5.269   6.901   7.123
 2797TIP3    H129950   5.212   6.830   7.154
 2797TIP3    H229951   5.264   6.967   7.192
 2798TIP3   OH229952   4.220   6.990   7.289
 2798TIP3    H129953   4.188   6.907   7.256
 2798TIP3    H229954   4.314   6.991   7.269
 2799TIP3   OH229955   3.784   6.318   6.840
 2799TIP3    H129956   3.775   6.387   6.906
 2799TIP3    H229957   3.765   6.237   6.887
 2800TIP3   OH229958   3.914   6.549   7.049
 2800TIP3    H129959   3.939   6.460   7.071
 2800TIP3    H229960   3.992   6.587   7.009
 2801TIP3   OH229961   4.688   6.836   7.317
 2801TIP3    H129962   4.723   6.757   7.275
 2801TIP3    H229963   4.758   6.867   7.374
 2802TIP3   OH229964   5.571   5.973   7.413
 2802TIP3    H129965   5.579   6.042   7.479
 2802TIP3    H229966   5.643   5.989   7.353
 2803TIP3   OH229967   5.001   6.259   7.326
 2803TIP3    H129968   5.022   6.167   7.342
 2803TIP3    H229969   4.989   6.264   7.231
 2804TIP3   OH229970   4.351   6.072   7.058
 2804TIP3    H129971   4.364   6.153   7.009
 2804TIP3    H229972   4.308   6.013   6.996
 2805TIP3   OH229973   5.154   6.105   6.886
 2805TIP3    H129974   5.186   6.071   6.969
 2805TIP3    H229975   5.232   6.130   6.837
 2806TIP3   OH229976   3.992   6.296   7.114
 2806TIP3    H129977   4.056   6.257   7.173
 2806TIP3    H229978   4.017   6.266   7.027
 2807TIP3   OH229979   4.457   6.462   7.112
 2807TIP3    H129980   4.546   6.434   7.135
 2807TIP3    H229981   4.429   6.399   7.046
 2808TIP3   OH229982   5.603   6.153   7.625
 2808TIP3    H129983   5.528   6.210   7.605
 2808TIP3    H229984   5.589   6.125   7.715
 2809TIP3   OH229985   4.218   5.982   7.475
 2809TIP3    H129986   4.188   6.036   7.402
 2809TIP3    H229987   4.147   5.988   7.540
 2810TIP3   OH229988   4.969   6.945   6.841
 2810TIP3    H129989   4.947   6.927   6.750
 2810TIP3    H229990   4.916   7.022   6.864
 2811TIP3   OH229991   4.482   6.733   7.472
 2811TIP3    H129992   4.428   6.805   7.505
 2811TIP3    H229993   4.549   6.776   7.420
 2812TIP3   OH229994   5.233   6.054   7.142
 2812TIP3    H129995   5.175   6.009   7.204
 2812TIP3    H229996   5.285   6.113   7.197
 2813TIP3   OH229997   4.178   6.147   7.257
 2813TIP3    H129998   4.235   6.204   7.310
 2813TIP3    H229999   4.236   6.112   7.189
 2814TIP3   OH230000   4.317   6.942   7.557
 2814TIP3    H130001   4.295   6.979   7.471
 2814TIP3    H230002   4.236   6.946   7.606
 2815TIP3   OH230003   3.935   6.930   6.714
 2815TIP3    H130004   4.002   6.866   6.689
 2815TIP3    H230005   3.926   6.920   6.809
 2816TIP3   OH230006   5.274   7.117   7.306
 2816TIP3    H130007   5.186   7.117   7.344
 2816TIP3    H230008   5.276   7.196   7.252
 2817TIP3   OH230009   5.304   5.887   7.484
 2817TIP3    H130010   5.235   5.921   7.427
 2817TIP3    H230011   5.385   5.908   7.437
 2818TIP3   OH230012   4.573   5.674   7.229
 2818TIP3    H130013   4.548   5.582   7.224
 2818TIP3    H230014   4.493   5.720   7.254
 2819TIP3   OH230015   5.130   7.292   6.911
 2819TIP3    H130016   5.152   7.199   6.903
 2819TIP3    H230017   5.133   0.021   6.821
 2820TIP3   OH230018   5.233   7.034   6.871
 2820TIP3    H130019   5.155   6.989   6.841
 2820TIP3    H230020   5.261   6.984   6.949
 2821TIP3   OH230021   5.351   6.909   7.679
 2821TIP3    H130022   5.365   6.825   7.636
 2821TIP3    H230023   5.415   6.968   7.640
 2822TIP3   OH230024   4.840   6.581   6.699
 2822TIP3    H130025   4.767   6.640   6.680
 2822TIP3    H230026   4.894   6.584   6.621
 2823TIP3   OH230027   5.552   6.545   7.531
 2823TIP3    H130028   5.479   6.606   7.521
 2823TIP3    H230029   5.599   6.550   7.448
 2824TIP3   OH230030   5.177   6.594   6.770
 2824TIP3    H130031   5.110   6.617   6.835
 2824TIP3    H230032   5.240   6.541   6.819
 2825TIP3   OH230033   5.151   6.419   7.688
 2825TIP3    H130034   5.143   6.470   7.768
 2825TIP3    H230035   5.077   6.446   7.633
 2826TIP3   OH230036   4.307   6.652   6.953
 2826TIP3    H130037   4.288   6.624   6.863
 2826TIP3    H230038   4.364   6.583   6.988
 2827TIP3   OH230039   4.483   7.007   7.227
 2827TIP3    H130040   4.492   7.022   7.133
 2827TIP3    H230041   4.559   6.953   7.250
 2828TIP3   OH230042   4.322   6.558   7.332
 2828TIP3    H130043   4.371   6.531   7.254
 2828TIP3    H230044   4.381   6.617   7.378
 2829TIP3   OH230045   5.041   7.096   7.447
 2829TIP3    H130046   5.032   7.117   7.540
 2829TIP3    H230047   4.994   7.014   7.437
 2830TIP3   OH230048   4.475   6.977   7.784
 2830TIP3    H130049   4.413   7.035   7.828
 2830TIP3    H230050   4.433   6.955   7.701
 2831TIP3   OH230051   5.065   6.563   6.520
 2831TIP3    H130052   5.104   6.580   6.605
 2831TIP3    H230053   5.111   6.621   6.460
 2832TIP3   OH230054   4.144   6.592   7.785
 2832TIP3    H130055   4.150   6.681   7.818
 2832TIP3    H230056   4.058   6.589   7.741
 2833TIP3   OH230057   4.834   7.187   6.853
 2833TIP3    H130058   4.875   7.271   6.874
 2833TIP3    H230059   4.767   7.208   6.788
 2834TIP3   OH230060   4.277   7.161   7.861
 2834TIP3    H130061   4.279   7.193   7.771
 2834TIP3    H230062   4.184   7.157   7.883
 2835TIP3   OH230063   4.254   6.601   6.681
 2835TIP3    H130064   4.316   6.659   6.637
 2835TIP3    H230065   4.228   6.538   6.613
 2836TIP3   OH230066   3.854   6.832   7.618
 2836TIP3    H130067   3.802   6.837   7.537
 2836TIP3    H230068   3.867   6.738   7.632
 2837TIP3   OH230069   3.838   7.077   7.320
 2837TIP3    H130070   3.903   7.071   7.250
 2837TIP3    H230071   3.884   7.119   7.392
 2838TIP3   OH230072   5.664   7.163   7.898
 2838TIP3    H130073   5.646   7.070   7.885
 2838TIP3    H230074   5.580   7.201   7.920
 2839TIP3   OH230075   4.721   7.100   7.775
 2839TIP3    H130076   4.701   7.171   7.836
 2839TIP3    H230077   4.641   7.048   7.770
 2840TIP3   OH230078   5.267   6.263   7.942
 2840TIP3    H130079   5.338   6.324   7.919
 2840TIP3    H230080   5.306   6.176   7.931
 2841TIP3   OH230081   4.076   6.976   7.687
 2841TIP3    H130082   4.097   6.939   7.773
 2841TIP3    H230083   3.998   6.928   7.659
 2842TIP3   OH230084   4.322   5.781   7.311
 2842TIP3    H130085   4.247   5.771   7.253
 2842TIP3    H230086   4.298   5.854   7.368
 2843TIP3   OH230087   4.796   5.769   7.657
 2843TIP3    H130088   4.844   5.720   7.724
 2843TIP3    H230089   4.704   5.755   7.679
 2844TIP3   OH230090   5.097   6.143   7.715
 2844TIP3    H130091   5.041   6.132   7.792
 2844TIP3    H230092   5.120   6.237   7.715
 2845TIP3   OH230093   4.330   6.300   7.431
 2845TIP3    H130094   4.264   6.300   7.500
 2845TIP3    H230095   4.331   6.391   7.399
 2846TIP3   OH230096   4.358   6.306   6.909
 2846TIP3    H130097   4.270   6.294   6.873
 2846TIP3    H230098   4.417   6.292   6.834
 2847TIP3   OH230099   4.883   6.329   6.800
 2847TIP3    H130100   4.858   6.416   6.770
 2847TIP3    H230101   4.955   6.303   6.743
 2848TIP3   OH230102   4.808   6.351   7.918
 2848TIP3    H130103   4.757   6.277   7.952
 2848TIP3    H230104   4.896   6.339   7.956
 2849TIP3   OH230105   4.993   6.276   7.050
 2849TIP3    H130106   4.942   6.312   6.978
 2849TIP3    H230107   5.043   6.205   7.010
 2850TIP3   OH230108   4.110   6.295   7.602
 2850TIP3    H130109   4.169   6.319   7.673
 2850TIP3    H230110   4.073   6.211   7.627
 2851TIP3   OH230111   3.767   6.051   6.985
 2851TIP3    H130112   3.830   6.035   7.056
 2851TIP3    H230113   3.808   6.011   6.908
 2852TIP3   OH230114   4.922   6.434   7.517
 2852TIP3    H130115   4.960   6.376   7.452
 2852TIP3    H230116   4.862   6.379   7.567
 2853TIP3   OH230117   4.644   6.042   7.029
 2853TIP3    H130118   4.555   6.037   7.062
 2853TIP3    H230119   4.697   5.995   7.093
 2854TIP3   OH230120   4.090   6.209   6.872
 2854TIP3    H130121   4.040   6.227   6.793
 2854TIP3    H230122   4.121   6.118   6.861
 2855TIP3   OH230123   5.032   5.980   7.344
 2855TIP3    H130124   4.983   5.989   7.425
 2855TIP3    H230125   4.972   5.936   7.284
 2856TIP3   OH230126   4.128   6.835   7.920
 2856TIP3    H130127   4.194   6.825   7.988
 2856TIP3    H230128   4.044   6.827   7.966
 2857TIP3   OH230129   4.702   6.358   7.206
 2857TIP3    H130130   4.757   6.301   7.152
 2857TIP3    H230131   4.672   6.302   7.278
 2858TIP3   OH230132   4.192   5.950   6.859
 2858TIP3    H130133   4.138   5.875   6.885
 2858TIP3    H230134   4.235   5.922   6.778
 2859TIP3   OH230135   4.594   6.216   7.423
 2859TIP3    H130136   4.505   6.248   7.435
 2859TIP3    H230137   4.638   6.239   7.506
 2860TIP3   OH230138   4.656   6.779   6.650
 2860TIP3    H130139   4.593   6.806   6.583
 2860TIP3    H230140   4.610   6.794   6.733
 2861TIP3   OH230141   5.358   6.728   7.456
 2861TIP3    H130142   5.398   6.791   7.396
 2861TIP3    H230143   5.276   6.703   7.415
 2862TIP3   OH230144   4.969   6.094   6.483
 2862TIP3    H130145   4.960   6.116   6.390
 2862TIP3    H230146   5.011   6.171   6.522
 2863TIP3   OH230147   4.826   6.825   7.750
 2863TIP3    H130148   4.850   6.768   7.823
 2863TIP3    H230149   4.792   6.904   7.791
 2864TIP3   OH230150   5.098   6.301   6.612
 2864TIP3    H130151   5.191   6.292   6.632
 2864TIP3    H230152   5.090   6.387   6.571
 2865TIP3   OH230153   4.175   6.744   7.176
 2865TIP3    H130154   4.216   6.723   7.092
 2865TIP3    H230155   4.206   6.675   7.235
 2866TIP3   OH230156   4.886   6.915   6.583
 2866TIP3    H130157   4.856   6.993   6.537
 2866TIP3    H230158   4.806   6.867   6.603
 2867TIP3   OH230159   3.870   6.574   7.723
 2867TIP3    H130160   3.855   6.519   7.800
 2867TIP3    H230161   3.805   6.544   7.659
 2868TIP3   OH230162   4.607   6.541   7.925
 2868TIP3    H130163   4.579   6.541   7.833
 2868TIP3    H230164   4.686   6.487   7.926
 2869TIP3   OH230165   4.998   7.103   7.721
 2869TIP3    H130166   4.902   7.096   7.728
 2869TIP3    H230167   5.028   7.106   7.812
 2870TIP3   OH230168   5.601   6.900   7.851
 2870TIP3    H130169   5.512   6.864   7.855
 2870TIP3    H230170   5.637   6.868   7.769
 2871TIP3   OH230171   5.418   7.152   6.677
 2871TIP3    H130172   5.356   7.106   6.733
 2871TIP3    H230173   5.377   7.151   6.590
 2872TIP3   OH230174   5.135   6.673   7.277
 2872TIP3    H130175   5.040   6.665   7.268
 2872TIP3    H230176   5.170   6.593   7.238
 2873TIP3   OH230177   4.446   7.087   6.960
 2873TIP3    H130178   4.495   7.166   6.937
 2873TIP3    H230179   4.355   7.116   6.966
 2874TIP3   OH230180   4.511   6.833   6.874
 2874TIP3    H130181   4.491   6.922   6.900
 2874TIP3    H230182   4.438   6.781   6.908
 2875TIP3   OH230183   4.615   7.217   7.509
 2875TIP3    H130184   4.674   7.292   7.514
 2875TIP3    H230185   4.658   7.148   7.560
 2876TIP3   OH230186   4.906   6.855   7.487
 2876TIP3    H130187   4.877   6.841   7.577
 2876TIP3    H230188   4.947   6.772   7.462
 2877TIP3   OH230189   5.136   6.972   6.457
 2877TIP3    H130190   5.185   6.915   6.515
 2877TIP3    H230191   5.045   6.960   6.482
 2878TIP3   OH230192   4.012   6.028   7.656
 2878TIP3    H130193   3.922   6.047   7.629
 2878TIP3    H230194   4.006   5.947   7.707
 2879TIP3   OH230195   5.258   6.818   6.638
 2879TIP3    H130196   5.220   6.745   6.686
 2879TIP3    H230197   5.348   6.823   6.669
 2880TIP3   OH230198   3.999   7.183   7.516
 2880TIP3    H130199   4.037   7.114   7.569
 2880TIP3    H230200   3.989   7.257   7.576
 2881TIP3   OH230201   4.886   6.021   7.580
 2881TIP3    H130202   4.962   6.042   7.635
 2881TIP3    H230203   4.856   5.936   7.612
 2882TIP3   OH230204   4.974   5.953   6.724
 2882TIP3    H130205   4.966   5.995   6.639
 2882TIP3    H230206   5.027   6.014   6.776
 2883TIP3   OH230207   4.700   7.268   6.616
 2883TIP3    H130208   4.640   7.212   6.566
 2883TIP3    H230209   4.783   7.261   6.569
 2884TIP3   OH230210   4.625   6.204   6.803
 2884TIP3    H130211   4.713   6.242   6.791
 2884TIP3    H230212   4.634   6.147   6.879
 2885TIP3   OH230213   4.753   6.262   7.650
 2885TIP3    H130214   4.773   6.279   7.742
 2885TIP3    H230215   4.793   6.176   7.633
 2886TIP3   OH230216   4.745   5.847   6.843
 2886TIP3    H130217   4.715   5.925   6.890
 2886TIP3    H230218   4.822   5.877   6.795
 2887TIP3   OH230219   4.438   0.074   6.461
 2887TIP3    H130220   4.491   0.143   6.499
 2887TIP3    H230221   4.453   7.301   6.518
 2888TIP3   OH230222   5.340   6.012   7.729
 2888TIP3    H130223   5.257   6.061   7.731
 2888TIP3    H230224   5.335   5.962   7.648
 2889TIP3   OH230225   5.205   6.427   7.167
 2889TIP3    H130226   5.126   6.383   7.135
 2889TIP3    H230227   5.249   6.362   7.221
 2890TIP3   OH230228   4.063   5.761   7.200
 2890TIP3    H130229   4.059   5.750   7.105
 2890TIP3    H230230   4.031   5.678   7.235
 2891TIP3   OH230231   3.904   7.214   6.781
 2891TIP3    H130232   3.814   7.185   6.791
 2891TIP3    H230233   3.945   7.148   6.726
 2892TIP3   OH230234   4.399   7.239   8.097
 2892TIP3    H130235   4.458   7.173   8.134
 2892TIP3    H230236   4.348   7.191   8.031
 2893TIP3   OH230237   4.839   7.124   6.413
 2893TIP3    H130238   4.744   7.127   6.406
 2893TIP3    H230239   4.868   7.081   6.332
 2894TIP3   OH230240   5.040   7.115   7.994
 2894TIP3    H130241   4.991   7.039   8.025
 2894TIP3    H230242   5.113   7.124   8.056
 2895TIP3   OH230243   5.300   7.185   6.415
 2895TIP3    H130244   5.248   7.105   6.420
 2895TIP3    H230245   5.246   7.245   6.364
 2896TIP3   OH230246   3.882   6.788   8.036
 2896TIP3    H130247   3.891   6.693   8.026
 2896TIP3    H230248   3.811   6.812   7.976
 2897TIP3   OH230249   4.545   6.804   7.995
 2897TIP3    H130250   4.532   6.847   7.911
 2897TIP3    H230251   4.578   6.717   7.973
 2898TIP3   OH230252   5.123   6.816   7.796
 2898TIP3    H130253   5.208   6.849   7.766
 2898TIP3    H230254   5.059   6.872   7.752
 2899TIP3   OH230255   3.966   6.523   8.001
 2899TIP3    H130256   4.046   6.518   7.949
 2899TIP3    H230257   3.996   6.524   8.092
 2900TIP3   OH230258   4.334   6.404   7.729
 2900TIP3    H130259   4.276   6.476   7.754
 2900TIP3    H230260   4.414   6.448   7.698
 2901TIP3   OH230261   4.900   6.653   8.037
 2901TIP3    H130262   4.976   6.615   7.994
 2901TIP3    H230263   4.866   6.582   8.092
 2902TIP3   OH230264   5.447   6.625   6.231
 2902TIP3    H130265   5.512   6.619   6.161
 2902TIP3    H230266   5.386   6.693   6.202
 2903TIP3   OH230267   4.428   6.165   7.825
 2903TIP3    H130268   4.441   6.104   7.752
 2903TIP3    H230269   4.403   6.248   7.783
 2904TIP3   OH230270   4.464   6.012   7.592
 2904TIP3    H130271   4.522   6.048   7.525
 2904TIP3    H230272   4.379   6.003   7.549
 2905TIP3   OH230273   4.563   6.536   7.650
 2905TIP3    H130274   4.645   6.502   7.616
 2905TIP3    H230275   4.540   6.607   7.590
 2906TIP3   OH230276   5.031   6.296   8.087
 2906TIP3    H130277   5.041   6.220   8.144
 2906TIP3    H230278   5.113   6.299   8.036
 2907TIP3   OH230279   5.144   6.578   7.928
 2907TIP3    H130280   5.151   6.663   7.883
 2907TIP3    H230281   5.231   6.564   7.965
 2908TIP3   OH230282   4.262   6.222   8.049
 2908TIP3    H130283   4.184   6.170   8.028
 2908TIP3    H230284   4.315   6.217   7.969
 2909TIP3   OH230285   4.515   5.747   7.669
 2909TIP3    H130286   4.498   5.838   7.643
 2909TIP3    H230287   4.449   5.696   7.623
 2910TIP3   OH230288   4.650   6.139   7.991
 2910TIP3    H130289   4.603   6.118   8.072
 2910TIP3    H230290   4.583   6.144   7.924
 2911TIP3   OH230291   4.916   6.068   7.904
 2911TIP3    H130292   4.830   6.069   7.946
 2911TIP3    H230293   4.973   6.025   7.967
 2912TIP3   OH230294   5.101   5.954   8.084
 2912TIP3    H130295   5.090   5.859   8.085
 2912TIP3    H230296   5.066   5.983   8.168
 2913TIP3   OH230297   4.049   6.047   8.004
 2913TIP3    H130298   4.053   5.978   7.937
 2913TIP3    H230299   4.058   6.001   8.087
 2914TIP3   OH230300   4.517   5.670   7.931
 2914TIP3    H130301   4.573   5.593   7.927
 2914TIP3    H230302   4.512   5.701   7.840
 2915TIP3   OH230303   4.585   5.830   8.146
 2915TIP3    H130304   4.570   5.775   8.070
 2915TIP3    H230305   4.533   5.909   8.130
 2916TIP3   OH230306   3.992   6.883   6.293
 2916TIP3    H130307   4.068   6.835   6.261
 2916TIP3    H230308   3.924   6.816   6.302
 2917TIP3   OH230309   5.370   6.968   8.101
 2917TIP3    H130310   5.301   6.969   8.168
 2917TIP3    H230311   5.430   7.039   8.127
 2918TIP3   OH230312   5.511   6.771   6.720
 2918TIP3    H130313   5.508   6.706   6.650
 2918TIP3    H230314   5.536   6.721   6.798
 2919TIP3   OH230315   5.581   6.597   6.916
 2919TIP3    H130316   5.497   6.552   6.927
 2919TIP3    H230317   5.647   6.527   6.920
 2920TIP3   OH230318   5.582   6.865   7.306
 2920TIP3    H130319   5.633   6.784   7.307
 2920TIP3    H230320   5.529   6.860   7.227
 2921TIP3   OH230321   5.347   7.170   7.569
 2921TIP3    H130322   5.280   7.119   7.614
 2921TIP3    H230323   5.334   7.151   7.476
 2922TIP3   OH230324   5.514   6.593   6.508
 2922TIP3    H130325   5.492   6.601   6.416
 2922TIP3    H230326   5.520   6.498   6.523
 2923TIP3   OH230327   5.346   6.449   6.933
 2923TIP3    H130328   5.391   6.364   6.931
 2923TIP3    H230329   5.297   6.448   7.015
 2924TIP3   OH230330   3.844   6.622   7.306
 2924TIP3    H130331   3.859   6.610   7.212
 2924TIP3    H230332   3.927   6.599   7.347
 2925TIP3   OH230333   5.456   6.648   7.811
 2925TIP3    H130334   5.487   6.563   7.780
 2925TIP3    H230335   5.446   6.637   7.906
 2926TIP3   OH230336   5.574   6.391   7.865
 2926TIP3    H130337   5.544   6.432   7.946
 2926TIP3    H230338   5.631   6.319   7.893
 2927TIP3   OH230339   5.358   6.241   7.307
 2927TIP3    H130340   5.450   6.262   7.291
 2927TIP3    H230341   5.347   6.253   7.401
 2928TIP3   OH230342   5.389   6.322   7.573
 2928TIP3    H130343   5.308   6.350   7.616
 2928TIP3    H230344   5.442   6.402   7.568
 2929TIP3   OH230345   3.820   6.157   7.892
 2929TIP3    H130346   3.906   6.138   7.930
 2929TIP3    H230347   3.771   6.075   7.899
 2930TIP3   OH230348   5.617   5.753   8.075
 2930TIP3    H130349   5.685   5.689   8.057
 2930TIP3    H230350   5.623   5.815   8.002
 2931TIP3   OH230351   3.926   6.001   7.223
 2931TIP3    H130352   3.964   5.914   7.221
 2931TIP3    H230353   4.000   6.060   7.238
 2932TIP3   OH230354   3.766   6.308   7.292
 2932TIP3    H130355   3.831   6.278   7.228
 2932TIP3    H230356   3.795   6.396   7.316
 2933TIP3   OH230357   5.552   5.964   7.900
 2933TIP3    H130358   5.493   5.985   7.971
 2933TIP3    H230359   5.495   5.949   7.824
 2934TIP3   OH230360   3.775   5.939   6.707
 2934TIP3    H130361   3.681   5.933   6.721
 2934TIP3    H230362   3.802   5.849   6.685
 2935TIP3   OH230363   3.806   5.796   7.574
 2935TIP3    H130364   3.729   5.766   7.624
 2935TIP3    H230365   3.769   5.845   7.501
 2936TIP3   OH230366   4.011   7.169   7.964
 2936TIP3    H130367   3.919   7.155   7.940
 2936TIP3    H230368   4.019   7.131   8.052
 2937TIP3   OH230369   4.348   7.260   7.585
 2937TIP3    H130370   4.305   7.291   7.505
 2937TIP3    H230371   4.431   7.223   7.556
 2938TIP3   OH230372   5.452   5.696   7.718
 2938TIP3    H130373   5.375   5.705   7.662
 2938TIP3    H230374   5.486   5.609   7.700
 2939TIP3   OH230375   4.222   7.196   7.103
 2939TIP3    H130376   4.202   7.127   7.166
 2939TIP3    H230377   4.302   7.237   7.137
 2940TIP3   OH230378   4.802   5.865   7.181
 2940TIP3    H130379   4.739   5.794   7.194
 2940TIP3    H230380   4.874   5.825   7.134
 2941TIP3   OH230381   5.285   5.724   7.204
 2941TIP3    H130382   5.351   5.760   7.144
 2941TIP3    H230383   5.202   5.741   7.161
 2942TIP3   OH230384   5.470   5.794   7.012
 2942TIP3    H130385   5.542   5.747   6.970
 2942TIP3    H230386   5.492   5.886   7.000
 2943TIP3   OH230387   4.037   5.730   6.927
 2943TIP3    H130388   3.945   5.710   6.908
 2943TIP3    H230389   4.083   5.647   6.913
 2944TIP3   OH230390   4.520   5.713   6.945
 2944TIP3    H130391   4.592   5.754   6.897
 2944TIP3    H230392   4.553   5.705   7.035
 2945TIP3   OH230393   5.031   5.746   7.076
 2945TIP3    H130394   5.044   5.737   6.982
 2945TIP3    H230395   5.011   5.657   7.106
 2946TIP3   OH230396   5.198   5.791   6.669
 2946TIP3    H130397   5.117   5.837   6.688
 2946TIP3    H230398   5.176   5.698   6.676
 2947TIP3   OH230399   4.159   5.847   6.356
 2947TIP3    H130400   4.075   5.805   6.339
 2947TIP3    H230401   4.223   5.775   6.349
 2948TIP3   OH230402   4.051   5.796   7.863
 2948TIP3    H130403   3.993   5.730   7.901
 2948TIP3    H230404   4.136   5.779   7.904
 2949TIP3   OH230405   4.260   5.719   8.027
 2949TIP3    H130406   4.348   5.697   7.998
 2949TIP3    H230407   4.231   5.641   8.076
 2950TIP3   OH230408   5.105   5.675   8.072
 2950TIP3    H130409   5.099   5.627   8.155
 2950TIP3    H230410   5.197   5.665   8.046
 2951TIP3   OH230411   5.413   7.266   7.933
 2951TIP3    H130412   5.342   7.202   7.931
 2951TIP3    H230413   5.405   0.009   7.850
 2952TIP3   OH230414   6.855   6.665   6.898
 2952TIP3    H130415   6.822   6.755   6.887
 2952TIP3    H230416   6.794   6.624   6.959
 2953TIP3   OH230417   6.697   6.583   7.281
 2953TIP3    H130418   6.725   6.545   7.364
 2953TIP3    H230419   6.656   6.510   7.234
 2954TIP3   OH230420   5.957   6.549   7.438
 2954TIP3    H130421   5.954   6.470   7.492
 2954TIP3    H230422   6.050   6.559   7.416
 2955TIP3   OH230423   7.089   6.897   7.157
 2955TIP3    H130424   7.050   6.824   7.205
 2955TIP3    H230425   7.112   6.961   7.225
 2956TIP3   OH230426   6.100   6.941   7.291
 2956TIP3    H130427   6.084   6.856   7.251
 2956TIP3    H230428   6.195   6.953   7.283
 2957TIP3   OH230429   6.578   6.839   7.313
 2957TIP3    H130430   6.605   6.754   7.278
 2957TIP3    H230431   6.651   6.867   7.369
 2958TIP3   OH230432   6.884   6.255   7.332
 2958TIP3    H130433   6.889   6.160   7.345
 2958TIP3    H230434   6.876   6.265   7.237
 2959TIP3   OH230435   6.232   6.078   7.042
 2959TIP3    H130436   6.243   6.158   6.989
 2959TIP3    H230437   6.183   6.018   6.985
 2960TIP3   OH230438   7.023   6.092   6.909
 2960TIP3    H130439   7.041   6.052   6.995
 2960TIP3    H230440   7.073   6.038   6.847
 2961TIP3   OH230441   5.854   6.340   7.179
 2961TIP3    H130442   5.929   6.282   7.196
 2961TIP3    H230443   5.853   6.351   7.084
 2962TIP3   OH230444   6.342   6.457   7.096
 2962TIP3    H130445   6.426   6.423   7.125
 2962TIP3    H230446   6.314   6.395   7.028
 2963TIP3   OH230447   6.091   5.992   7.474
 2963TIP3    H130448   6.063   6.042   7.397
 2963TIP3    H230449   6.017   6.000   7.535
 2964TIP3   OH230450   6.738   6.907   6.856
 2964TIP3    H130451   6.761   6.917   6.763
 2964TIP3    H230452   6.726   6.997   6.887
 2965TIP3   OH230453   6.357   6.752   7.458
 2965TIP3    H130454   6.304   6.821   7.496
 2965TIP3    H230455   6.425   6.799   7.410
 2966TIP3   OH230456   7.080   5.995   7.155
 2966TIP3    H130457   7.007   5.974   7.214
 2966TIP3    H230458   7.143   6.041   7.211
 2967TIP3   OH230459   6.061   6.158   7.247
 2967TIP3    H130460   6.120   6.207   7.303
 2967TIP3    H230461   6.118   6.122   7.178
 2968TIP3   OH230462   6.207   6.953   7.581
 2968TIP3    H130463   6.216   7.048   7.571
 2968TIP3    H230464   6.114   6.940   7.601
 2969TIP3   OH230465   7.121   7.099   7.353
 2969TIP3    H130466   7.028   7.116   7.372
 2969TIP3    H230467   7.148   7.174   7.299
 2970TIP3   OH230468   7.138   5.920   7.470
 2970TIP3    H130469   7.047   5.932   7.443
 2970TIP3    H230470   7.187   5.984   7.419
 2971TIP3   OH230471   6.446   5.681   7.219
 2971TIP3    H130472   6.423   5.588   7.222
 2971TIP3    H230473   6.367   5.726   7.250
 2972TIP3   OH230474   6.965   7.229   6.939
 2972TIP3    H130475   7.014   7.147   6.930
 2972TIP3    H230476   7.018   7.295   6.895
 2973TIP3   OH230477   7.116   6.992   6.900
 2973TIP3    H130478   7.192   6.943   6.868
 2973TIP3    H230479   7.099   6.956   6.987
 2974TIP3   OH230480   7.222   6.882   7.738
 2974TIP3    H130481   7.228   6.826   7.661
 2974TIP3    H230482   7.231   6.971   7.704
 2975TIP3   OH230483   7.094   6.612   6.772
 2975TIP3    H130484   7.022   6.645   6.826
 2975TIP3    H230485   7.141   6.552   6.829
 2976TIP3   OH230486   7.005   6.452   7.659
 2976TIP3    H130487   7.015   6.541   7.694
 2976TIP3    H230488   6.929   6.459   7.601
 2977TIP3   OH230489   6.213   6.655   6.940
 2977TIP3    H130490   6.172   6.617   6.863
 2977TIP3    H230491   6.261   6.583   6.981
 2978TIP3   OH230492   6.363   7.004   7.236
 2978TIP3    H130493   6.368   7.034   7.145
 2978TIP3    H230494   6.444   6.955   7.250
 2979TIP3   OH230495   6.219   6.549   7.331
 2979TIP3    H130496   6.267   6.526   7.251
 2979TIP3    H230497   6.271   6.618   7.371
 2980TIP3   OH230498   6.862   7.120   7.445
 2980TIP3    H130499   6.866   7.147   7.536
 2980TIP3    H230500   6.838   7.027   7.448
 2981TIP3   OH230501   6.353   6.948   7.811
 2981TIP3    H130502   6.291   7.009   7.851
 2981TIP3    H230503   6.312   6.925   7.727
 2982TIP3   OH230504   6.958   6.559   6.545
 2982TIP3    H130505   7.015   6.579   6.619
 2982TIP3    H230506   7.018   6.529   6.477
 2983TIP3   OH230507   6.038   6.584   7.761
 2983TIP3    H130508   6.045   6.668   7.807
 2983TIP3    H230509   5.949   6.582   7.727
 2984TIP3   OH230510   6.696   7.181   6.890
 2984TIP3    H130511   6.785   7.205   6.915
 2984TIP3    H230512   6.690   7.203   6.797
 2985TIP3   OH230513   6.163   7.138   7.875
 2985TIP3    H130514   6.151   7.177   7.788
 2985TIP3    H230515   6.074   7.130   7.909
 2986TIP3   OH230516   6.098   6.555   6.710
 2986TIP3    H130517   6.138   6.568   6.624
 2986TIP3    H230518   6.042   6.478   6.699
 2987TIP3   OH230519   5.724   6.819   7.614
 2987TIP3    H130520   5.679   6.806   7.530
 2987TIP3    H230521   5.744   6.731   7.644
 2988TIP3   OH230522   5.714   7.115   7.310
 2988TIP3    H130523   5.661   7.035   7.312
 2988TIP3    H230524   5.666   7.177   7.364
 2989TIP3   OH230525   6.595   7.071   7.787
 2989TIP3    H130526   6.577   7.149   7.840
 2989TIP3    H230527   6.512   7.023   7.787
 2990TIP3   OH230528   7.157   6.357   7.936
 2990TIP3    H130529   7.133   6.331   7.847
 2990TIP3    H230530   7.241   6.313   7.952
 2991TIP3   OH230531   5.944   6.976   7.682
 2991TIP3    H130532   5.972   6.937   7.764
 2991TIP3    H230533   5.865   6.928   7.657
 2992TIP3   OH230534   6.201   5.790   7.311
 2992TIP3    H130535   6.124   5.780   7.256
 2992TIP3    H230536   6.178   5.862   7.371
 2993TIP3   OH230537   6.669   5.764   7.655
 2993TIP3    H130538   6.717   5.712   7.720
 2993TIP3    H230539   6.577   5.752   7.677
 2994TIP3   OH230540   7.017   6.189   7.753
 2994TIP3    H130541   6.940   6.160   7.800
 2994TIP3    H230542   6.991   6.271   7.712
 2995TIP3   OH230543   6.211   6.297   7.438
 2995TIP3    H130544   6.140   6.299   7.503
 2995TIP3    H230545   6.215   6.387   7.406
 2996TIP3   OH230546   6.259   6.303   6.880
 2996TIP3    H130547   6.202   6.313   6.804
 2996TIP3    H230548   6.343   6.277   6.843
 2997TIP3   OH230549   6.784   6.395   6.837
 2997TIP3    H130550   6.847   6.460   6.807
 2997TIP3    H230551   6.771   6.337   6.761
 2998TIP3   OH230552   6.680   6.348   7.915
 2998TIP3    H130553   6.633   6.274   7.953
 2998TIP3    H230554   6.765   6.348   7.959
 2999TIP3   OH230555   6.894   6.284   7.060
 2999TIP3    H130556   6.840   6.330   6.995
 2999TIP3    H230557   6.936   6.214   7.010
 3000TIP3   OH230558   5.988   6.314   7.599
 3000TIP3    H130559   5.981   6.359   7.684
 3000TIP3    H230560   5.948   6.228   7.615
 3001TIP3   OH230561   6.775   6.436   7.501
 3001TIP3    H130562   6.818   6.377   7.439
 3001TIP3    H230563   6.722   6.379   7.556
 3002TIP3   OH230564   6.529   6.070   7.046
 3002TIP3    H130565   6.437   6.057   7.067
 3002TIP3    H230566   6.576   6.003   7.096
 3003TIP3   OH230567   6.878   5.974   7.355
 3003TIP3    H130568   6.837   5.986   7.441
 3003TIP3    H230569   6.808   5.938   7.300
 3004TIP3   OH230570   6.161   6.410   6.467
 3004TIP3    H130571   6.146   6.319   6.440
 3004TIP3    H230572   6.205   6.450   6.392
 3005TIP3   OH230573   6.020   6.828   7.909
 3005TIP3    H130574   6.086   6.821   7.978
 3005TIP3    H230575   5.936   6.823   7.955
 3006TIP3   OH230576   6.574   6.340   7.199
 3006TIP3    H130577   6.605   6.272   7.139
 3006TIP3    H230578   6.547   6.292   7.277
 3007TIP3   OH230579   6.082   5.942   6.854
 3007TIP3    H130580   6.027   5.870   6.882
 3007TIP3    H230581   6.059   5.956   6.762
 3008TIP3   OH230582   6.475   6.216   7.430
 3008TIP3    H130583   6.387   6.252   7.440
 3008TIP3    H230584   6.521   6.242   7.510
 3009TIP3   OH230585   6.526   6.762   6.562
 3009TIP3    H130586   6.483   6.767   6.476
 3009TIP3    H230587   6.457   6.787   6.624
 3010TIP3   OH230588   7.177   6.743   7.496
 3010TIP3    H130589   7.254   6.721   7.445
 3010TIP3    H230590   7.103   6.726   7.438
 3011TIP3   OH230591   6.746   6.830   7.764
 3011TIP3    H130592   6.724   6.777   7.841
 3011TIP3    H230593   6.697   6.911   7.778
 3012TIP3   OH230594   6.049   6.712   7.159
 3012TIP3    H130595   6.098   6.695   7.078
 3012TIP3    H230596   6.062   6.633   7.212
 3013TIP3   OH230597   6.748   6.937   6.579
 3013TIP3    H130598   6.705   7.022   6.583
 3013TIP3    H230599   6.678   6.875   6.562
 3014TIP3   OH230600   5.764   6.563   7.714
 3014TIP3    H130601   5.742   6.532   7.802
 3014TIP3    H230602   5.692   6.534   7.659
 3015TIP3   OH230603   6.463   6.523   7.951
 3015TIP3    H130604   6.397   6.490   7.889
 3015TIP3    H230605   6.544   6.477   7.925
 3016TIP3   OH230606   6.838   7.169   7.717
 3016TIP3    H130607   6.755   7.123   7.732
 3016TIP3    H230608   6.887   7.156   7.798
 3017TIP3   OH230609   6.971   6.679   7.306
 3017TIP3    H130610   6.879   6.663   7.282
 3017TIP3    H230611   7.019   6.609   7.263
 3018TIP3   OH230612   6.300   7.109   6.973
 3018TIP3    H130613   6.357   7.175   6.935
 3018TIP3    H230614   6.312   7.032   6.918
 3019TIP3   OH230615   5.913   6.551   6.429
 3019TIP3    H130616   5.998   6.566   6.387
 3019TIP3    H230617   5.915   6.458   6.454
 3020TIP3   OH230618   6.365   6.871   6.844
 3020TIP3    H130619   6.452   6.846   6.876
 3020TIP3    H230620   6.308   6.798   6.872
 3021TIP3   OH230621   6.498   7.243   7.470
 3021TIP3    H130622   6.556   0.006   7.509
 3021TIP3    H230623   6.548   7.162   7.476
 3022TIP3   OH230624   6.796   6.853   7.485
 3022TIP3    H130625   6.783   6.833   7.578
 3022TIP3    H230626   6.867   6.795   7.458
 3023TIP3   OH230627   5.871   6.058   7.642
 3023TIP3    H130628   5.782   6.089   7.624
 3023TIP3    H230629   5.859   5.976   7.688
 3024TIP3   OH230630   5.927   7.200   7.509
 3024TIP3    H130631   5.929   7.140   7.583
 3024TIP3    H230632   5.857   7.262   7.531
 3025TIP3   OH230633   6.252   7.114   6.474
 3025TIP3    H130634   6.288   7.027   6.456
 3025TIP3    H230635   6.311   7.150   6.541
 3026TIP3   OH230636   6.778   6.009   7.612
 3026TIP3    H130637   6.815   6.023   7.699
 3026TIP3    H230638   6.733   5.924   7.618
 3027TIP3   OH230639   6.626   7.183   6.606
 3027TIP3    H130640   6.540   7.215   6.634
 3027TIP3    H230641   6.633   7.210   6.514
 3028TIP3   OH230642   6.501   6.214   6.799
 3028TIP3    H130643   6.572   6.225   6.737
 3028TIP3    H230644   6.540   6.167   6.873
 3029TIP3   OH230645   6.640   6.254   7.652
 3029TIP3    H130646   6.651   6.280   7.743
 3029TIP3    H230647   6.680   6.168   7.646
 3030TIP3   OH230648   6.378   7.301   6.640
 3030TIP3    H130649   6.354   0.064   6.576
 3030TIP3    H230650   6.383   0.045   6.723
 3031TIP3   OH230651   7.232   6.018   7.717
 3031TIP3    H130652   7.170   6.088   7.740
 3031TIP3    H230653   7.200   5.986   7.633
 3032TIP3   OH230654   7.080   6.454   7.184
 3032TIP3    H130655   7.013   6.395   7.148
 3032TIP3    H230656   7.132   6.399   7.243
 3033TIP3   OH230657   5.946   5.771   7.201
 3033TIP3    H130658   5.936   5.763   7.106
 3033TIP3    H230659   5.913   5.687   7.235
 3034TIP3   OH230660   5.826   7.211   6.839
 3034TIP3    H130661   5.742   7.168   6.856
 3034TIP3    H230662   5.884   7.140   6.812
 3035TIP3   OH230663   6.293   7.244   8.092
 3035TIP3    H130664   6.349   7.179   8.134
 3035TIP3    H230665   6.248   7.196   8.022
 3036TIP3   OH230666   6.592   7.272   6.351
 3036TIP3    H130667   6.542   7.254   6.271
 3036TIP3    H230668   6.624   0.058   6.339
 3037TIP3   OH230669   6.911   7.099   7.981
 3037TIP3    H130670   6.855   7.033   8.022
 3037TIP3    H230671   6.999   7.062   7.984
 3038TIP3   OH230672   5.779   6.805   8.040
 3038TIP3    H130673   5.778   6.710   8.033
 3038TIP3    H230674   5.706   6.834   7.985
 3039TIP3   OH230675   6.443   6.793   8.017
 3039TIP3    H130676   6.422   6.835   7.934
 3039TIP3    H230677   6.462   6.702   7.994
 3040TIP3   OH230678   6.998   6.713   7.761
 3040TIP3    H130679   7.069   6.776   7.745
 3040TIP3    H230680   6.918   6.765   7.757
 3041TIP3   OH230681   5.848   6.535   8.001
 3041TIP3    H130682   5.926   6.495   7.962
 3041TIP3    H230683   5.860   6.524   8.096
 3042TIP3   OH230684   6.274   6.433   7.760
 3042TIP3    H130685   6.195   6.487   7.754
 3042TIP3    H230686   6.332   6.468   7.692
 3043TIP3   OH230687   6.780   6.650   8.043
 3043TIP3    H130688   6.872   6.626   8.029
 3043TIP3    H230689   6.747   6.584   8.104
 3044TIP3   OH230690   6.321   6.170   7.826
 3044TIP3    H130691   6.323   6.113   7.750
 3044TIP3    H230692   6.306   6.258   7.791
 3045TIP3   OH230693   6.339   6.015   7.590
 3045TIP3    H130694   6.393   6.058   7.524
 3045TIP3    H230695   6.252   6.010   7.551
 3046TIP3   OH230696   6.462   6.535   7.592
 3046TIP3    H130697   6.556   6.533   7.576
 3046TIP3    H230698   6.431   6.614   7.546
 3047TIP3   OH230699   6.908   6.307   8.076
 3047TIP3    H130700   6.915   6.228   8.129
 3047TIP3    H230701   6.995   6.317   8.037
 3048TIP3   OH230702   7.055   6.601   8.004
 3048TIP3    H130703   7.044   6.643   7.918
 3048TIP3    H230704   7.095   6.517   7.984
 3049TIP3   OH230705   6.154   6.221   8.049
 3049TIP3    H130706   6.074   6.170   8.034
 3049TIP3    H230707   6.202   6.216   7.967
 3050TIP3   OH230708   6.393   5.750   7.666
 3050TIP3    H130709   6.373   5.841   7.642
 3050TIP3    H230710   6.326   5.698   7.621
 3051TIP3   OH230711   6.541   6.125   7.989
 3051TIP3    H130712   6.499   6.100   8.071
 3051TIP3    H230713   6.469   6.134   7.927
 3052TIP3   OH230714   6.806   6.063   7.885
 3052TIP3    H130715   6.720   6.069   7.927
 3052TIP3    H230716   6.861   6.021   7.951
 3053TIP3   OH230717   6.985   5.949   8.076
 3053TIP3    H130718   6.966   5.856   8.083
 3053TIP3    H230719   6.946   5.988   8.154
 3054TIP3   OH230720   5.953   6.033   7.995
 3054TIP3    H130721   5.950   5.960   7.933
 3054TIP3    H230722   5.957   5.991   8.081
 3055TIP3   OH230723   6.402   5.665   7.926
 3055TIP3    H130724   6.455   5.586   7.915
 3055TIP3    H230725   6.393   5.699   7.837
 3056TIP3   OH230726   6.469   5.820   8.148
 3056TIP3    H130727   6.453   5.767   8.070
 3056TIP3    H230728   6.413   5.896   8.137
 3057TIP3   OH230729   7.236   7.127   7.610
 3057TIP3    H130730   7.262   7.219   7.601
 3057TIP3    H230731   7.203   7.103   7.523
 3058TIP3   OH230732   7.209   6.416   6.932
 3058TIP3    H130733   7.221   6.321   6.944
 3058TIP3    H230734   7.182   6.447   7.018
 3059TIP3   OH230735   5.723   6.628   7.318
 3059TIP3    H130736   5.722   6.565   7.246
 3059TIP3    H230737   5.807   6.612   7.362
 3060TIP3   OH230738   7.265   6.113   7.323
 3060TIP3    H130739   0.039   6.080   7.278
 3060TIP3    H230740   7.281   6.206   7.335
 3061TIP3   OH230741   7.269   6.361   7.611
 3061TIP3    H130742   7.176   6.386   7.612
 3061TIP3    H230743   7.292   6.359   7.518
 3062TIP3   OH230744   5.723   6.175   7.953
 3062TIP3    H130745   5.810   6.136   7.962
 3062TIP3    H230746   5.664   6.100   7.941
 3063TIP3   OH230747   7.214   5.909   6.802
 3063TIP3    H130748   7.257   5.833   6.842
 3063TIP3    H230749   7.149   5.871   6.743
 3064TIP3   OH230750   5.817   6.007   7.282
 3064TIP3    H130751   5.851   5.921   7.257
 3064TIP3    H230752   5.887   6.068   7.261
 3065TIP3   OH230753   5.623   6.320   7.320
 3065TIP3    H130754   5.705   6.322   7.272
 3065TIP3    H230755   5.649   6.300   7.410
 3066TIP3   OH230756   5.683   5.777   7.574
 3066TIP3    H130757   5.609   5.757   7.631
 3066TIP3    H230758   5.647   5.834   7.507
 3067TIP3   OH230759   5.915   7.156   8.002
 3067TIP3    H130760   5.833   7.166   7.954
 3067TIP3    H230761   5.890   7.111   8.083
 3068TIP3   OH230762   6.239   7.235   7.571
 3068TIP3    H130763   6.182   7.274   7.505
 3068TIP3    H230764   6.326   7.233   7.530
 3069TIP3   OH230765   6.100   7.206   7.148
 3069TIP3    H130766   6.162   7.156   7.096
 3069TIP3    H230767   6.155   7.261   7.204
 3070TIP3   OH230768   6.674   5.861   7.183
 3070TIP3    H130769   6.608   5.792   7.192
 3070TIP3    H230770   6.748   5.818   7.140
 3071TIP3   OH230771   7.180   5.701   7.173
 3071TIP3    H130772   7.237   5.759   7.121
 3071TIP3    H230773   7.092   5.732   7.155
 3072TIP3   OH230774   5.920   5.730   6.930
 3072TIP3    H130775   5.830   5.720   6.897
 3072TIP3    H230776   5.961   5.646   6.914
 3073TIP3   OH230777   5.783   5.845   6.627
 3073TIP3    H130778   5.821   5.889   6.551
 3073TIP3    H230779   5.763   5.757   6.597
 3074TIP3   OH230780   6.416   5.718   6.926
 3074TIP3    H130781   6.422   5.813   6.923
 3074TIP3    H230782   6.431   5.696   7.018
 3075TIP3   OH230783   6.903   5.727   7.091
 3075TIP3    H130784   6.928   5.702   7.002
 3075TIP3    H230785   6.877   5.645   7.132
 3076TIP3   OH230786   7.030   5.770   6.657
 3076TIP3    H130787   7.032   5.738   6.567
 3076TIP3    H230788   7.000   5.695   6.708
 3077TIP3   OH230789   5.940   5.781   7.871
 3077TIP3    H130790   5.879   5.717   7.908
 3077TIP3    H230791   6.023   5.762   7.915
 3078TIP3   OH230792   6.148   5.703   8.035
 3078TIP3    H130793   6.235   5.682   8.002
 3078TIP3    H230794   6.121   5.624   8.082
 3079TIP3   OH230795   6.984   5.670   8.069
 3079TIP3    H130796   6.974   5.614   8.147
 3079TIP3    H230797   7.077   5.666   8.048
 3080TIP3   OH230798   7.204   7.249   7.948
 3080TIP3    H130799   7.202   7.206   7.862
 3080TIP3    H230800   7.289   7.293   7.950
 3081TIP3   OH230801   1.073   0.785   8.234
 3081TIP3    H130802   1.128   0.815   8.307
 3081TIP3    H230803   1.128   0.722   8.188
 3082TIP3   OH230804   1.276   0.867   8.408
 3082TIP3    H130805   1.317   0.920   8.476
 3082TIP3    H230806   1.323   0.890   8.328
 3083TIP3   OH230807   1.703   0.034   8.391
 3083TIP3    H130808   1.645   0.049   8.465
 3083TIP3    H230809   1.723   0.122   8.358
 3084TIP3   OH230810   1.774   1.489   8.241
 3084TIP3    H130811   1.793   1.579   8.269
 3084TIP3    H230812   1.860   1.449   8.232
 3085TIP3   OH230813   1.314   1.724   8.326
 3085TIP3    H130814   1.362   1.659   8.275
 3085TIP3    H230815   1.353   1.718   8.414
 3086TIP3   OH230816   1.419   0.946   8.191
 3086TIP3    H130817   1.408   0.954   8.097
 3086TIP3    H230818   1.512   0.964   8.206
 3087TIP3   OH230819   0.979   0.381   8.344
 3087TIP3    H130820   0.971   0.353   8.435
 3087TIP3    H230821   0.939   0.311   8.293
 3088TIP3   OH230822   0.644   0.373   8.148
 3088TIP3    H130823   0.605   0.354   8.233
 3088TIP3    H230824   0.586   0.438   8.108
 3089TIP3   OH230825   0.121   0.520   8.482
 3089TIP3    H130826   0.118   0.512   8.387
 3089TIP3    H230827   0.043   0.474   0.013
 3090TIP3   OH230828   0.526   0.714   8.249
 3090TIP3    H130829   0.513   0.660   8.171
 3090TIP3    H230830   0.620   0.733   8.249
 3091TIP3   OH230831   1.252   0.422   8.350
 3091TIP3    H130832   1.156   0.414   8.350
 3091TIP3    H230833   1.270   0.489   8.415
 3092TIP3   OH230834   1.310   0.625   0.039
 3092TIP3    H130835   1.403   0.625   0.061
 3092TIP3    H230836   1.298   0.704   8.486
 3093TIP3   OH230837   1.101   1.295   8.405
 3093TIP3    H130838   1.040   1.369   8.400
 3093TIP3    H230839   1.101   1.269   8.497
 3094TIP3   OH230840   1.785   0.667   8.416
 3094TIP3    H130841   1.739   0.657   8.332
 3094TIP3    H230842   1.833   0.749   8.407
 3095TIP3   OH230843   0.160   0.930   8.277
 3095TIP3    H130844   0.198   0.999   8.330
 3095TIP3    H230845   0.067   0.953   8.270
 3096TIP3   OH230846   1.391   1.327   8.360
 3096TIP3    H130847   1.401   1.330   8.455
 3096TIP3    H230848   1.299   1.306   8.346
 3097TIP3   OH230849   1.838   1.748   8.320
 3097TIP3    H130850   1.910   1.812   8.328
 3097TIP3    H230851   1.761   1.797   8.349
 3098TIP3   OH230852   0.809   1.377   8.124
 3098TIP3    H130853   0.773   1.295   8.091
 3098TIP3    H230854   0.769   1.389   8.210
 3099TIP3   OH230855   0.645   1.413   8.364
 3099TIP3    H130856   0.644   1.346   8.433
 3099TIP3    H230857   0.656   1.495   8.410
 3100TIP3   OH230858   0.300   1.097   8.435
 3100TIP3    H130859   0.315   1.111   0.029
 3100TIP3    H230860   0.334   1.176   8.393
 3101TIP3   OH230861   0.943   1.528   8.378
 3101TIP3    H130862   0.855   1.561   8.396
 3101TIP3    H230863   0.997   1.562   8.449
 3102TIP3   OH230864   0.712   1.665   8.465
 3102TIP3    H130865   0.721   1.740   8.406
 3102TIP3    H230866   0.730   1.701   0.052
 3103TIP3   OH230867   0.527   0.316   8.399
 3103TIP3    H130868   0.477   0.277   8.470
 3103TIP3    H230869   0.600   0.360   8.443
 3104TIP3   OH230870   0.390   1.313   8.284
 3104TIP3    H130871   0.458   1.375   8.310
 3104TIP3    H230872   0.435   1.249   8.228
 3105TIP3   OH230873   0.188   0.632   8.206
 3105TIP3    H130874   0.106   0.669   8.174
 3105TIP3    H230875   0.209   0.562   8.144
 3106TIP3   OH230876   1.046   1.580   8.131
 3106TIP3    H130877   1.003   1.553   8.213
 3106TIP3    H230878   1.139   1.569   8.148
 3107TIP3   OH230879   1.444   1.553   8.154
 3107TIP3    H130880   1.482   1.493   8.218
 3107TIP3    H230881   1.514   1.571   8.092
 3108TIP3   OH230882   0.526   1.113   8.156
 3108TIP3    H130883   0.560   1.064   8.231
 3108TIP3    H230884   0.601   1.124   8.098
 3109TIP3   OH230885   1.121   1.243   8.138
 3109TIP3    H130886   1.112   1.242   8.233
 3109TIP3    H230887   1.126   1.151   8.114
 3110TIP3   OH230888   0.664   0.974   8.361
 3110TIP3    H130889   0.699   0.933   8.440
 3110TIP3    H230890   0.708   0.928   8.289
 3111TIP3   OH230891   0.797   0.794   8.206
 3111TIP3    H130892   0.792   0.818   8.113
 3111TIP3    H230893   0.891   0.778   8.221
 3112TIP3   OH230894   1.685   1.035   8.196
 3112TIP3    H130895   1.694   1.000   8.107
 3112TIP3    H230896   1.663   1.127   8.184
 3113TIP3   OH230897   0.789   1.885   8.319
 3113TIP3    H130898   0.884   1.872   8.316
 3113TIP3    H230899   0.773   1.953   8.254
 3114TIP3   OH230900   0.113   1.321   8.235
 3114TIP3    H130901   0.208   1.322   8.250
 3114TIP3    H230902   0.102   1.263   8.160
 3115TIP3   OH230903   1.876   0.919   8.360
 3115TIP3    H130904   1.818   0.945   8.289
 3115TIP3    H230905   1.849   0.973   8.434
 3116TIP3   OH230906   1.647   0.664   8.176
 3116TIP3    H130907   1.631   0.697   8.088
 3116TIP3    H230908   1.635   0.569   8.169
 3117TIP3   OH230909   1.602   0.403   8.121
 3117TIP3    H130910   1.655   0.345   8.175
 3117TIP3    H230911   1.519   0.357   8.111
 3118TIP3   OH230912   1.792   0.273   8.280
 3118TIP3    H130913   1.840   0.218   8.218
 3118TIP3    H230914   1.856   0.338   8.309
 3119TIP3   OH230915   0.101   0.150   8.370
 3119TIP3    H130916   0.175   0.181   8.318
 3119TIP3    H230917   0.121   0.176   8.459
 3120TIP3   OH230918   0.328   0.231   8.231
 3120TIP3    H130919   0.374   0.178   8.166
 3120TIP3    H230920   0.397   0.263   8.289
 3121TIP3   OH230921   1.054   1.829   8.277
 3121TIP3    H130922   1.141   1.822   8.317
 3121TIP3    H230923   1.047   1.751   8.221
 3122TIP3   OH230924   0.341   1.762   8.234
 3122TIP3    H130925   0.333   1.763   8.329
 3122TIP3    H230926   0.414   1.703   8.216
 3123TIP3   OH230927   2.974   0.778   8.259
 3123TIP3    H130928   3.020   0.789   8.342
 3123TIP3    H230929   3.030   0.719   8.209
 3124TIP3   OH230930   3.202   0.845   8.416
 3124TIP3    H130931   3.236   0.906   8.481
 3124TIP3    H230932   3.227   0.883   8.332
 3125TIP3   OH230933   3.533   0.053   8.427
 3125TIP3    H130934   3.485   0.009   8.358
 3125TIP3    H230935   3.555   0.139   8.390
 3126TIP3   OH230936   3.666   1.499   8.238
 3126TIP3    H130937   3.685   1.588   8.268
 3126TIP3    H230938   3.752   1.459   8.227
 3127TIP3   OH230939   3.212   1.744   8.310
 3127TIP3    H130940   3.263   1.670   8.277
 3127TIP3    H230941   3.234   1.749   8.403
 3128TIP3   OH230942   3.301   0.962   8.180
 3128TIP3    H130943   3.296   0.908   8.101
 3128TIP3    H230944   3.395   0.973   8.195
 3129TIP3   OH230945   2.854   0.359   8.347
 3129TIP3    H130946   2.771   0.406   8.349
 3129TIP3    H230947   2.844   0.295   8.276
 3130TIP3   OH230948   2.587   0.394   8.178
 3130TIP3    H130949   2.540   0.340   8.241
 3130TIP3    H230950   2.522   0.456   8.146
 3131TIP3   OH230951   1.980   0.467   8.375
 3131TIP3    H130952   2.061   0.465   8.427
 3131TIP3    H230953   1.925   0.531   8.419
 3132TIP3   OH230954   2.421   0.702   8.317
 3132TIP3    H130955   2.376   0.636   8.370
 3132TIP3    H230956   2.414   0.668   8.227
 3133TIP3   OH230957   3.115   0.443   8.308
 3133TIP3    H130958   3.027   0.414   8.333
 3133TIP3    H230959   3.151   0.483   8.387
 3134TIP3   OH230960   3.247   0.585   0.006
 3134TIP3    H130961   3.334   0.605   0.043
 3134TIP3    H230962   3.215   0.670   8.473
 3135TIP3   OH230963   2.952   1.280   8.390
 3135TIP3    H130964   2.911   1.366   8.400
 3135TIP3    H230965   2.923   1.230   8.466
 3136TIP3   OH230966   3.690   0.641   8.390
 3136TIP3    H130967   3.639   0.636   8.309
 3136TIP3    H230968   3.729   0.729   8.388
 3137TIP3   OH230969   2.134   0.906   8.281
 3137TIP3    H130970   2.168   0.984   8.323
 3137TIP3    H230971   2.043   0.900   8.309
 3138TIP3   OH230972   3.206   1.260   8.286
 3138TIP3    H130973   3.270   1.284   8.354
 3138TIP3    H230974   3.121   1.271   8.329
 3139TIP3   OH230975   3.724   1.754   8.319
 3139TIP3    H130976   3.796   1.817   8.323
 3139TIP3    H230977   3.650   1.800   8.358
 3140TIP3   OH230978   2.678   1.413   8.148
 3140TIP3    H130979   2.674   1.330   8.100
 3140TIP3    H230980   2.631   1.396   8.230
 3141TIP3   OH230981   2.535   1.387   8.382
 3141TIP3    H130982   2.515   1.320   8.448
 3141TIP3    H230983   2.546   1.468   8.432
 3142TIP3   OH230984   2.168   1.120   8.458
 3142TIP3    H130985   2.142   1.052   0.021
 3142TIP3    H230986   2.261   1.134   8.475
 3143TIP3   OH230987   2.838   1.526   8.399
 3143TIP3    H130988   2.753   1.555   8.431
 3143TIP3    H230989   2.848   1.571   8.315
 3144TIP3   OH230990   2.598   1.641   8.476
 3144TIP3    H130991   2.600   1.718   8.419
 3144TIP3    H230992   2.593   1.676   0.064
 3145TIP3   OH230993   2.478   0.243   8.384
 3145TIP3    H130994   2.397   0.285   8.410
 3145TIP3    H230995   2.544   0.279   8.442
 3146TIP3   OH230996   2.292   1.358   8.243
 3146TIP3    H130997   2.366   1.390   8.294
 3146TIP3    H230998   2.327   1.284   8.194
 3147TIP3   OH230999   2.106   0.639   8.179
 3147TIP3    H131000   2.132   0.711   8.236
 3147TIP3    H231001   2.065   0.575   8.238
 3148TIP3   OH231002   2.879   1.598   8.126
 3148TIP3    H131003   2.812   1.530   8.124
 3148TIP3    H231004   2.957   1.556   8.092
 3149TIP3   OH231005   3.371   1.544   8.175
 3149TIP3    H131006   3.446   1.549   8.235
 3149TIP3    H231007   3.406   1.567   8.090
 3150TIP3   OH231008   2.431   1.149   8.123
 3150TIP3    H131009   2.432   1.084   8.193
 3150TIP3    H231010   2.522   1.150   8.091
 3151TIP3   OH231011   2.961   1.261   8.111
 3151TIP3    H131012   2.937   1.267   8.204
 3151TIP3    H231013   2.882   1.228   8.068
 3152TIP3   OH231014   2.486   0.967   8.326
 3152TIP3    H131015   2.440   0.884   8.331
 3152TIP3    H231016   2.573   0.945   8.294
 3153TIP3   OH231017   2.719   0.876   8.221
 3153TIP3    H131018   2.706   0.873   8.126
 3153TIP3    H231019   2.802   0.830   8.236
 3154TIP3   OH231020   3.571   1.028   8.189
 3154TIP3    H131021   3.586   1.008   8.097
 3154TIP3    H231022   3.552   1.122   8.191
 3155TIP3   OH231023   2.691   1.893   8.379
 3155TIP3    H131024   2.781   1.865   8.366
 3155TIP3    H231025   2.673   1.952   8.306
 3156TIP3   OH231026   2.020   1.360   8.207
 3156TIP3    H131027   2.109   1.358   8.241
 3156TIP3    H231028   2.010   1.277   8.161
 3157TIP3   OH231029   3.746   0.908   8.363
 3157TIP3    H131030   3.689   0.936   8.292
 3157TIP3    H231031   3.729   0.970   8.434
 3158TIP3   OH231032   3.544   0.636   8.164
 3158TIP3    H131033   3.516   0.680   8.083
 3158TIP3    H231034   3.527   0.543   8.149
 3159TIP3   OH231035   3.483   0.377   8.100
 3159TIP3    H131036   3.516   0.326   8.173
 3159TIP3    H231037   3.391   0.354   8.094
 3160TIP3   OH231038   3.658   0.252   8.283
 3160TIP3    H131039   3.701   0.186   8.228
 3160TIP3    H231040   3.730   0.302   8.322
 3161TIP3   OH231041   2.027   0.148   8.423
 3161TIP3    H131042   2.070   0.200   8.356
 3161TIP3    H231043   1.972   0.086   8.375
 3162TIP3   OH231044   2.179   0.276   8.227
 3162TIP3    H131045   2.235   0.215   8.178
 3162TIP3    H231046   2.241   0.330   8.276
 3163TIP3   OH231047   2.939   1.803   8.303
 3163TIP3    H131048   3.034   1.796   8.312
 3163TIP3    H231049   2.917   1.748   8.228
 3164TIP3   OH231050   2.236   1.763   8.182
 3164TIP3    H131051   2.205   1.763   8.273
 3164TIP3    H231052   2.306   1.698   8.181
 3165TIP3   OH231053   4.835   0.812   8.239
 3165TIP3    H131054   4.889   0.840   8.313
 3165TIP3    H231055   4.891   0.751   8.190
 3166TIP3   OH231056   5.048   0.876   8.407
 3166TIP3    H131057   5.087   0.934   8.472
 3166TIP3    H231058   5.098   0.894   8.327
 3167TIP3   OH231059   5.471   0.015   8.398
 3167TIP3    H131060   5.395   0.018   8.457
 3167TIP3    H231061   5.485   0.106   8.373
 3168TIP3   OH231062   5.555   1.480   8.214
 3168TIP3    H131063   5.566   1.570   8.245
 3168TIP3    H231064   5.643   1.442   8.217
 3169TIP3   OH231065   5.084   1.748   8.315
 3169TIP3    H131066   5.126   1.676   8.268
 3169TIP3    H231067   5.127   1.749   8.400
 3170TIP3   OH231068   5.195   0.927   8.185
 3170TIP3    H131069   5.176   0.944   8.093
 3170TIP3    H231070   5.287   0.951   8.195
 3171TIP3   OH231071   4.755   0.381   8.317
 3171TIP3    H131072   4.757   0.356   8.409
 3171TIP3    H231073   4.716   0.306   8.272
 3172TIP3   OH231074   4.392   0.343   8.123
 3172TIP3    H131075   4.381   0.348   8.218
 3172TIP3    H231076   4.360   0.427   8.090
 3173TIP3   OH231077   3.857   0.426   8.388
 3173TIP3    H131078   3.928   0.460   8.332
 3173TIP3    H231079   3.792   0.496   8.388
 3174TIP3   OH231080   4.344   0.625   8.303
 3174TIP3    H131081   4.296   0.624   8.220
 3174TIP3    H231082   4.423   0.676   8.285
 3175TIP3   OH231083   5.006   0.485   8.294
 3175TIP3    H131084   4.917   0.452   8.307
 3175TIP3    H231085   5.032   0.517   8.381
 3176TIP3   OH231086   5.076   0.630   0.027
 3176TIP3    H131087   5.166   0.624   0.057
 3176TIP3    H231088   5.071   0.715   8.482
 3177TIP3   OH231089   4.875   1.275   8.408
 3177TIP3    H131090   4.818   1.352   8.411
 3177TIP3    H231091   4.877   1.243   8.498
 3178TIP3   OH231092   5.571   0.660   8.420
 3178TIP3    H131093   5.530   0.642   8.336
 3178TIP3    H231094   5.604   0.750   8.411
 3179TIP3   OH231095   4.008   0.897   8.286
 3179TIP3    H131096   4.045   0.971   8.335
 3179TIP3    H231097   3.915   0.897   8.310
 3180TIP3   OH231098   5.165   1.329   8.356
 3180TIP3    H131099   5.166   1.334   8.451
 3180TIP3    H231100   5.077   1.300   8.334
 3181TIP3   OH231101   5.605   1.736   8.295
 3181TIP3    H131102   5.681   1.791   8.312
 3181TIP3    H231103   5.532   1.781   8.339
 3182TIP3   OH231104   4.548   1.407   8.147
 3182TIP3    H131105   4.554   1.321   8.105
 3182TIP3    H231106   4.507   1.389   8.232
 3183TIP3   OH231107   4.408   1.398   8.390
 3183TIP3    H131108   4.409   1.342   8.467
 3183TIP3    H231109   4.430   1.485   8.424
 3184TIP3   OH231110   4.054   1.129   8.443
 3184TIP3    H131111   4.129   1.115   0.001
 3184TIP3    H231112   4.083   1.200   8.385
 3185TIP3   OH231113   4.726   1.507   8.400
 3185TIP3    H131114   4.643   1.547   8.427
 3185TIP3    H231115   4.739   1.538   8.311
 3186TIP3   OH231116   4.494   1.648   8.469
 3186TIP3    H131117   4.488   1.727   8.414
 3186TIP3    H231118   4.499   1.682   0.058
 3187TIP3   OH231119   4.293   0.370   8.392
 3187TIP3    H131120   4.292   0.462   8.369
 3187TIP3    H231121   4.367   0.360   8.452
 3188TIP3   OH231122   4.165   1.320   8.279
 3188TIP3    H131123   4.237   1.370   8.318
 3188TIP3    H231124   4.208   1.260   8.218
 3189TIP3   OH231125   4.003   0.622   8.254
 3189TIP3    H131126   4.019   0.717   8.259
 3189TIP3    H231127   3.991   0.606   8.160
 3190TIP3   OH231128   4.763   1.579   8.131
 3190TIP3    H131129   4.695   1.512   8.124
 3190TIP3    H231130   4.841   1.537   8.094
 3191TIP3   OH231131   5.212   1.550   8.172
 3191TIP3    H131132   5.225   1.484   8.240
 3191TIP3    H231133   5.295   1.551   8.124
 3192TIP3   OH231134   4.302   1.127   8.141
 3192TIP3    H131135   4.323   1.070   8.214
 3192TIP3    H231136   4.385   1.140   8.095
 3193TIP3   OH231137   4.898   1.266   8.132
 3193TIP3    H131138   4.881   1.256   8.226
 3193TIP3    H231139   4.891   1.177   8.097
 3194TIP3   OH231140   4.413   0.970   8.358
 3194TIP3    H131141   4.445   0.933   8.440
 3194TIP3    H231142   4.457   0.919   8.290
 3195TIP3   OH231143   4.563   0.789   8.216
 3195TIP3    H131144   4.551   0.815   8.125
 3195TIP3    H231145   4.657   0.788   8.229
 3196TIP3   OH231146   5.459   1.012   8.169
 3196TIP3    H131147   5.460   0.996   8.075
 3196TIP3    H231148   5.439   1.105   8.177
 3197TIP3   OH231149   4.571   1.917   8.375
 3197TIP3    H131150   4.656   1.874   8.364
 3197TIP3    H231151   4.559   1.967   8.294
 3198TIP3   OH231152   3.907   1.366   8.197
 3198TIP3    H131153   3.993   1.358   8.239
 3198TIP3    H231154   3.894   1.283   8.152
 3199TIP3   OH231155   5.627   0.924   8.364
 3199TIP3    H131156   5.572   0.942   8.287
 3199TIP3    H231157   5.595   0.984   8.431
 3200TIP3   OH231158   5.454   0.625   8.176
 3200TIP3    H131159   5.408   0.673   8.107
 3200TIP3    H231160   5.443   0.533   8.153
 3201TIP3   OH231161   5.391   0.370   8.090
 3201TIP3    H131162   5.419   0.321   8.167
 3201TIP3    H231163   5.296   0.357   8.086
 3202TIP3   OH231164   5.553   0.254   8.289
 3202TIP3    H131165   5.609   0.205   8.228
 3202TIP3    H231166   5.613   0.314   8.333
 3203TIP3   OH231167   3.901   0.105   8.404
 3203TIP3    H131168   3.950   0.144   8.332
 3203TIP3    H231169   3.944   0.137   8.483
 3204TIP3   OH231170   4.086   0.246   8.243
 3204TIP3    H131171   4.129   0.191   8.177
 3204TIP3    H231172   4.159   0.281   8.295
 3205TIP3   OH231173   4.808   1.798   8.300
 3205TIP3    H131174   4.902   1.794   8.316
 3205TIP3    H231175   4.792   1.732   8.233
 3206TIP3   OH231176   4.124   1.757   8.194
 3206TIP3    H131177   4.102   1.761   8.287
 3206TIP3    H231178   4.196   1.694   8.189
 3207TIP3   OH231179   6.746   0.791   8.225
 3207TIP3    H131180   6.805   0.820   8.295
 3207TIP3    H231181   6.798   0.727   8.176
 3208TIP3   OH231182   6.961   0.877   8.385
 3208TIP3    H131183   6.983   0.926   8.465
 3208TIP3    H231184   7.021   0.910   8.319
 3209TIP3   OH231185   6.983   1.724   8.313
 3209TIP3    H131186   7.019   1.650   8.263
 3209TIP3    H231187   7.019   1.712   8.401
 3210TIP3   OH231188   7.162   1.023   8.251
 3210TIP3    H131189   7.131   1.009   8.162
 3210TIP3    H231190   7.131   1.110   8.274
 3211TIP3   OH231191   6.629   0.377   8.323
 3211TIP3    H131192   6.582   0.364   8.405
 3211TIP3    H231193   6.598   0.307   8.266
 3212TIP3   OH231194   6.306   0.362   8.145
 3212TIP3    H131195   6.270   0.350   8.233
 3212TIP3    H231196   6.259   0.438   8.110
 3213TIP3   OH231197   5.729   0.433   8.403
 3213TIP3    H131198   5.800   0.475   8.354
 3213TIP3    H231199   5.670   0.504   8.426
 3214TIP3   OH231200   6.229   0.687   8.308
 3214TIP3    H131201   6.182   0.648   8.234
 3214TIP3    H231202   6.317   0.702   8.275
 3215TIP3   OH231203   6.897   0.415   8.342
 3215TIP3    H131204   6.803   0.400   8.339
 3215TIP3    H231205   6.909   0.482   8.409
 3216TIP3   OH231206   6.949   0.632   0.008
 3216TIP3    H131207   7.040   0.606   0.024
 3216TIP3    H231208   6.955   0.713   8.458
 3217TIP3   OH231209   6.757   1.273   8.403
 3217TIP3    H131210   6.701   1.350   8.417
 3217TIP3    H231211   6.746   1.220   8.481
 3218TIP3   OH231212   5.881   0.895   8.267
 3218TIP3    H131213   5.924   0.969   8.311
 3218TIP3    H231214   5.791   0.898   8.298
 3219TIP3   OH231215   7.040   1.252   8.366
 3219TIP3    H131216   7.047   1.275   8.459
 3219TIP3    H231217   6.947   1.263   8.345
 3220TIP3   OH231218   6.447   1.382   8.154
 3220TIP3    H131219   6.454   1.305   8.099
 3220TIP3    H231220   6.400   1.352   8.232
 3221TIP3   OH231221   6.330   1.369   8.413
 3221TIP3    H131222   6.303   1.286   8.453
 3221TIP3    H231223   6.313   1.434   8.481
 3222TIP3   OH231224   5.947   1.094   8.449
 3222TIP3    H131225   5.917   1.035   0.018
 3222TIP3    H231226   6.036   1.118   8.474
 3223TIP3   OH231227   6.581   1.496   8.401
 3223TIP3    H131228   6.499   1.447   8.392
 3223TIP3    H231229   6.604   1.521   8.311
 3224TIP3   OH231230   6.279   1.666   8.422
 3224TIP3    H131231   6.275   1.647   8.329
 3224TIP3    H231232   6.190   1.696   8.444
 3225TIP3   OH231233   6.180   0.345   8.392
 3225TIP3    H131234   6.118   0.410   8.425
 3225TIP3    H231235   6.259   0.359   8.445
 3226TIP3   OH231236   6.076   1.357   8.272
 3226TIP3    H131237   6.156   1.390   8.312
 3226TIP3    H231238   6.104   1.283   8.218
 3227TIP3   OH231239   5.885   0.618   8.270
 3227TIP3    H131240   5.899   0.712   8.273
 3227TIP3    H231241   5.862   0.600   8.178
 3228TIP3   OH231242   6.651   1.568   8.135
 3228TIP3    H131243   6.588   1.497   8.121
 3228TIP3    H231244   6.731   1.537   8.093
 3229TIP3   OH231245   7.102   1.515   8.179
 3229TIP3    H131246   7.145   1.436   8.212
 3229TIP3    H231247   7.157   1.544   8.106
 3230TIP3   OH231248   6.189   1.147   8.134
 3230TIP3    H131249   6.200   1.079   8.200
 3230TIP3    H231250   6.272   1.149   8.087
 3231TIP3   OH231251   6.764   1.269   8.125
 3231TIP3    H131252   6.756   1.261   8.220
 3231TIP3    H231253   6.763   1.179   8.093
 3232TIP3   OH231254   6.263   0.960   8.325
 3232TIP3    H131255   6.214   0.878   8.336
 3232TIP3    H231256   6.348   0.934   8.290
 3233TIP3   OH231257   6.470   0.813   8.215
 3233TIP3    H131258   6.461   0.834   8.122
 3233TIP3    H231259   6.563   0.796   8.227
 3234TIP3   OH231260   6.487   1.910   8.363
 3234TIP3    H131261   6.575   1.880   8.339
 3234TIP3    H231262   6.458   1.962   8.288
 3235TIP3   OH231263   5.809   1.363   8.207
 3235TIP3    H131264   5.896   1.356   8.248
 3235TIP3    H231265   5.795   1.277   8.166
 3236TIP3   OH231266   7.238   0.383   8.165
 3236TIP3    H131267   7.244   0.320   8.236
 3236TIP3    H231268   7.148   0.376   8.134
 3237TIP3   OH231269   5.866   0.139   8.449
 3237TIP3    H131270   5.878   0.195   8.373
 3237TIP3    H231271   5.813   0.066   8.417
 3238TIP3   OH231272   5.973   0.271   8.226
 3238TIP3    H131273   5.997   0.200   8.166
 3238TIP3    H231274   6.050   0.284   8.281
 3239TIP3   OH231275   6.710   1.770   8.314
 3239TIP3    H131276   6.805   1.770   8.320
 3239TIP3    H231277   6.691   1.710   8.242
 3240TIP3   OH231278   5.982   1.755   8.181
 3240TIP3    H131279   5.927   1.789   8.251
 3240TIP3    H231280   5.992   1.662   8.202
 3241TIP3   OH231281   1.080   2.688   8.223
 3241TIP3    H131282   1.129   2.718   8.299
 3241TIP3    H231283   1.137   2.623   8.182
 3242TIP3   OH231284   1.277   2.765   8.405
 3242TIP3    H131285   1.316   2.821   8.473
 3242TIP3    H231286   1.328   2.785   8.326
 3243TIP3   OH231287   1.633   1.919   8.403
 3243TIP3    H131288   1.590   1.944   8.485
 3243TIP3    H231289   1.675   1.999   8.372
 3244TIP3   OH231290   1.776   3.377   8.231
 3244TIP3    H131291   1.791   3.468   8.257
 3244TIP3    H231292   1.863   3.338   8.228
 3245TIP3   OH231293   1.320   3.634   8.312
 3245TIP3    H131294   1.364   3.563   8.265
 3245TIP3    H231295   1.365   3.638   8.396
 3246TIP3   OH231296   1.427   2.814   8.186
 3246TIP3    H131297   1.407   2.830   8.094
 3246TIP3    H231298   1.519   2.838   8.195
 3247TIP3   OH231299   1.015   2.241   8.321
 3247TIP3    H131300   0.999   2.230   8.415
 3247TIP3    H231301   0.968   2.168   8.280
 3248TIP3   OH231302   0.683   2.260   8.166
 3248TIP3    H131303   0.643   2.245   8.252
 3248TIP3    H231304   0.621   2.318   8.121
 3249TIP3   OH231305   0.122   2.365   8.445
 3249TIP3    H131306   0.150   2.417   8.370
 3249TIP3    H231307   0.119   2.275   8.413
 3250TIP3   OH231308   0.567   2.553   8.302
 3250TIP3    H131309   0.525   2.524   8.221
 3250TIP3    H231310   0.655   2.580   8.275
 3251TIP3   OH231311   1.269   2.334   8.283
 3251TIP3    H131312   1.179   2.306   8.302
 3251TIP3    H231313   1.296   2.380   8.363
 3252TIP3   OH231314   1.323   2.510   8.497
 3252TIP3    H131315   1.411   2.512   0.033
 3252TIP3    H231316   1.309   2.599   8.463
 3253TIP3   OH231317   1.088   3.154   8.408
 3253TIP3    H131318   1.038   3.235   8.410
 3253TIP3    H231319   1.085   3.122   8.498
 3254TIP3   OH231320   1.821   2.531   8.415
 3254TIP3    H131321   1.776   2.518   8.332
 3254TIP3    H231322   1.847   2.623   8.414
 3255TIP3   OH231323   0.160   2.794   8.266
 3255TIP3    H131324   0.213   2.850   8.323
 3255TIP3    H231325   0.071   2.828   8.276
 3256TIP3   OH231326   1.396   3.196   8.355
 3256TIP3    H131327   1.383   3.199   8.450
 3256TIP3    H231328   1.309   3.181   8.319
 3257TIP3   OH231329   1.841   3.633   8.304
 3257TIP3    H131330   1.914   3.693   8.318
 3257TIP3    H231331   1.766   3.678   8.342
 3258TIP3   OH231332   0.783   3.291   8.142
 3258TIP3    H131333   0.786   3.206   8.097
 3258TIP3    H231334   0.736   3.274   8.223
 3259TIP3   OH231335   0.634   3.280   8.377
 3259TIP3    H131336   0.638   3.215   8.447
 3259TIP3    H231337   0.657   3.362   8.420
 3260TIP3   OH231338   0.300   2.975   8.421
 3260TIP3    H131339   0.366   2.967   8.490
 3260TIP3    H231340   0.322   3.055   8.375
 3261TIP3   OH231341   0.952   3.392   8.399
 3261TIP3    H131342   0.868   3.432   8.425
 3261TIP3    H231343   0.969   3.425   8.311
 3262TIP3   OH231344   0.718   3.528   8.473
 3262TIP3    H131345   0.725   3.604   8.415
 3262TIP3    H231346   0.723   3.564   0.061
 3263TIP3   OH231347   0.503   2.255   8.389
 3263TIP3    H131348   0.476   2.347   8.380
 3263TIP3    H231349   0.577   2.259   8.449
 3264TIP3   OH231350   0.382   3.199   8.280
 3264TIP3    H131351   0.451   3.256   8.315
 3264TIP3    H231352   0.427   3.143   8.217
 3265TIP3   OH231353   0.204   2.520   8.238
 3265TIP3    H131354   0.198   2.615   8.250
 3265TIP3    H231355   0.161   2.504   8.154
 3266TIP3   OH231356   0.995   3.466   8.131
 3266TIP3    H131357   0.928   3.399   8.122
 3266TIP3    H231358   1.074   3.427   8.093
 3267TIP3   OH231359   1.453   3.441   8.166
 3267TIP3    H131360   1.493   3.388   8.234
 3267TIP3    H231361   1.523   3.453   8.101
 3268TIP3   OH231362   0.530   3.019   8.139
 3268TIP3    H131363   0.550   2.957   8.210
 3268TIP3    H231364   0.613   3.031   8.093
 3269TIP3   OH231365   1.146   3.145   8.140
 3269TIP3    H131366   1.115   3.136   8.230
 3269TIP3    H231367   1.132   3.059   8.101
 3270TIP3   OH231368   0.607   2.842   8.338
 3270TIP3    H131369   0.553   2.764   8.355
 3270TIP3    H231370   0.687   2.808   8.299
 3271TIP3   OH231371   0.803   2.690   8.217
 3271TIP3    H131372   0.792   2.714   8.125
 3271TIP3    H231373   0.897   2.682   8.229
 3272TIP3   OH231374   1.692   2.895   8.170
 3272TIP3    H131375   1.695   2.880   8.075
 3272TIP3    H231376   1.676   2.989   8.178
 3273TIP3   OH231377   0.805   3.778   8.379
 3273TIP3    H131378   0.894   3.745   8.366
 3273TIP3    H231379   0.790   3.836   8.304
 3274TIP3   OH231380   0.104   3.204   8.240
 3274TIP3    H131381   0.198   3.212   8.253
 3274TIP3    H231382   0.095   3.146   8.164
 3275TIP3   OH231383   1.860   2.798   8.364
 3275TIP3    H131384   1.807   2.819   8.286
 3275TIP3    H231385   1.833   2.863   8.429
 3276TIP3   OH231386   1.686   2.509   8.179
 3276TIP3    H131387   1.642   2.558   8.109
 3276TIP3    H231388   1.648   2.421   8.175
 3277TIP3   OH231389   1.567   2.263   8.183
 3277TIP3    H131390   1.638   2.211   8.221
 3277TIP3    H231391   1.498   2.261   8.249
 3278TIP3   OH231392   1.777   2.130   8.302
 3278TIP3    H131393   1.818   2.072   8.237
 3278TIP3    H231394   1.850   2.182   8.337
 3279TIP3   OH231395   0.099   2.099   8.345
 3279TIP3    H131396   0.179   2.098   8.292
 3279TIP3    H231397   0.107   2.022   8.401
 3280TIP3   OH231398   0.342   2.108   8.217
 3280TIP3    H131399   0.395   2.043   8.170
 3280TIP3    H231400   0.402   2.148   8.279
 3281TIP3   OH231401   1.047   3.674   8.309
 3281TIP3    H131402   1.142   3.674   8.320
 3281TIP3    H231403   1.030   3.615   8.236
 3282TIP3   OH231404   0.367   3.645   8.222
 3282TIP3    H131405   0.351   3.642   8.316
 3282TIP3    H231406   0.436   3.582   8.207
 3283TIP3   OH231407   2.957   2.702   8.240
 3283TIP3    H131408   3.009   2.726   8.317
 3283TIP3    H231409   3.011   2.639   8.193
 3284TIP3   OH231410   3.167   2.763   8.412
 3284TIP3    H131411   3.206   2.819   8.479
 3284TIP3    H231412   3.216   2.782   8.333
 3285TIP3   OH231413   3.523   1.918   8.416
 3285TIP3    H131414   3.453   1.946   8.474
 3285TIP3    H231415   3.555   2.000   8.377
 3286TIP3   OH231416   3.669   3.379   8.233
 3286TIP3    H131417   3.684   3.468   8.263
 3286TIP3    H231418   3.757   3.341   8.227
 3287TIP3   OH231419   3.208   3.638   8.312
 3287TIP3    H131420   3.246   3.567   8.260
 3287TIP3    H231421   3.254   3.633   8.396
 3288TIP3   OH231422   3.315   2.809   8.191
 3288TIP3    H131423   3.294   2.825   8.099
 3288TIP3    H231424   3.406   2.838   8.201
 3289TIP3   OH231425   2.851   2.234   8.311
 3289TIP3    H131426   2.771   2.269   8.350
 3289TIP3    H231427   2.822   2.161   8.257
 3290TIP3   OH231428   2.549   2.286   8.163
 3290TIP3    H131429   2.499   2.265   8.242
 3290TIP3    H231430   2.493   2.348   8.115
 3291TIP3   OH231431   1.977   2.301   8.390
 3291TIP3    H131432   2.042   2.346   8.335
 3291TIP3    H231433   1.918   2.371   8.419
 3292TIP3   OH231434   2.442   2.571   8.327
 3292TIP3    H131435   2.392   2.524   8.261
 3292TIP3    H231436   2.528   2.586   8.286
 3293TIP3   OH231437   3.106   2.341   8.276
 3293TIP3    H131438   3.020   2.304   8.296
 3293TIP3    H231439   3.135   2.380   8.358
 3294TIP3   OH231440   3.184   2.502   8.495
 3294TIP3    H131441   3.273   2.491   0.028
 3294TIP3    H231442   3.180   2.593   8.466
 3295TIP3   OH231443   2.954   3.155   8.412
 3295TIP3    H131444   2.912   3.241   8.414
 3295TIP3    H231445   2.932   3.116   8.497
 3296TIP3   OH231446   3.735   2.531   8.410
 3296TIP3    H131447   3.683   2.510   8.333
 3296TIP3    H231448   3.740   2.626   8.410
 3297TIP3   OH231449   2.121   2.764   8.289
 3297TIP3    H131450   2.165   2.836   8.333
 3297TIP3    H231451   2.030   2.770   8.316
 3298TIP3   OH231452   3.280   3.207   8.333
 3298TIP3    H131453   3.252   3.206   8.424
 3298TIP3    H231454   3.203   3.181   8.283
 3299TIP3   OH231455   3.733   3.633   8.317
 3299TIP3    H131456   3.805   3.695   8.327
 3299TIP3    H231457   3.656   3.679   8.349
 3300TIP3   OH231458   2.667   3.322   8.157
 3300TIP3    H131459   2.669   3.238   8.111
 3300TIP3    H231460   2.623   3.303   8.240
 3301TIP3   OH231461   2.532   3.283   8.393
 3301TIP3    H131462   2.533   3.212   8.457
 3301TIP3    H231463   2.548   3.362   8.444
 3302TIP3   OH231464   2.192   2.988   8.431
 3302TIP3    H131465   2.202   3.001   0.026
 3302TIP3    H231466   2.225   3.069   8.392
 3303TIP3   OH231467   2.841   3.405   8.403
 3303TIP3    H131468   2.755   3.438   8.430
 3303TIP3    H231469   2.853   3.436   8.314
 3304TIP3   OH231470   2.609   3.536   8.479
 3304TIP3    H131471   2.600   3.616   8.427
 3304TIP3    H231472   2.593   3.563   0.069
 3305TIP3   OH231473   2.394   2.234   8.385
 3305TIP3    H131474   2.321   2.270   8.435
 3305TIP3    H231475   2.469   2.239   8.444
 3306TIP3   OH231476   2.283   3.213   8.296
 3306TIP3    H131477   2.357   3.259   8.335
 3306TIP3    H231478   2.322   3.158   8.228
 3307TIP3   OH231479   2.115   2.492   8.238
 3307TIP3    H131480   2.133   2.582   8.263
 3307TIP3    H231481   2.052   2.499   8.166
 3308TIP3   OH231482   2.885   3.481   8.130
 3308TIP3    H131483   2.811   3.420   8.127
 3308TIP3    H231484   2.958   3.433   8.093
 3309TIP3   OH231485   3.330   3.444   8.161
 3309TIP3    H131486   3.356   3.378   8.225
 3309TIP3    H231487   3.406   3.452   8.103
 3310TIP3   OH231488   2.414   3.035   8.136
 3310TIP3    H131489   2.428   2.971   8.206
 3310TIP3    H231490   2.502   3.055   8.104
 3311TIP3   OH231491   3.058   3.135   8.162
 3311TIP3    H131492   3.009   3.133   8.244
 3311TIP3    H231493   3.032   3.056   8.116
 3312TIP3   OH231494   2.481   2.853   8.336
 3312TIP3    H131495   2.421   2.781   8.357
 3312TIP3    H231496   2.561   2.809   8.307
 3313TIP3   OH231497   2.684   2.693   8.236
 3313TIP3    H131498   2.676   2.736   8.151
 3313TIP3    H231499   2.778   2.685   8.251
 3314TIP3   OH231500   3.577   2.897   8.171
 3314TIP3    H131501   3.577   2.881   8.077
 3314TIP3    H231502   3.563   2.991   8.180
 3315TIP3   OH231503   2.695   3.805   8.377
 3315TIP3    H131504   2.778   3.759   8.367
 3315TIP3    H231505   2.689   3.860   8.298
 3316TIP3   OH231506   2.025   3.252   8.214
 3316TIP3    H131507   2.111   3.243   8.255
 3316TIP3    H231508   2.010   3.169   8.169
 3317TIP3   OH231509   3.734   2.800   8.371
 3317TIP3    H131510   3.684   2.822   8.293
 3317TIP3    H231511   3.707   2.864   8.436
 3318TIP3   OH231512   3.582   2.497   8.187
 3318TIP3    H131513   3.546   2.556   8.120
 3318TIP3    H231514   3.552   2.410   8.160
 3319TIP3   OH231515   3.486   2.252   8.096
 3319TIP3    H131516   3.518   2.204   8.173
 3319TIP3    H231517   3.394   2.227   8.088
 3320TIP3   OH231518   3.648   2.128   8.288
 3320TIP3    H131519   3.688   2.067   8.226
 3320TIP3    H231520   3.721   2.180   8.322
 3321TIP3   OH231521   2.038   1.954   8.361
 3321TIP3    H131522   2.091   1.995   8.293
 3321TIP3    H231523   2.042   2.014   8.435
 3322TIP3   OH231524   2.227   2.100   8.207
 3322TIP3    H131525   2.282   2.044   8.153
 3322TIP3    H231526   2.286   2.136   8.273
 3323TIP3   OH231527   2.934   3.690   8.306
 3323TIP3    H131528   3.029   3.682   8.318
 3323TIP3    H231529   2.914   3.629   8.236
 3324TIP3   OH231530   2.215   3.649   8.172
 3324TIP3    H131531   2.172   3.669   8.256
 3324TIP3    H231532   2.281   3.583   8.195
 3325TIP3   OH231533   4.835   2.691   8.229
 3325TIP3    H131534   4.882   2.718   8.307
 3325TIP3    H231535   4.893   2.629   8.185
 3326TIP3   OH231536   5.043   2.766   8.403
 3326TIP3    H131537   5.082   2.818   8.473
 3326TIP3    H231538   5.096   2.785   8.326
 3327TIP3   OH231539   5.418   1.905   8.415
 3327TIP3    H131540   5.392   1.913   0.007
 3327TIP3    H231541   5.446   1.994   8.391
 3328TIP3   OH231542   5.536   3.372   8.232
 3328TIP3    H131543   5.553   3.464   8.255
 3328TIP3    H231544   5.622   3.331   8.233
 3329TIP3   OH231545   5.105   3.625   8.311
 3329TIP3    H131546   5.151   3.553   8.268
 3329TIP3    H231547   5.142   3.629   8.399
 3330TIP3   OH231548   5.202   2.821   8.192
 3330TIP3    H131549   5.179   2.833   8.100
 3330TIP3    H231550   5.295   2.842   8.196
 3331TIP3   OH231551   4.733   2.246   8.302
 3331TIP3    H131552   4.722   2.237   8.396
 3331TIP3    H231553   4.687   2.171   8.264
 3332TIP3   OH231554   4.405   2.309   8.155
 3332TIP3    H131555   4.365   2.243   8.212
 3332TIP3    H231556   4.402   2.390   8.207
 3333TIP3   OH231557   3.857   2.283   8.379
 3333TIP3    H131558   3.942   2.307   8.343
 3333TIP3    H231559   3.816   2.366   8.403
 3334TIP3   OH231560   4.364   2.543   8.288
 3334TIP3    H131561   4.280   2.588   8.290
 3334TIP3    H231562   4.424   2.606   8.248
 3335TIP3   OH231563   4.995   2.340   8.285
 3335TIP3    H131564   4.906   2.308   8.300
 3335TIP3    H231565   5.020   2.382   8.367
 3336TIP3   OH231566   5.062   2.509   0.001
 3336TIP3    H131567   5.151   2.501   0.036
 3336TIP3    H231568   5.060   2.597   8.463
 3337TIP3   OH231569   4.818   3.155   8.455
 3337TIP3    H131570   4.805   3.250   8.462
 3337TIP3    H231571   4.836   3.127   0.045
 3338TIP3   OH231572   5.607   2.531   8.424
 3338TIP3    H131573   5.557   2.510   8.345
 3338TIP3    H231574   5.626   2.625   8.416
 3339TIP3   OH231575   3.991   2.753   8.288
 3339TIP3    H131576   4.038   2.828   8.324
 3339TIP3    H231577   3.900   2.764   8.318
 3340TIP3   OH231578   5.187   3.169   8.378
 3340TIP3    H131579   5.177   3.172   8.473
 3340TIP3    H231580   5.104   3.204   8.344
 3341TIP3   OH231581   5.599   3.628   8.305
 3341TIP3    H131582   5.673   3.656   8.359
 3341TIP3    H231583   5.525   3.678   8.340
 3342TIP3   OH231584   4.571   3.309   8.096
 3342TIP3    H131585   4.543   3.269   8.014
 3342TIP3    H231586   4.500   3.368   8.120
 3343TIP3   OH231587   4.470   3.241   8.418
 3343TIP3    H131588   4.422   3.188   8.481
 3343TIP3    H231589   4.462   3.331   8.451
 3344TIP3   OH231590   4.083   2.982   8.403
 3344TIP3    H131591   4.109   2.979   8.495
 3344TIP3    H231592   4.110   3.069   8.374
 3345TIP3   OH231593   4.718   3.400   8.373
 3345TIP3    H131594   4.642   3.433   8.420
 3345TIP3    H231595   4.753   3.476   8.327
 3346TIP3   OH231596   4.493   3.516   8.476
 3346TIP3    H131597   4.483   3.579   8.405
 3346TIP3    H231598   4.490   3.570   0.056
 3347TIP3   OH231599   4.336   2.141   8.374
 3347TIP3    H131600   4.364   2.208   8.436
 3347TIP3    H231601   4.394   2.066   8.392
 3348TIP3   OH231602   4.174   3.225   8.299
 3348TIP3    H131603   4.227   3.302   8.320
 3348TIP3    H231604   4.229   3.172   8.242
 3349TIP3   OH231605   4.012   2.493   8.194
 3349TIP3    H131606   3.999   2.577   8.239
 3349TIP3    H231607   3.931   2.480   8.145
 3350TIP3   OH231608   4.787   3.484   8.096
 3350TIP3    H131609   4.717   3.418   8.097
 3350TIP3    H231610   4.866   3.436   8.072
 3351TIP3   OH231611   5.246   3.431   8.166
 3351TIP3    H131612   5.320   3.407   8.222
 3351TIP3    H231613   5.286   3.460   8.084
 3352TIP3   OH231614   4.319   3.038   8.157
 3352TIP3    H131615   4.333   2.979   8.231
 3352TIP3    H231616   4.400   3.034   8.107
 3353TIP3   OH231617   4.866   3.134   8.183
 3353TIP3    H131618   4.887   3.108   8.273
 3353TIP3    H231619   4.878   3.055   8.131
 3354TIP3   OH231620   4.445   2.867   8.362
 3354TIP3    H131621   4.482   2.820   8.437
 3354TIP3    H231622   4.481   2.822   8.285
 3355TIP3   OH231623   4.560   2.703   8.177
 3355TIP3    H131624   4.563   2.724   8.084
 3355TIP3    H231625   4.652   2.691   8.202
 3356TIP3   OH231626   5.470   2.889   8.162
 3356TIP3    H131627   5.469   2.874   8.068
 3356TIP3    H231628   5.452   2.982   8.172
 3357TIP3   OH231629   4.551   3.704   8.280
 3357TIP3    H131630   4.642   3.694   8.308
 3357TIP3    H231631   4.548   3.790   8.237
 3358TIP3   OH231632   3.915   3.250   8.207
 3358TIP3    H131633   4.001   3.240   8.249
 3358TIP3    H231634   3.901   3.166   8.164
 3359TIP3   OH231635   5.636   2.796   8.361
 3359TIP3    H131636   5.586   2.815   8.281
 3359TIP3    H231637   5.602   2.859   8.425
 3360TIP3   OH231638   5.465   2.498   8.194
 3360TIP3    H131639   5.428   2.558   8.129
 3360TIP3    H231640   5.435   2.411   8.166
 3361TIP3   OH231641   5.373   2.254   8.107
 3361TIP3    H131642   5.404   2.200   8.179
 3361TIP3    H231643   5.283   2.226   8.092
 3362TIP3   OH231644   5.543   2.128   8.304
 3362TIP3    H131645   5.575   2.071   8.233
 3362TIP3    H231646   5.619   2.180   8.328
 3363TIP3   OH231647   3.915   1.959   8.348
 3363TIP3    H131648   3.971   2.008   8.288
 3363TIP3    H231649   3.939   1.991   8.435
 3364TIP3   OH231650   4.119   2.103   8.208
 3364TIP3    H131651   4.164   2.041   8.150
 3364TIP3    H231652   4.182   2.122   8.277
 3365TIP3   OH231653   4.826   3.648   8.311
 3365TIP3    H131654   4.919   3.667   8.323
 3365TIP3    H231655   4.819   3.621   8.220
 3366TIP3   OH231656   4.116   3.654   8.202
 3366TIP3    H131657   4.067   3.692   8.275
 3366TIP3    H231658   4.164   3.580   8.241
 3367TIP3   OH231659   6.730   2.652   8.243
 3367TIP3    H131660   6.788   2.689   8.310
 3367TIP3    H231661   6.788   2.605   8.184
 3368TIP3   OH231662   6.950   2.733   8.394
 3368TIP3    H131663   6.975   2.789   8.467
 3368TIP3    H231664   7.003   2.765   8.320
 3369TIP3   OH231665   6.986   3.624   8.310
 3369TIP3    H131666   7.024   3.545   8.270
 3369TIP3    H231667   7.026   3.630   8.396
 3370TIP3   OH231668   7.129   2.899   8.256
 3370TIP3    H131669   7.111   2.885   8.163
 3370TIP3    H231670   7.108   2.991   8.271
 3371TIP3   OH231671   6.597   2.222   8.333
 3371TIP3    H131672   6.529   2.286   8.312
 3371TIP3    H231673   6.583   2.151   8.271
 3372TIP3   OH231674   6.336   2.287   8.154
 3372TIP3    H131675   6.278   2.266   8.227
 3372TIP3    H231676   6.282   2.343   8.097
 3373TIP3   OH231677   5.758   2.299   8.385
 3373TIP3    H131678   5.793   2.349   8.311
 3373TIP3    H231679   5.686   2.352   8.418
 3374TIP3   OH231680   6.221   2.540   8.290
 3374TIP3    H131681   6.182   2.527   8.204
 3374TIP3    H231682   6.307   2.578   8.273
 3375TIP3   OH231683   6.870   2.275   8.328
 3375TIP3    H131684   6.776   2.258   8.337
 3375TIP3    H231685   6.887   2.348   8.387
 3376TIP3   OH231686   6.941   2.483   0.007
 3376TIP3    H131687   7.030   2.450   0.016
 3376TIP3    H231688   6.949   2.564   8.457
 3377TIP3   OH231689   6.759   3.160   8.400
 3377TIP3    H131690   6.701   3.236   8.404
 3377TIP3    H231691   6.735   3.108   8.477
 3378TIP3   OH231692   5.899   2.757   8.290
 3378TIP3    H131693   5.941   2.830   8.335
 3378TIP3    H231694   5.806   2.766   8.311
 3379TIP3   OH231695   7.039   3.142   8.360
 3379TIP3    H131696   7.049   3.165   8.452
 3379TIP3    H231697   6.946   3.155   8.342
 3380TIP3   OH231698   6.431   3.293   8.131
 3380TIP3    H131699   6.440   3.211   8.083
 3380TIP3    H231700   6.370   3.273   8.202
 3381TIP3   OH231701   6.301   3.292   8.380
 3381TIP3    H131702   6.299   3.221   8.445
 3381TIP3    H231703   6.302   3.372   8.432
 3382TIP3   OH231704   5.979   2.979   8.428
 3382TIP3    H131705   5.985   3.003   0.021
 3382TIP3    H231706   6.003   3.059   8.382
 3383TIP3   OH231707   6.576   3.365   8.386
 3383TIP3    H131708   6.489   3.338   8.359
 3383TIP3    H231709   6.612   3.411   8.309
 3384TIP3   OH231710   6.331   3.537   0.007
 3384TIP3    H131711   6.372   3.602   8.450
 3384TIP3    H231712   6.253   3.580   0.042
 3385TIP3   OH231713   6.153   2.291   8.386
 3385TIP3    H131714   6.169   2.380   8.356
 3385TIP3    H231715   6.227   2.271   8.444
 3386TIP3   OH231716   6.051   3.206   8.285
 3386TIP3    H131717   6.123   3.263   8.315
 3386TIP3    H231718   6.091   3.152   8.217
 3387TIP3   OH231719   5.863   2.488   8.221
 3387TIP3    H131720   5.891   2.576   8.248
 3387TIP3    H231721   5.823   2.501   8.135
 3388TIP3   OH231722   6.651   3.460   8.126
 3388TIP3    H131723   6.584   3.393   8.110
 3388TIP3    H231724   6.730   3.423   8.087
 3389TIP3   OH231725   7.106   3.406   8.192
 3389TIP3    H131726   7.148   3.323   8.217
 3389TIP3    H231727   7.156   3.436   8.116
 3390TIP3   OH231728   6.190   3.030   8.130
 3390TIP3    H131729   6.210   2.969   8.202
 3390TIP3    H231730   6.272   3.037   8.081
 3391TIP3   OH231731   6.773   3.153   8.124
 3391TIP3    H131732   6.763   3.147   8.219
 3391TIP3    H231733   6.769   3.063   8.093
 3392TIP3   OH231734   6.265   2.856   8.336
 3392TIP3    H131735   6.196   2.790   8.348
 3392TIP3    H231736   6.339   2.808   8.299
 3393TIP3   OH231737   6.455   2.684   8.231
 3393TIP3    H131738   6.448   2.710   8.139
 3393TIP3    H231739   6.549   2.667   8.243
 3394TIP3   OH231740   6.454   3.737   8.362
 3394TIP3    H131741   6.545   3.710   8.353
 3394TIP3    H231742   6.442   3.804   8.294
 3395TIP3   OH231743   5.786   3.241   8.227
 3395TIP3    H131744   5.876   3.234   8.257
 3395TIP3    H231745   5.771   3.162   8.175
 3396TIP3   OH231746   7.250   2.230   8.139
 3396TIP3    H131747   7.282   2.175   8.210
 3396TIP3    H231748   7.159   2.203   8.127
 3397TIP3   OH231749   5.822   1.917   8.345
 3397TIP3    H131750   5.867   1.990   8.303
 3397TIP3    H231751   5.772   1.957   8.416
 3398TIP3   OH231752   5.999   2.109   8.229
 3398TIP3    H131753   6.048   2.050   8.171
 3398TIP3    H231754   6.067   2.159   8.275
 3399TIP3   OH231755   6.710   3.644   8.319
 3399TIP3    H131756   6.805   3.658   8.317
 3399TIP3    H231757   6.691   3.595   8.238
 3400TIP3   OH231758   5.991   3.654   8.258
 3400TIP3    H131759   6.005   3.644   8.352
 3400TIP3    H231760   6.059   3.601   8.217
 3401TIP3   OH231761   1.065   4.573   8.242
 3401TIP3    H131762   1.119   4.604   8.314
 3401TIP3    H231763   1.122   4.513   8.194
 3402TIP3   OH231764   1.273   4.649   8.410
 3402TIP3    H131765   1.310   4.705   8.479
 3402TIP3    H231766   1.326   4.670   8.333
 3403TIP3   OH231767   1.636   3.788   8.411
 3403TIP3    H131768   1.607   3.806   0.001
 3403TIP3    H231769   1.664   3.874   8.378
 3404TIP3   OH231770   1.783   5.266   8.241
 3404TIP3    H131771   1.801   5.356   8.267
 3404TIP3    H231772   1.865   5.219   8.260
 3405TIP3   OH231773   1.320   5.518   8.316
 3405TIP3    H131774   1.364   5.448   8.268
 3405TIP3    H231775   1.361   5.517   8.403
 3406TIP3   OH231776   1.433   4.704   8.201
 3406TIP3    H131777   1.405   4.716   8.110
 3406TIP3    H231778   1.525   4.728   8.201
 3407TIP3   OH231779   0.976   4.099   8.323
 3407TIP3    H131780   0.898   4.154   8.327
 3407TIP3    H231781   0.950   4.026   8.267
 3408TIP3   OH231782   0.678   4.169   8.169
 3408TIP3    H131783   0.625   4.149   8.246
 3408TIP3    H231784   0.624   4.228   8.117
 3409TIP3   OH231785   0.150   4.284   8.466
 3409TIP3    H131786   0.178   4.318   8.380
 3409TIP3    H231787   0.075   4.227   8.446
 3410TIP3   OH231788   0.560   4.428   8.306
 3410TIP3    H131789   0.515   4.409   8.224
 3410TIP3    H231790   0.647   4.458   8.278
 3411TIP3   OH231791   1.228   4.219   8.291
 3411TIP3    H131792   1.144   4.179   8.313
 3411TIP3    H231793   1.255   4.263   8.372
 3412TIP3   OH231794   1.300   4.393   0.003
 3412TIP3    H131795   1.390   4.387   0.037
 3412TIP3    H231796   1.294   4.481   8.467
 3413TIP3   OH231797   1.076   5.037   8.420
 3413TIP3    H131798   1.029   5.120   8.418
 3413TIP3    H231799   1.075   5.012   0.013
 3414TIP3   OH231800   1.826   4.423   8.416
 3414TIP3    H131801   1.779   4.397   8.337
 3414TIP3    H231802   1.837   4.518   8.408
 3415TIP3   OH231803   0.154   4.674   8.265
 3415TIP3    H131804   0.203   4.734   8.321
 3415TIP3    H231805   0.063   4.700   8.275
 3416TIP3   OH231806   1.397   5.091   8.333
 3416TIP3    H131807   1.370   5.089   8.424
 3416TIP3    H231808   1.319   5.066   8.284
 3417TIP3   OH231809   1.852   5.521   8.324
 3417TIP3    H131810   1.921   5.586   8.337
 3417TIP3    H231811   1.772   5.564   8.355
 3418TIP3   OH231812   0.777   5.180   8.143
 3418TIP3    H131813   0.780   5.094   8.100
 3418TIP3    H231814   0.730   5.164   8.225
 3419TIP3   OH231815   0.630   5.168   8.380
 3419TIP3    H131816   0.635   5.101   8.447
 3419TIP3    H231817   0.654   5.249   8.425
 3420TIP3   OH231818   0.274   4.871   8.418
 3420TIP3    H131819   0.333   4.852   8.492
 3420TIP3    H231820   0.313   4.947   8.375
 3421TIP3   OH231821   0.951   5.280   8.399
 3421TIP3    H131822   0.868   5.319   8.427
 3421TIP3    H231823   0.964   5.312   8.310
 3422TIP3   OH231824   0.720   5.413   8.479
 3422TIP3    H131825   0.730   5.494   8.429
 3422TIP3    H231826   0.724   5.441   0.070
 3423TIP3   OH231827   0.514   4.147   8.395
 3423TIP3    H131828   0.489   4.239   8.386
 3423TIP3    H231829   0.593   4.149   8.449
 3424TIP3   OH231830   0.379   5.087   8.280
 3424TIP3    H131831   0.448   5.141   8.319
 3424TIP3    H231832   0.425   5.030   8.219
 3425TIP3   OH231833   0.211   4.403   8.229
 3425TIP3    H131834   0.197   4.496   8.244
 3425TIP3    H231835   0.163   4.384   8.148
 3426TIP3   OH231836   0.993   5.349   8.127
 3426TIP3    H131837   0.924   5.283   8.121
 3426TIP3    H231838   1.071   5.305   8.091
 3427TIP3   OH231839   1.446   5.328   8.163
 3427TIP3    H131840   1.472   5.262   8.227
 3427TIP3    H231841   1.522   5.337   8.106
 3428TIP3   OH231842   0.527   4.904   8.140
 3428TIP3    H131843   0.545   4.841   8.210
 3428TIP3    H231844   0.611   4.917   8.096
 3429TIP3   OH231845   1.171   5.024   8.164
 3429TIP3    H131846   1.125   5.018   8.248
 3429TIP3    H231847   1.152   4.942   8.120
 3430TIP3   OH231848   0.596   4.720   8.337
 3430TIP3    H131849   0.541   4.644   8.354
 3430TIP3    H231850   0.675   4.684   8.296
 3431TIP3   OH231851   0.792   4.569   8.219
 3431TIP3    H131852   0.785   4.595   8.127
 3431TIP3    H231853   0.887   4.564   8.235
 3432TIP3   OH231854   1.696   4.782   8.160
 3432TIP3    H131855   1.693   4.769   8.065
 3432TIP3    H231856   1.683   4.876   8.172
 3433TIP3   OH231857   0.807   5.662   8.380
 3433TIP3    H131858   0.895   5.630   8.363
 3433TIP3    H231859   0.788   5.722   8.307
 3434TIP3   OH231860   0.117   5.138   8.172
 3434TIP3    H131861   0.201   5.126   8.218
 3434TIP3    H231862   0.104   5.056   8.125
 3435TIP3   OH231863   1.848   4.690   8.364
 3435TIP3    H131864   1.801   4.709   8.283
 3435TIP3    H231865   1.815   4.754   8.427
 3436TIP3   OH231866   1.685   4.384   8.186
 3436TIP3    H131867   1.655   4.440   8.114
 3436TIP3    H231868   1.661   4.296   8.159
 3437TIP3   OH231869   1.604   4.136   8.093
 3437TIP3    H131870   1.635   4.087   8.169
 3437TIP3    H231871   1.512   4.111   8.085
 3438TIP3   OH231872   1.754   4.008   8.290
 3438TIP3    H131873   1.797   3.952   8.225
 3438TIP3    H231874   1.825   4.059   8.328
 3439TIP3   OH231875   0.092   3.968   8.344
 3439TIP3    H131876   0.172   3.983   8.294
 3439TIP3    H231877   0.117   3.903   8.410
 3440TIP3   OH231878   0.343   3.999   8.223
 3440TIP3    H131879   0.397   3.937   8.174
 3440TIP3    H231880   0.404   4.040   8.285
 3441TIP3   OH231881   1.046   5.563   8.298
 3441TIP3    H131882   1.141   5.561   8.313
 3441TIP3    H231883   1.032   5.498   8.229
 3442TIP3   OH231884   0.373   5.534   8.233
 3442TIP3    H131885   0.357   5.532   8.327
 3442TIP3    H231886   0.447   5.474   8.221
 3443TIP3   OH231887   2.930   4.519   8.270
 3443TIP3    H131888   2.980   4.587   8.314
 3443TIP3    H231889   2.945   4.535   8.176
 3444TIP3   OH231890   3.138   4.665   8.388
 3444TIP3    H131891   3.171   4.727   8.453
 3444TIP3    H231892   3.195   4.676   8.313
 3445TIP3   OH231893   3.529   3.796   8.411
 3445TIP3    H131894   3.482   3.818   8.492
 3445TIP3    H231895   3.557   3.881   8.376
 3446TIP3   OH231896   3.657   5.271   8.239
 3446TIP3    H131897   3.676   5.360   8.270
 3446TIP3    H231898   3.742   5.230   8.228
 3447TIP3   OH231899   3.207   5.516   8.312
 3447TIP3    H131900   3.255   5.445   8.270
 3447TIP3    H231901   3.241   5.517   8.402
 3448TIP3   OH231902   3.311   4.665   8.175
 3448TIP3    H131903   3.294   4.701   8.088
 3448TIP3    H231904   3.399   4.696   8.197
 3449TIP3   OH231905   2.877   4.180   8.314
 3449TIP3    H131906   2.798   4.195   8.367
 3449TIP3    H231907   2.856   4.105   8.260
 3450TIP3   OH231908   2.569   4.197   8.189
 3450TIP3    H131909   2.521   4.155   8.260
 3450TIP3    H231910   2.503   4.249   8.143
 3451TIP3   OH231911   1.958   4.173   8.374
 3451TIP3    H131912   2.027   4.215   8.323
 3451TIP3    H231913   1.905   4.245   8.407
 3452TIP3   OH231914   2.385   4.475   8.290
 3452TIP3    H131915   2.352   4.425   8.215
 3452TIP3    H231916   2.475   4.498   8.265
 3453TIP3   OH231917   3.185   4.125   8.363
 3453TIP3    H131918   3.134   4.070   8.422
 3453TIP3    H231919   3.270   4.134   8.405
 3454TIP3   OH231920   3.211   4.417   8.489
 3454TIP3    H131921   3.295   4.407   0.033
 3454TIP3    H231922   3.204   4.511   8.472
 3455TIP3   OH231923   2.958   5.038   8.417
 3455TIP3    H131924   2.913   5.122   8.411
 3455TIP3    H231925   2.956   5.016   0.010
 3456TIP3   OH231926   3.695   4.414   8.419
 3456TIP3    H131927   3.645   4.405   8.338
 3456TIP3    H231928   3.729   4.503   8.417
 3457TIP3   OH231929   2.108   4.640   8.300
 3457TIP3    H131930   2.149   4.724   8.322
 3457TIP3    H231931   2.015   4.654   8.317
 3458TIP3   OH231932   3.280   5.058   8.357
 3458TIP3    H131933   3.257   5.068   8.450
 3458TIP3    H231934   3.196   5.054   8.312
 3459TIP3   OH231935   3.726   5.526   8.323
 3459TIP3    H131936   3.798   5.589   8.328
 3459TIP3    H231937   3.649   5.574   8.353
 3460TIP3   OH231938   2.675   5.180   8.138
 3460TIP3    H131939   2.674   5.093   8.097
 3460TIP3    H231940   2.631   5.167   8.222
 3461TIP3   OH231941   2.531   5.173   8.373
 3461TIP3    H131942   2.529   5.109   8.444
 3461TIP3    H231943   2.548   5.257   8.415
 3462TIP3   OH231944   2.212   4.858   8.419
 3462TIP3    H131945   2.180   4.884   0.005
 3462TIP3    H231946   2.237   4.941   8.378
 3463TIP3   OH231947   2.843   5.286   8.397
 3463TIP3    H131948   2.760   5.323   8.426
 3463TIP3    H231949   2.856   5.323   8.310
 3464TIP3   OH231950   2.610   5.417   8.471
 3464TIP3    H131951   2.612   5.497   8.418
 3464TIP3    H231952   2.602   5.447   0.061
 3465TIP3   OH231953   2.451   4.045   8.392
 3465TIP3    H131954   2.387   4.038   8.463
 3465TIP3    H231955   2.498   3.961   8.392
 3466TIP3   OH231956   2.282   5.092   8.282
 3466TIP3    H131957   2.352   5.148   8.314
 3466TIP3    H231958   2.324   5.034   8.219
 3467TIP3   OH231959   2.087   4.368   8.217
 3467TIP3    H131960   2.089   4.463   8.233
 3467TIP3    H231961   2.031   4.357   8.141
 3468TIP3   OH231962   2.884   5.356   8.125
 3468TIP3    H131963   2.816   5.289   8.120
 3468TIP3    H231964   2.963   5.313   8.094
 3469TIP3   OH231965   3.354   5.328   8.168
 3469TIP3    H131966   3.418   5.300   8.234
 3469TIP3    H231967   3.405   5.340   8.088
 3470TIP3   OH231968   2.421   4.897   8.149
 3470TIP3    H131969   2.444   4.848   8.228
 3470TIP3    H231970   2.505   4.911   8.105
 3471TIP3   OH231971   3.049   5.012   8.158
 3471TIP3    H131972   3.004   5.008   8.242
 3471TIP3    H231973   3.028   4.929   8.116
 3472TIP3   OH231974   2.535   4.741   8.379
 3472TIP3    H131975   2.579   4.706   8.457
 3472TIP3    H231976   2.568   4.687   8.307
 3473TIP3   OH231977   2.648   4.556   8.213
 3473TIP3    H131978   2.649   4.588   8.122
 3473TIP3    H231979   2.740   4.536   8.232
 3474TIP3   OH231980   3.567   4.777   8.181
 3474TIP3    H131981   3.574   4.762   8.087
 3474TIP3    H231982   3.554   4.871   8.189
 3475TIP3   OH231983   2.693   5.669   8.376
 3475TIP3    H131984   2.782   5.636   8.362
 3475TIP3    H231985   2.676   5.726   8.301
 3476TIP3   OH231986   2.009   5.104   8.279
 3476TIP3    H131987   2.105   5.112   8.283
 3476TIP3    H231988   1.993   5.041   8.210
 3477TIP3   OH231989   3.749   4.679   8.364
 3477TIP3    H131990   3.690   4.700   8.292
 3477TIP3    H231991   3.729   4.744   8.431
 3478TIP3   OH231992   3.547   4.404   8.190
 3478TIP3    H131993   3.517   4.453   8.114
 3478TIP3    H231994   3.523   4.313   8.171
 3479TIP3   OH231995   3.468   4.153   8.124
 3479TIP3    H131996   3.518   4.098   8.185
 3479TIP3    H231997   3.389   4.101   8.106
 3480TIP3   OH231998   3.643   4.017   8.294
 3480TIP3    H131999   3.686   3.960   8.230
 3480TIP3    H232000   3.714   4.072   8.328
 3481TIP3   OH232001   2.056   3.815   8.352
 3481TIP3    H132002   2.095   3.885   8.299
 3481TIP3    H232003   2.046   3.855   8.439
 3482TIP3   OH232004   2.234   3.993   8.212
 3482TIP3    H132005   2.284   3.933   8.157
 3482TIP3    H232006   2.297   4.024   8.278
 3483TIP3   OH232007   2.935   5.568   8.299
 3483TIP3    H132008   3.029   5.563   8.313
 3483TIP3    H232009   2.917   5.508   8.227
 3484TIP3   OH232010   2.235   5.518   8.202
 3484TIP3    H132011   2.222   5.521   8.297
 3484TIP3    H232012   2.310   5.460   8.189
 3485TIP3   OH232013   4.840   4.572   8.241
 3485TIP3    H132014   4.891   4.586   8.321
 3485TIP3    H232015   4.902   4.532   8.180
 3486TIP3   OH232016   5.049   4.669   8.429
 3486TIP3    H132017   4.999   4.751   8.424
 3486TIP3    H232018   5.114   4.676   8.359
 3487TIP3   OH232019   5.414   3.794   8.420
 3487TIP3    H132020   5.354   3.816   8.492
 3487TIP3    H232021   5.442   3.879   8.386
 3488TIP3   OH232022   5.543   5.270   8.247
 3488TIP3    H132023   5.568   5.359   8.273
 3488TIP3    H232024   5.622   5.218   8.260
 3489TIP3   OH232025   5.096   5.532   8.320
 3489TIP3    H132026   5.139   5.461   8.272
 3489TIP3    H232027   5.120   5.517   8.411
 3490TIP3   OH232028   5.234   4.711   8.241
 3490TIP3    H132029   5.191   4.783   8.195
 3490TIP3    H232030   5.326   4.717   8.214
 3491TIP3   OH232031   4.726   4.106   8.335
 3491TIP3    H132032   4.648   4.162   8.335
 3491TIP3    H232033   4.705   4.037   8.272
 3492TIP3   OH232034   4.452   4.170   8.181
 3492TIP3    H132035   4.400   4.151   8.259
 3492TIP3    H232036   4.397   4.229   8.129
 3493TIP3   OH232037   3.847   4.181   8.385
 3493TIP3    H132038   3.919   4.226   8.340
 3493TIP3    H232039   3.791   4.251   8.418
 3494TIP3   OH232040   4.336   4.444   8.298
 3494TIP3    H132041   4.292   4.414   8.219
 3494TIP3    H232042   4.422   4.474   8.269
 3495TIP3   OH232043   4.999   4.174   8.330
 3495TIP3    H132044   4.906   4.157   8.344
 3495TIP3    H232045   5.020   4.244   8.392
 3496TIP3   OH232046   5.067   4.399   0.000
 3496TIP3    H132047   5.158   4.382   0.024
 3496TIP3    H232048   5.066   4.491   8.474
 3497TIP3   OH232049   4.823   5.021   8.438
 3497TIP3    H132050   4.800   5.114   8.430
 3497TIP3    H232051   4.778   4.993   0.018
 3498TIP3   OH232052   5.594   4.414   8.420
 3498TIP3    H132053   5.549   4.397   8.337
 3498TIP3    H232054   5.622   4.505   8.413
 3499TIP3   OH232055   4.011   4.654   8.286
 3499TIP3    H132056   4.048   4.730   8.330
 3499TIP3    H232057   3.918   4.656   8.309
 3500TIP3   OH232058   5.172   5.128   8.382
 3500TIP3    H132059   5.134   5.082   8.457
 3500TIP3    H232060   5.143   5.077   8.306
 3501TIP3   OH232061   5.628   5.523   8.340
 3501TIP3    H132062   5.696   5.590   8.341
 3501TIP3    H232063   5.550   5.568   8.373
 3502TIP3   OH232064   4.546   5.194   8.156
 3502TIP3    H132065   4.597   5.116   8.133
 3502TIP3    H232066   4.497   5.169   8.235
 3503TIP3   OH232067   4.405   5.166   8.397
 3503TIP3    H132068   4.407   5.107   8.473
 3503TIP3    H232069   4.430   5.251   8.433
 3504TIP3   OH232070   4.069   4.886   8.428
 3504TIP3    H132071   4.142   4.877   8.489
 3504TIP3    H232072   4.090   4.963   8.376
 3505TIP3   OH232073   4.729   5.276   8.400
 3505TIP3    H132074   4.645   5.318   8.420
 3505TIP3    H232075   4.745   5.298   8.308
 3506TIP3   OH232076   4.496   5.417   8.467
 3506TIP3    H132077   4.491   5.490   8.404
 3506TIP3    H232078   4.499   5.459   0.053
 3507TIP3   OH232079   4.269   4.139   8.393
 3507TIP3    H132080   4.233   4.228   8.394
 3507TIP3    H232081   4.343   4.142   8.454
 3508TIP3   OH232082   4.162   5.100   8.283
 3508TIP3    H132083   4.236   5.145   8.324
 3508TIP3    H232084   4.202   5.043   8.217
 3509TIP3   OH232085   4.005   4.376   8.261
 3509TIP3    H132086   4.025   4.469   8.276
 3509TIP3    H232087   3.971   4.373   8.172
 3510TIP3   OH232088   4.778   5.349   8.130
 3510TIP3    H132089   4.706   5.287   8.122
 3510TIP3    H232090   4.854   5.302   8.097
 3511TIP3   OH232091   5.225   5.335   8.182
 3511TIP3    H132092   5.240   5.262   8.241
 3511TIP3    H232093   5.303   5.337   8.126
 3512TIP3   OH232094   4.289   4.910   8.135
 3512TIP3    H132095   4.307   4.848   8.205
 3512TIP3    H232096   4.373   4.920   8.090
 3513TIP3   OH232097   4.792   5.050   8.162
 3513TIP3    H132098   4.800   5.029   8.255
 3513TIP3    H232099   4.875   5.021   8.123
 3514TIP3   OH232100   4.371   4.727   8.333
 3514TIP3    H132101   4.320   4.647   8.342
 3514TIP3    H232102   4.450   4.700   8.286
 3515TIP3   OH232103   4.567   4.577   8.204
 3515TIP3    H132104   4.561   4.601   8.111
 3515TIP3    H232105   4.661   4.570   8.222
 3516TIP3   OH232106   5.493   4.771   8.160
 3516TIP3    H132107   5.483   4.753   8.066
 3516TIP3    H232108   5.477   4.865   8.169
 3517TIP3   OH232109   4.577   5.681   8.375
 3517TIP3    H132110   4.662   5.639   8.366
 3517TIP3    H232111   4.568   5.734   8.296
 3518TIP3   OH232112   3.903   5.140   8.200
 3518TIP3    H132113   3.989   5.134   8.242
 3518TIP3    H232114   3.890   5.056   8.158
 3519TIP3   OH232115   5.648   4.679   8.365
 3519TIP3    H132116   5.598   4.697   8.285
 3519TIP3    H232117   5.632   4.755   8.421
 3520TIP3   OH232118   5.462   4.380   8.184
 3520TIP3    H132119   5.431   4.440   8.117
 3520TIP3    H232120   5.426   4.295   8.159
 3521TIP3   OH232121   5.353   4.134   8.116
 3521TIP3    H132122   5.377   4.094   8.200
 3521TIP3    H232123   5.259   4.118   8.108
 3522TIP3   OH232124   5.526   4.012   8.298
 3522TIP3    H132125   5.579   3.961   8.236
 3522TIP3    H232126   5.586   4.078   8.333
 3523TIP3   OH232127   3.937   3.835   8.358
 3523TIP3    H132128   3.984   3.894   8.299
 3523TIP3    H232129   3.905   3.893   8.428
 3524TIP3   OH232130   4.110   3.999   8.213
 3524TIP3    H132131   4.169   3.947   8.159
 3524TIP3    H232132   4.167   4.041   8.278
 3525TIP3   OH232133   4.816   5.562   8.308
 3525TIP3    H132134   4.911   5.567   8.316
 3525TIP3    H232135   4.801   5.498   8.238
 3526TIP3   OH232136   4.129   5.536   8.192
 3526TIP3    H132137   4.109   5.533   8.285
 3526TIP3    H232138   4.198   5.471   8.180
 3527TIP3   OH232139   6.738   4.553   8.236
 3527TIP3    H132140   6.797   4.584   8.306
 3527TIP3    H232141   6.794   4.500   8.180
 3528TIP3   OH232142   6.957   4.631   8.394
 3528TIP3    H132143   6.978   4.681   8.473
 3528TIP3    H232144   7.012   4.669   8.326
 3529TIP3   OH232145   6.986   5.503   8.299
 3529TIP3    H132146   7.034   5.426   8.268
 3529TIP3    H232147   7.009   5.510   8.392
 3530TIP3   OH232148   7.136   4.794   8.256
 3530TIP3    H132149   7.118   4.772   8.165
 3530TIP3    H232150   7.115   4.887   8.262
 3531TIP3   OH232151   6.605   4.100   8.349
 3531TIP3    H132152   6.535   4.164   8.337
 3531TIP3    H232153   6.582   4.029   8.289
 3532TIP3   OH232154   6.339   4.171   8.175
 3532TIP3    H132155   6.292   4.164   8.258
 3532TIP3    H232156   6.285   4.227   8.120
 3533TIP3   OH232157   5.740   4.175   8.382
 3533TIP3    H132158   5.802   4.225   8.328
 3533TIP3    H232159   5.686   4.242   8.424
 3534TIP3   OH232160   6.224   4.431   8.304
 3534TIP3    H132161   6.183   4.411   8.220
 3534TIP3    H232162   6.311   4.463   8.281
 3535TIP3   OH232163   6.872   4.172   8.317
 3535TIP3    H132164   6.781   4.150   8.335
 3535TIP3    H232165   6.893   4.240   8.381
 3536TIP3   OH232166   6.947   4.375   8.496
 3536TIP3    H132167   7.036   4.343   0.015
 3536TIP3    H232168   6.961   4.459   8.453
 3537TIP3   OH232169   6.744   5.044   8.401
 3537TIP3    H132170   6.694   5.126   8.402
 3537TIP3    H232171   6.721   5.001   8.483
 3538TIP3   OH232172   5.909   4.637   8.292
 3538TIP3    H132173   5.948   4.714   8.334
 3538TIP3    H232174   5.816   4.644   8.313
 3539TIP3   OH232175   7.024   5.059   8.364
 3539TIP3    H132176   7.032   5.066   8.459
 3539TIP3    H232177   6.930   5.050   8.349
 3540TIP3   OH232178   6.441   5.178   8.141
 3540TIP3    H132179   6.445   5.093   8.098
 3540TIP3    H232180   6.394   5.162   8.223
 3541TIP3   OH232181   6.295   5.163   8.377
 3541TIP3    H132182   6.295   5.099   8.448
 3541TIP3    H232183   6.314   5.247   8.421
 3542TIP3   OH232184   5.978   4.867   8.421
 3542TIP3    H132185   6.037   4.879   8.495
 3542TIP3    H232186   5.987   4.948   8.370
 3543TIP3   OH232187   6.608   5.280   8.394
 3543TIP3    H132188   6.524   5.317   8.422
 3543TIP3    H232189   6.620   5.313   8.305
 3544TIP3   OH232190   6.376   5.411   8.471
 3544TIP3    H132191   6.379   5.489   8.415
 3544TIP3    H232192   6.369   5.445   0.060
 3545TIP3   OH232193   6.172   4.153   8.398
 3545TIP3    H132194   6.147   4.245   8.393
 3545TIP3    H232195   6.241   4.150   8.464
 3546TIP3   OH232196   6.044   5.096   8.275
 3546TIP3    H132197   6.117   5.148   8.311
 3546TIP3    H232198   6.085   5.039   8.210
 3547TIP3   OH232199   5.879   4.366   8.238
 3547TIP3    H132200   5.906   4.455   8.260
 3547TIP3    H232201   5.833   4.375   8.154
 3548TIP3   OH232202   6.655   5.350   8.124
 3548TIP3    H132203   6.587   5.283   8.117
 3548TIP3    H232204   6.734   5.309   8.089
 3549TIP3   OH232205   7.123   5.260   8.196
 3549TIP3    H132206   7.093   5.190   8.255
 3549TIP3    H232207   7.217   5.248   8.190
 3550TIP3   OH232208   6.185   4.910   8.132
 3550TIP3    H132209   6.202   4.849   8.204
 3550TIP3    H232210   6.271   4.921   8.090
 3551TIP3   OH232211   6.773   5.035   8.126
 3551TIP3    H132212   6.750   5.029   8.219
 3551TIP3    H232213   6.771   4.944   8.095
 3552TIP3   OH232214   6.261   4.728   8.333
 3552TIP3    H132215   6.199   4.655   8.343
 3552TIP3    H232216   6.339   4.688   8.295
 3553TIP3   OH232217   6.461   4.570   8.225
 3553TIP3    H132218   6.452   4.598   8.133
 3553TIP3    H232219   6.555   4.558   8.237
 3554TIP3   OH232220   6.465   5.662   8.376
 3554TIP3    H132221   6.554   5.630   8.361
 3554TIP3    H232222   6.448   5.720   8.301
 3555TIP3   OH232223   5.771   5.104   8.275
 3555TIP3    H132224   5.866   5.115   8.278
 3555TIP3    H232225   5.755   5.039   8.207
 3556TIP3   OH232226   7.250   4.110   8.134
 3556TIP3    H132227   7.278   4.051   8.203
 3556TIP3    H232228   7.158   4.088   8.119
 3557TIP3   OH232229   5.799   3.904   8.396
 3557TIP3    H132230   5.785   3.999   8.395
 3557TIP3    H232231   5.777   3.878   8.486
 3558TIP3   OH232232   6.049   3.997   8.208
 3558TIP3    H132233   6.121   3.952   8.163
 3558TIP3    H232234   6.093   4.046   8.278
 3559TIP3   OH232235   6.709   5.561   8.299
 3559TIP3    H132236   6.804   5.556   8.306
 3559TIP3    H232237   6.687   5.501   8.228
 3560TIP3   OH232238   6.007   5.518   8.205
 3560TIP3    H132239   5.997   5.520   8.300
 3560TIP3    H232240   6.081   5.459   8.190
 3561TIP3   OH232241   1.067   6.458   8.232
 3561TIP3    H132242   1.118   6.489   8.307
 3561TIP3    H232243   1.126   6.397   8.188
 3562TIP3   OH232244   1.272   6.532   8.408
 3562TIP3    H132245   1.310   6.589   8.475
 3562TIP3    H232246   1.324   6.548   8.330
 3563TIP3   OH232247   1.640   5.680   8.410
 3563TIP3    H132248   1.583   5.704   8.484
 3563TIP3    H232249   1.670   5.763   8.375
 3564TIP3   OH232250   1.760   7.115   8.243
 3564TIP3    H132251   1.752   7.195   8.294
 3564TIP3    H232252   1.854   7.099   8.239
 3565TIP3   OH232253   1.427   6.573   8.192
 3565TIP3    H132254   1.407   6.592   8.100
 3565TIP3    H232255   1.517   6.602   8.204
 3566TIP3   OH232256   0.972   6.012   8.302
 3566TIP3    H132257   0.970   5.999   8.397
 3566TIP3    H232258   0.926   5.936   8.266
 3567TIP3   OH232259   0.642   6.039   8.145
 3567TIP3    H132260   0.611   6.032   8.235
 3567TIP3    H232261   0.594   6.113   8.108
 3568TIP3   OH232262   0.129   6.183   8.476
 3568TIP3    H132263   0.149   6.209   8.386
 3568TIP3    H232264   0.041   6.145   8.471
 3569TIP3   OH232265   0.571   6.291   8.300
 3569TIP3    H132266   0.517   6.293   8.221
 3569TIP3    H232267   0.650   6.338   8.276
 3570TIP3   OH232268   1.231   6.112   8.286
 3570TIP3    H132269   1.141   6.082   8.299
 3570TIP3    H232270   1.256   6.151   8.369
 3571TIP3   OH232271   1.301   6.277   0.007
 3571TIP3    H132272   1.391   6.270   0.038
 3571TIP3    H232273   1.295   6.365   8.469
 3572TIP3   OH232274   1.104   6.941   8.398
 3572TIP3    H132275   1.058   7.025   8.403
 3572TIP3    H232276   1.097   6.905   8.486
 3573TIP3   OH232277   1.815   6.301   8.416
 3573TIP3    H132278   1.770   6.286   8.332
 3573TIP3    H232279   1.841   6.393   8.414
 3574TIP3   OH232280   0.154   6.574   8.270
 3574TIP3    H132281   0.201   6.633   8.328
 3574TIP3    H232282   0.062   6.596   8.282
 3575TIP3   OH232283   1.391   6.942   8.337
 3575TIP3    H132284   1.414   7.013   8.398
 3575TIP3    H232285   1.297   6.932   8.347
 3576TIP3   OH232286   0.815   7.019   8.166
 3576TIP3    H132287   0.814   6.939   8.114
 3576TIP3    H232288   0.776   6.994   8.250
 3577TIP3   OH232289   0.652   7.027   8.396
 3577TIP3    H132290   0.641   6.972   8.474
 3577TIP3    H232291   0.673   7.114   8.430
 3578TIP3   OH232292   0.259   6.789   8.432
 3578TIP3    H132293   0.327   6.754   8.490
 3578TIP3    H232294   0.304   6.855   8.379
 3579TIP3   OH232295   0.974   7.191   8.410
 3579TIP3    H132296   0.883   7.218   8.422
 3579TIP3    H232297   0.993   7.211   8.319
 3580TIP3   OH232298   0.715   7.296   8.437
 3580TIP3    H132299   0.693   0.012   8.346
 3580TIP3    H232300   0.721   0.078   8.480
 3581TIP3   OH232301   0.526   6.029   8.400
 3581TIP3    H132302   0.515   6.123   8.386
 3581TIP3    H232303   0.599   6.022   8.461
 3582TIP3   OH232304   0.395   6.974   8.277
 3582TIP3    H132305   0.464   7.027   8.318
 3582TIP3    H232306   0.443   6.911   8.223
 3583TIP3   OH232307   0.171   6.292   8.227
 3583TIP3    H132308   0.177   6.386   8.244
 3583TIP3    H232309   0.134   6.287   8.139
 3584TIP3   OH232310   1.013   7.213   8.141
 3584TIP3    H132311   0.953   7.139   8.131
 3584TIP3    H232312   1.091   7.187   8.092
 3585TIP3   OH232313   1.473   7.212   8.175
 3585TIP3    H132314   1.503   7.194   8.265
 3585TIP3    H232315   1.553   7.215   8.123
 3586TIP3   OH232316   0.537   6.779   8.149
 3586TIP3    H132317   0.565   6.726   8.224
 3586TIP3    H232318   0.616   6.791   8.096
 3587TIP3   OH232319   1.126   6.910   8.120
 3587TIP3    H132320   1.109   6.907   8.214
 3587TIP3    H232321   1.117   6.819   8.091
 3588TIP3   OH232322   0.658   6.628   8.358
 3588TIP3    H132323   0.696   6.591   8.438
 3588TIP3    H232324   0.696   6.576   8.287
 3589TIP3   OH232325   0.793   6.443   8.205
 3589TIP3    H132326   0.787   6.470   8.114
 3589TIP3    H232327   0.886   6.442   8.224
 3590TIP3   OH232328   1.690   6.662   8.176
 3590TIP3    H132329   1.694   6.636   8.085
 3590TIP3    H232330   1.666   6.755   8.174
 3591TIP3   OH232331   0.159   7.040   8.142
 3591TIP3    H132332   0.236   7.019   8.194
 3591TIP3    H232333   0.129   6.955   8.108
 3592TIP3   OH232334   1.856   6.572   8.373
 3592TIP3    H132335   1.802   6.593   8.296
 3592TIP3    H232336   1.831   6.637   8.438
 3593TIP3   OH232337   1.683   6.273   8.177
 3593TIP3    H132338   1.643   6.327   8.108
 3593TIP3    H232339   1.662   6.183   8.153
 3594TIP3   OH232340   1.604   6.022   8.092
 3594TIP3    H132341   1.636   5.975   8.169
 3594TIP3    H232342   1.512   5.997   8.085
 3595TIP3   OH232343   1.754   5.900   8.293
 3595TIP3    H132344   1.799   5.842   8.232
 3595TIP3    H232345   1.824   5.954   8.331
 3596TIP3   OH232346   0.083   5.839   8.292
 3596TIP3    H132347   0.174   5.862   8.274
 3596TIP3    H232348   0.088   5.770   8.358
 3597TIP3   OH232349   0.348   5.892   8.232
 3597TIP3    H132350   0.401   5.832   8.180
 3597TIP3    H232351   0.409   5.926   8.298
 3598TIP3   OH232352   2.942   6.439   8.248
 3598TIP3    H132353   2.996   6.474   8.318
 3598TIP3    H232354   2.980   6.354   8.227
 3599TIP3   OH232355   3.149   6.531   8.408
 3599TIP3    H132356   3.183   6.586   8.479
 3599TIP3    H232357   3.206   6.552   8.333
 3600TIP3   OH232358   3.527   5.702   8.402
 3600TIP3    H132359   3.467   5.725   8.473
 3600TIP3    H232360   3.554   5.786   8.365
 3601TIP3   OH232361   3.726   7.164   8.289
 3601TIP3    H132362   3.731   7.236   8.226
 3601TIP3    H232363   3.794   7.103   8.261
 3602TIP3   OH232364   3.323   6.567   8.206
 3602TIP3    H132365   3.301   6.583   8.115
 3602TIP3    H232366   3.411   6.605   8.217
 3603TIP3   OH232367   2.852   6.002   8.314
 3603TIP3    H132368   2.770   6.039   8.347
 3603TIP3    H232369   2.825   5.929   8.259
 3604TIP3   OH232370   2.558   6.058   8.178
 3604TIP3    H132371   2.507   6.033   8.255
 3604TIP3    H232372   2.501   6.117   8.129
 3605TIP3   OH232373   1.961   6.058   8.391
 3605TIP3    H132374   2.030   6.102   8.341
 3605TIP3    H232375   1.905   6.128   8.423
 3606TIP3   OH232376   2.436   6.336   8.308
 3606TIP3    H132377   2.387   6.301   8.234
 3606TIP3    H232378   2.522   6.359   8.272
 3607TIP3   OH232379   3.104   6.116   8.282
 3607TIP3    H132380   3.020   6.074   8.301
 3607TIP3    H232381   3.135   6.148   8.367
 3608TIP3   OH232382   3.190   6.274   8.497
 3608TIP3    H132383   3.279   6.270   0.032
 3608TIP3    H232384   3.179   6.365   8.470
 3609TIP3   OH232385   2.957   6.961   8.404
 3609TIP3    H132386   2.917   7.047   8.408
 3609TIP3    H232387   2.917   6.912   8.475
 3610TIP3   OH232388   3.709   6.309   8.440
 3610TIP3    H132389   3.663   6.290   8.359
 3610TIP3    H232390   3.748   6.396   8.426
 3611TIP3   OH232391   2.113   6.523   8.286
 3611TIP3    H132392   2.160   6.595   8.328
 3611TIP3    H232393   2.023   6.534   8.315
 3612TIP3   OH232394   3.276   6.995   8.298
 3612TIP3    H132395   3.234   6.982   8.383
 3612TIP3    H232396   3.213   6.960   8.235
 3613TIP3   OH232397   2.723   7.035   8.150
 3613TIP3    H132398   2.711   6.954   8.099
 3613TIP3    H232399   2.673   7.019   8.230
 3614TIP3   OH232400   2.560   7.034   8.372
 3614TIP3    H132401   2.547   6.970   8.442
 3614TIP3    H232402   2.567   7.118   8.416
 3615TIP3   OH232403   2.205   6.744   8.418
 3615TIP3    H132404   2.190   6.755   0.012
 3615TIP3    H232405   2.233   6.830   8.388
 3616TIP3   OH232406   2.849   7.220   8.406
 3616TIP3    H132407   2.759   7.247   8.423
 3616TIP3    H232408   2.864   7.242   8.314
 3617TIP3   OH232409   2.581   7.296   8.457
 3617TIP3    H132410   2.543   0.065   8.407
 3617TIP3    H232411   2.544   0.002   0.045
 3618TIP3   OH232412   2.388   6.004   8.392
 3618TIP3    H132413   2.334   6.082   8.409
 3618TIP3    H232414   2.462   6.013   8.452
 3619TIP3   OH232415   2.291   6.980   8.295
 3619TIP3    H132416   2.364   7.030   8.329
 3619TIP3    H232417   2.329   6.924   8.227
 3620TIP3   OH232418   2.111   6.249   8.254
 3620TIP3    H132419   2.128   6.341   8.271
 3620TIP3    H232420   2.063   6.248   8.171
 3621TIP3   OH232421   2.930   7.220   8.123
 3621TIP3    H132422   2.875   7.142   8.132
 3621TIP3    H232423   2.880   7.278   8.066
 3622TIP3   OH232424   3.393   7.233   8.226
 3622TIP3    H132425   3.348   7.151   8.245
 3622TIP3    H232426   3.426   7.223   8.137
 3623TIP3   OH232427   2.426   6.805   8.135
 3623TIP3    H132428   2.441   6.743   8.206
 3623TIP3    H232429   2.510   6.810   8.089
 3624TIP3   OH232430   3.064   6.899   8.153
 3624TIP3    H132431   3.010   6.912   8.231
 3624TIP3    H232432   3.038   6.813   8.120
 3625TIP3   OH232433   2.488   6.623   8.336
 3625TIP3    H132434   2.420   6.558   8.354
 3625TIP3    H232435   2.558   6.574   8.294
 3626TIP3   OH232436   2.671   6.461   8.212
 3626TIP3    H132437   2.667   6.485   8.119
 3626TIP3    H232438   2.764   6.449   8.230
 3627TIP3   OH232439   3.576   6.684   8.190
 3627TIP3    H132440   3.583   6.663   8.097
 3627TIP3    H232441   3.572   6.779   8.194
 3628TIP3   OH232442   2.028   7.021   8.229
 3628TIP3    H132443   2.116   7.006   8.262
 3628TIP3    H232444   2.009   6.943   8.176
 3629TIP3   OH232445   3.760   6.570   8.361
 3629TIP3    H132446   3.703   6.593   8.288
 3629TIP3    H232447   3.731   6.625   8.434
 3630TIP3   OH232448   3.570   6.284   8.209
 3630TIP3    H132449   3.546   6.342   8.137
 3630TIP3    H232450   3.543   6.197   8.180
 3631TIP3   OH232451   3.478   6.045   8.083
 3631TIP3    H132452   3.529   5.997   8.148
 3631TIP3    H232453   3.391   6.006   8.088
 3632TIP3   OH232454   3.641   5.919   8.266
 3632TIP3    H132455   3.685   5.849   8.217
 3632TIP3    H232456   3.712   5.963   8.314
 3633TIP3   OH232457   2.032   5.747   8.374
 3633TIP3    H132458   2.094   5.771   8.305
 3633TIP3    H232459   2.005   5.831   8.412
 3634TIP3   OH232460   2.227   5.869   8.210
 3634TIP3    H132461   2.283   5.811   8.157
 3634TIP3    H232462   2.287   5.905   8.275
 3635TIP3   OH232463   4.839   6.441   8.221
 3635TIP3    H132464   4.886   6.460   8.302
 3635TIP3    H232465   4.898   6.383   8.172
 3636TIP3   OH232466   5.024   6.493   8.417
 3636TIP3    H132467   5.045   6.548   8.493
 3636TIP3    H232468   5.077   6.529   8.346
 3637TIP3   OH232469   5.420   5.682   8.429
 3637TIP3    H132470   5.324   5.686   8.425
 3637TIP3    H232471   5.449   5.763   8.387
 3638TIP3   OH232472   5.552   7.146   8.205
 3638TIP3    H132473   5.535   7.199   8.283
 3638TIP3    H232474   5.636   7.104   8.222
 3639TIP3   OH232475   5.180   6.636   8.249
 3639TIP3    H132476   5.136   6.672   8.172
 3639TIP3    H232477   5.262   6.600   8.215
 3640TIP3   OH232478   4.735   5.997   8.327
 3640TIP3    H132479   4.656   6.052   8.329
 3640TIP3    H232480   4.712   5.925   8.267
 3641TIP3   OH232481   4.454   6.073   8.177
 3641TIP3    H132482   4.407   6.026   8.245
 3641TIP3    H232483   4.388   6.128   8.134
 3642TIP3   OH232484   3.843   6.065   8.390
 3642TIP3    H132485   3.918   6.110   8.351
 3642TIP3    H232486   3.793   6.135   8.432
 3643TIP3   OH232487   4.332   6.354   8.310
 3643TIP3    H132488   4.278   6.304   8.249
 3643TIP3    H232489   4.416   6.364   8.266
 3644TIP3   OH232490   4.999   6.092   8.300
 3644TIP3    H132491   4.911   6.061   8.319
 3644TIP3    H232492   5.030   6.129   8.383
 3645TIP3   OH232493   5.088   6.254   0.033
 3645TIP3    H132494   5.183   6.263   0.046
 3645TIP3    H232495   5.063   6.333   8.484
 3646TIP3   OH232496   4.869   6.940   8.383
 3646TIP3    H132497   4.828   7.024   8.401
 3646TIP3    H232498   4.863   6.891   8.465
 3647TIP3   OH232499   5.618   6.288   8.457
 3647TIP3    H132500   5.571   6.258   8.379
 3647TIP3    H232501   5.630   6.382   8.443
 3648TIP3   OH232502   4.016   6.553   8.271
 3648TIP3    H132503   4.055   6.630   8.312
 3648TIP3    H232504   3.925   6.553   8.301
 3649TIP3   OH232505   5.181   6.984   8.311
 3649TIP3    H132506   5.201   7.022   8.396
 3649TIP3    H232507   5.099   6.937   8.324
 3650TIP3   OH232508   4.574   7.035   8.149
 3650TIP3    H132509   4.581   6.952   8.101
 3650TIP3    H232510   4.540   7.010   8.235
 3651TIP3   OH232511   4.435   7.020   8.389
 3651TIP3    H132512   4.418   6.961   8.462
 3651TIP3    H232513   4.454   7.104   8.431
 3652TIP3   OH232514   4.051   6.763   8.462
 3652TIP3    H132515   4.027   6.692   0.022
 3652TIP3    H232516   4.143   6.780   8.481
 3653TIP3   OH232517   4.747   7.191   8.423
 3653TIP3    H132518   4.655   7.216   8.431
 3653TIP3    H232519   4.768   7.210   8.331
 3654TIP3   OH232520   4.487   7.291   8.431
 3654TIP3    H132521   4.471   0.026   8.344
 3654TIP3    H232522   4.469   0.059   8.492
 3655TIP3   OH232523   4.334   5.921   8.371
 3655TIP3    H132524   4.362   5.980   8.441
 3655TIP3    H232525   4.375   5.837   8.393
 3656TIP3   OH232526   4.195   7.009   8.248
 3656TIP3    H132527   4.269   7.035   8.303
 3656TIP3    H232528   4.226   6.932   8.200
 3657TIP3   OH232529   4.002   6.273   8.277
 3657TIP3    H132530   4.024   6.366   8.279
 3657TIP3    H232531   3.985   6.254   8.185
 3658TIP3   OH232532   4.788   7.221   8.158
 3658TIP3    H132533   4.732   7.149   8.131
 3658TIP3    H232534   4.865   7.214   8.101
 3659TIP3   OH232535   5.229   7.226   8.186
 3659TIP3    H132536   5.217   7.157   8.251
 3659TIP3    H232537   5.324   7.240   8.183
 3660TIP3   OH232538   4.305   6.791   8.126
 3660TIP3    H132539   4.320   6.731   8.198
 3660TIP3    H232540   4.390   6.796   8.081
 3661TIP3   OH232541   4.886   6.919   8.104
 3661TIP3    H132542   4.872   6.920   8.199
 3661TIP3    H232543   4.886   6.826   8.081
 3662TIP3   OH232544   4.381   6.622   8.330
 3662TIP3    H132545   4.334   6.540   8.343
 3662TIP3    H232546   4.463   6.597   8.288
 3663TIP3   OH232547   4.568   6.467   8.195
 3663TIP3    H132548   4.563   6.488   8.102
 3663TIP3    H232549   4.661   6.451   8.211
 3664TIP3   OH232550   5.501   6.789   8.270
 3664TIP3    H132551   5.485   6.710   8.217
 3664TIP3    H232552   5.472   6.861   8.215
 3665TIP3   OH232553   3.927   7.008   8.199
 3665TIP3    H132554   4.017   7.002   8.231
 3665TIP3    H232555   3.912   6.924   8.156
 3666TIP3   OH232556   5.621   6.542   8.356
 3666TIP3    H132557   5.567   6.522   8.280
 3666TIP3    H232558   5.606   6.635   8.373
 3667TIP3   OH232559   5.469   6.249   8.234
 3667TIP3    H132560   5.446   6.331   8.190
 3667TIP3    H232561   5.430   6.181   8.181
 3668TIP3   OH232562   5.371   6.024   8.096
 3668TIP3    H132563   5.401   5.976   8.172
 3668TIP3    H232564   5.279   6.000   8.087
 3669TIP3   OH232565   5.522   5.894   8.289
 3669TIP3    H132566   5.565   5.839   8.223
 3669TIP3    H232567   5.592   5.949   8.323
 3670TIP3   OH232568   3.912   5.741   8.356
 3670TIP3    H132569   3.973   5.776   8.291
 3670TIP3    H232570   3.913   5.805   8.426
 3671TIP3   OH232571   4.114   5.876   8.208
 3671TIP3    H132572   4.163   5.817   8.149
 3671TIP3    H232573   4.177   5.899   8.276
 3672TIP3   OH232574   6.737   6.452   8.239
 3672TIP3    H132575   6.795   6.478   8.311
 3672TIP3    H232576   6.790   6.392   8.187
 3673TIP3   OH232577   6.962   6.523   8.396
 3673TIP3    H132578   6.984   6.570   8.476
 3673TIP3    H232579   7.018   6.563   8.328
 3674TIP3   OH232580   7.139   6.684   8.253
 3674TIP3    H132581   7.118   6.659   8.163
 3674TIP3    H232582   7.114   6.776   8.259
 3675TIP3   OH232583   6.616   5.997   8.316
 3675TIP3    H132584   6.534   6.041   8.336
 3675TIP3    H232585   6.591   5.922   8.261
 3676TIP3   OH232586   6.336   6.059   8.177
 3676TIP3    H132587   6.283   6.032   8.252
 3676TIP3    H232588   6.279   6.118   8.128
 3677TIP3   OH232589   5.740   6.038   8.392
 3677TIP3    H132590   5.798   6.086   8.333
 3677TIP3    H232591   5.697   6.106   8.444
 3678TIP3   OH232592   6.216   6.338   8.304
 3678TIP3    H132593   6.172   6.303   8.227
 3678TIP3    H232594   6.305   6.356   8.275
 3679TIP3   OH232595   6.869   6.102   8.272
 3679TIP3    H132596   6.782   6.066   8.289
 3679TIP3    H232597   6.892   6.149   8.352
 3680TIP3   OH232598   6.946   6.263   8.486
 3680TIP3    H132599   7.034   6.232   0.011
 3680TIP3    H232600   6.961   6.351   8.453
 3681TIP3   OH232601   6.752   6.952   8.386
 3681TIP3    H132602   6.709   7.036   8.399
 3681TIP3    H232603   6.741   6.906   8.469
 3682TIP3   OH232604   5.880   6.517   8.273
 3682TIP3    H132605   5.922   6.593   8.313
 3682TIP3    H232606   5.790   6.519   8.305
 3683TIP3   OH232607   7.031   6.950   8.320
 3683TIP3    H132608   7.049   6.962   8.413
 3683TIP3    H232609   6.935   6.949   8.315
 3684TIP3   OH232610   6.468   7.039   8.150
 3684TIP3    H132611   6.478   6.954   8.108
 3684TIP3    H232612   6.427   7.020   8.234
 3685TIP3   OH232613   6.324   7.026   8.384
 3685TIP3    H132614   6.311   6.961   8.453
 3685TIP3    H232615   6.341   7.108   8.430
 3686TIP3   OH232616   5.951   6.744   8.410
 3686TIP3    H132617   5.962   6.725   0.004
 3686TIP3    H232618   5.998   6.826   8.397
 3687TIP3   OH232619   6.628   7.202   8.414
 3687TIP3    H132620   6.537   7.231   8.421
 3687TIP3    H232621   6.652   7.220   8.323
 3688TIP3   OH232622   6.366   7.296   8.439
 3688TIP3    H132623   6.336   0.042   8.363
 3688TIP3    H232624   6.325   0.036   0.014
 3689TIP3   OH232625   6.165   6.000   8.391
 3689TIP3    H132626   6.109   6.076   8.409
 3689TIP3    H232627   6.239   6.010   8.451
 3690TIP3   OH232628   6.065   6.977   8.293
 3690TIP3    H132629   6.144   7.017   8.329
 3690TIP3    H232630   6.097   6.919   8.224
 3691TIP3   OH232631   5.859   6.238   8.235
 3691TIP3    H132632   5.884   6.328   8.255
 3691TIP3    H232633   5.801   6.245   8.159
 3692TIP3   OH232634   6.693   7.209   8.150
 3692TIP3    H132635   6.621   7.148   8.135
 3692TIP3    H232636   6.750   7.198   8.074
 3693TIP3   OH232637   7.171   7.179   8.223
 3693TIP3    H132638   7.123   7.097   8.232
 3693TIP3    H232639   7.184   7.189   8.129
 3694TIP3   OH232640   6.192   6.798   8.128
 3694TIP3    H132641   6.197   6.734   8.198
 3694TIP3    H232642   6.280   6.802   8.092
 3695TIP3   OH232643   6.763   6.913   8.109
 3695TIP3    H132644   6.743   6.919   8.202
 3695TIP3    H232645   6.758   6.820   8.089
 3696TIP3   OH232646   6.255   6.617   8.330
 3696TIP3    H132647   6.200   6.540   8.341
 3696TIP3    H232648   6.338   6.583   8.295
 3697TIP3   OH232649   6.461   6.464   8.224
 3697TIP3    H132650   6.453   6.483   8.130
 3697TIP3    H232651   6.556   6.454   8.237
 3698TIP3   OH232652   5.802   7.017   8.222
 3698TIP3    H132653   5.888   7.003   8.261
 3698TIP3    H232654   5.784   6.936   8.174
 3699TIP3   OH232655   7.264   5.954   8.062
 3699TIP3    H132656   7.299   5.917   8.144
 3699TIP3    H232657   7.169   5.957   8.076
 3700TIP3   OH232658   5.797   5.761   8.373
 3700TIP3    H132659   5.867   5.765   8.308
 3700TIP3    H232660   5.779   5.853   8.394
 3701TIP3   OH232661   6.005   5.865   8.209
 3701TIP3    H132662   6.058   5.806   8.156
 3701TIP3    H232663   6.065   5.900   8.274
 3702TIP3   OH232664   1.188   0.985   0.668
 3702TIP3    H132665   1.186   1.078   0.690
 3702TIP3    H232666   1.124   0.976   0.597
 3703TIP3   OH232667   1.077   0.936   1.064
 3703TIP3    H132668   1.111   0.912   1.150
 3703TIP3    H232669   1.029   0.858   1.035
 3704TIP3   OH232670   0.333   0.893   1.189
 3704TIP3    H132671   0.320   0.808   1.229
 3704TIP3    H232672   0.366   0.949   1.259
 3705TIP3   OH232673   1.457   1.248   0.877
 3705TIP3    H132674   1.429   1.173   0.930
 3705TIP3    H232675   1.479   1.316   0.942
 3706TIP3   OH232676   0.405   1.320   0.977
 3706TIP3    H132677   0.376   1.232   0.954
 3706TIP3    H232678   0.498   1.311   0.997
 3707TIP3   OH232679   0.105   0.752   0.497
 3707TIP3    H132680   0.165   0.796   0.558
 3707TIP3    H232681   0.020   0.754   0.541
 3708TIP3   OH232682   0.240   0.879   0.705
 3708TIP3    H132683   0.228   0.815   0.775
 3708TIP3    H232684   0.267   0.959   0.751
 3709TIP3   OH232685   1.170   1.751   0.889
 3709TIP3    H132686   1.206   1.664   0.873
 3709TIP3    H232687   1.080   1.746   0.855
 3710TIP3   OH232688   0.926   1.177   1.084
 3710TIP3    H132689   0.968   1.097   1.055
 3710TIP3    H232690   0.990   1.218   1.143
 3711TIP3   OH232691   1.828   0.325   1.166
 3711TIP3    H132692   1.841   0.388   1.237
 3711TIP3    H232693   1.888   0.354   1.097
 3712TIP3   OH232694   1.238   0.593   1.067
 3712TIP3    H132695   1.265   0.507   1.099
 3712TIP3    H232696   1.232   0.582   0.972
 3713TIP3   OH232697   0.587   0.436   0.807
 3713TIP3    H132698   0.575   0.519   0.760
 3713TIP3    H232699   0.549   0.370   0.749
 3714TIP3   OH232700   1.369   0.460   0.665
 3714TIP3    H132701   1.410   0.424   0.744
 3714TIP3    H232702   1.443   0.492   0.613
 3715TIP3   OH232703   0.235   0.673   0.892
 3715TIP3    H132704   0.297   0.632   0.953
 3715TIP3    H232705   0.244   0.623   0.811
 3716TIP3   OH232706   0.759   0.774   0.805
 3716TIP3    H132707   0.730   0.798   0.893
 3716TIP3    H232708   0.684   0.728   0.767
 3717TIP3   OH232709   1.846   0.491   1.388
 3717TIP3    H132710   1.768   0.545   1.375
 3717TIP3    H232711   1.862   0.494   1.482
 3718TIP3   OH232712   0.424   0.328   1.240
 3718TIP3    H132713   0.401   0.390   1.171
 3718TIP3    H232714   0.358   0.341   1.308
 3719TIP3   OH232715   1.169   1.266   0.549
 3719TIP3    H132716   1.159   1.266   0.454
 3719TIP3    H232717   1.122   1.344   0.578
 3720TIP3   OH232718   0.702   1.095   1.230
 3720TIP3    H132719   0.645   1.162   1.266
 3720TIP3    H232720   0.772   1.143   1.185
 3721TIP3   OH232721   1.483   0.397   0.902
 3721TIP3    H132722   1.425   0.366   0.972
 3721TIP3    H232723   1.544   0.456   0.946
 3722TIP3   OH232724   0.423   0.503   1.020
 3722TIP3    H132725   0.476   0.562   1.073
 3722TIP3    H232726   0.483   0.465   0.957
 3723TIP3   OH232727   0.545   1.290   1.346
 3723TIP3    H132728   0.547   1.385   1.329
 3723TIP3    H232729   0.464   1.277   1.395
 3724TIP3   OH232730   0.103   1.281   0.381
 3724TIP3    H132731   0.109   1.324   0.296
 3724TIP3    H232732   0.127   1.349   0.444
 3725TIP3   OH232733   1.496   1.451   1.071
 3725TIP3    H132734   1.404   1.447   1.097
 3725TIP3    H232735   1.513   1.544   1.057
 3726TIP3   OH232736   1.573   0.275   1.268
 3726TIP3    H132737   1.499   0.300   1.212
 3726TIP3    H232738   1.650   0.295   1.216
 3727TIP3   OH232739   0.808   0.068   0.971
 3727TIP3    H132740   0.838   0.006   1.037
 3727TIP3    H232741   0.725   0.101   1.005
 3728TIP3   OH232742   1.312   1.564   0.711
 3728TIP3    H132743   1.361   1.485   0.688
 3728TIP3    H232744   1.377   1.634   0.711
 3729TIP3   OH232745   1.434   1.333   0.617
 3729TIP3    H132746   1.350   1.293   0.595
 3729TIP3    H232747   1.456   1.297   0.703
 3730TIP3   OH232748   1.616   1.228   1.439
 3730TIP3    H132749   1.607   1.171   1.363
 3730TIP3    H232750   1.627   1.315   1.402
 3731TIP3   OH232751   1.036   0.947   0.439
 3731TIP3    H132752   0.980   1.019   0.410
 3731TIP3    H232753   1.103   0.939   0.371
 3732TIP3   OH232754   1.051   0.762   0.136
 3732TIP3    H132755   1.114   0.813   0.187
 3732TIP3    H232756   1.102   0.690   0.099
 3733TIP3   OH232757   1.777   0.891   1.268
 3733TIP3    H132758   1.704   0.951   1.259
 3733TIP3    H232759   1.836   0.914   1.195
 3734TIP3   OH232760   1.408   0.959   0.501
 3734TIP3    H132761   1.340   0.973   0.567
 3734TIP3    H232762   1.477   0.911   0.547
 3735TIP3   OH232763   1.378   0.762   1.470
 3735TIP3    H132764   1.378   0.833   1.534
 3735TIP3    H232765   1.314   0.789   1.404
 3736TIP3   OH232766   0.582   0.990   0.721
 3736TIP3    H132767   0.545   0.973   0.634
 3736TIP3    H232768   0.646   0.920   0.734
 3737TIP3   OH232769   0.683   1.275   0.963
 3737TIP3    H132770   0.699   1.332   0.887
 3737TIP3    H232771   0.770   1.258   0.999
 3738TIP3   OH232772   0.641   0.924   1.024
 3738TIP3    H132773   0.645   0.993   0.957
 3738TIP3    H232774   0.662   0.968   1.106
 3739TIP3   OH232775   1.241   1.444   1.162
 3739TIP3    H132776   1.219   1.526   1.208
 3739TIP3    H232777   1.192   1.377   1.208
 3740TIP3   OH232778   0.711   1.328   1.566
 3740TIP3    H132779   0.650   1.391   1.604
 3740TIP3    H232780   0.667   1.298   1.486
 3741TIP3   OH232781   1.256   0.895   0.277
 3741TIP3    H132782   1.308   0.909   0.356
 3741TIP3    H232783   1.313   0.922   0.205
 3742TIP3   OH232784   0.403   0.977   1.457
 3742TIP3    H132785   0.398   1.070   1.479
 3742TIP3    H232786   0.314   0.944   1.471
 3743TIP3   OH232787   1.068   1.545   0.593
 3743TIP3    H132788   1.150   1.549   0.641
 3743TIP3    H232789   1.006   1.598   0.644
 3744TIP3   OH232790   0.506   1.508   1.619
 3744TIP3    H132791   0.529   1.543   1.533
 3744TIP3    H232792   0.410   1.501   1.617
 3745TIP3   OH232793   1.632   0.046   0.192
 3745TIP3    H132794   1.574   0.065   0.266
 3745TIP3    H232795   1.697   0.116   0.195
 3746TIP3   OH232796   0.481   0.935   0.455
 3746TIP3    H132797   0.419   0.996   0.416
 3746TIP3    H232798   0.427   0.863   0.488
 3747TIP3   OH232799   1.766   1.485   0.133
 3747TIP3    H132800   1.792   1.577   0.132
 3747TIP3    H232801   1.847   1.437   0.120
 3748TIP3   OH232802   0.163   1.132   1.329
 3748TIP3    H132803   0.088   1.137   1.269
 3748TIP3    H232804   0.150   1.050   1.377
 3749TIP3   OH232805   0.134   1.438   0.960
 3749TIP3    H132806   0.219   1.400   0.981
 3749TIP3    H232807   0.078   1.414   1.034
 3750TIP3   OH232808   1.874   1.537   1.640
 3750TIP3    H132809   1.866   1.442   1.639
 3750TIP3    H232810   1.790   1.568   1.674
 3751TIP3   OH232811   0.948   1.443   1.483
 3751TIP3    H132812   0.953   1.530   1.523
 3751TIP3    H232813   0.865   1.407   1.514
 3752TIP3   OH232814   0.925   1.839   0.426
 3752TIP3    H132815   0.973   1.919   0.446
 3752TIP3    H232816   0.906   1.800   0.511
 3753TIP3   OH232817   0.374   1.707   0.670
 3753TIP3    H132818   0.398   1.666   0.754
 3753TIP3    H232819   0.335   1.637   0.619
 3754TIP3   OH232820   1.299   1.742   0.182
 3754TIP3    H132821   1.375   1.692   0.153
 3754TIP3    H232822   1.305   1.744   0.277
 3755TIP3   OH232823   1.287   1.753   0.460
 3755TIP3    H132824   1.204   1.717   0.491
 3755TIP3    H232825   1.348   1.738   0.532
 3756TIP3   OH232826   1.575   0.654   1.654
 3756TIP3    H132827   1.496   0.673   1.604
 3756TIP3    H232828   1.578   0.558   1.658
 3757TIP3   OH232829   0.324   1.252   1.512
 3757TIP3    H132830   0.281   1.321   1.564
 3757TIP3    H232831   0.258   1.226   1.448
 3758TIP3   OH232832   0.569   0.138   1.089
 3758TIP3    H132833   0.508   0.080   1.043
 3758TIP3    H232834   0.512   0.195   1.141
 3759TIP3   OH232835   1.016   0.146   1.437
 3759TIP3    H132836   1.037   0.127   1.529
 3759TIP3    H232837   0.922   0.129   1.431
 3760TIP3   OH232838   1.319   0.492   1.475
 3760TIP3    H132839   1.254   0.473   1.543
 3760TIP3    H232840   1.328   0.587   1.477
 3761TIP3   OH232841   1.441   0.992   0.097
 3761TIP3    H132842   1.522   0.982   0.048
 3761TIP3    H232843   1.463   1.051   0.169
 3762TIP3   OH232844   0.999   0.290   0.108
 3762TIP3    H132845   0.931   0.286   0.176
 3762TIP3    H232846   1.035   0.201   0.106
 3763TIP3   OH232847   0.566   0.683   1.166
 3763TIP3    H132848   0.510   0.694   1.243
 3763TIP3    H232849   0.575   0.771   1.130
 3764TIP3   OH232850   0.546   0.669   0.663
 3764TIP3    H132851   0.453   0.648   0.663
 3764TIP3    H232852   0.576   0.645   0.576
 3765TIP3   OH232853   1.054   0.699   0.553
 3765TIP3    H132854   1.040   0.784   0.513
 3765TIP3    H232855   1.141   0.673   0.523
 3766TIP3   OH232856   1.027   0.703   1.673
 3766TIP3    H132857   0.976   0.631   1.709
 3766TIP3    H232858   1.110   0.699   1.720
 3767TIP3   OH232859   1.209   0.646   0.793
 3767TIP3    H132860   1.246   0.728   0.760
 3767TIP3    H232861   1.256   0.578   0.744
 3768TIP3   OH232862   0.349   0.656   1.355
 3768TIP3    H132863   0.396   0.677   1.436
 3768TIP3    H232864   0.307   0.572   1.372
 3769TIP3   OH232865   0.685   0.424   0.093
 3769TIP3    H132866   0.652   0.380   0.171
 3769TIP3    H232867   0.673   0.517   0.110
 3770TIP3   OH232868   0.086   0.395   0.720
 3770TIP3    H132869   0.102   0.400   0.814
 3770TIP3    H232870   0.104   0.304   0.698
 3771TIP3   OH232871   0.118   0.513   0.358
 3771TIP3    H132872   0.158   0.526   0.272
 3771TIP3    H232873   0.133   0.596   0.403
 3772TIP3   OH232874   1.169   0.771   1.274
 3772TIP3    H132875   1.206   0.709   1.211
 3772TIP3    H232876   1.105   0.720   1.323
 3773TIP3   OH232877   0.865   0.469   0.794
 3773TIP3    H132878   0.772   0.451   0.810
 3773TIP3    H232879   0.910   0.389   0.820
 3774TIP3   OH232880   0.308   0.534   0.651
 3774TIP3    H132881   0.218   0.502   0.653
 3774TIP3    H232882   0.360   0.456   0.630
 3775TIP3   OH232883   0.628   0.582   0.418
 3775TIP3    H132884   0.721   0.565   0.432
 3775TIP3    H232885   0.624   0.627   0.333
 3776TIP3   OH232886   1.311   0.313   1.094
 3776TIP3    H132887   1.254   0.317   1.171
 3776TIP3    H232888   1.273   0.243   1.040
 3777TIP3   OH232889   0.588   0.678   0.162
 3777TIP3    H132890   0.501   0.688   0.124
 3777TIP3    H232891   0.646   0.726   0.103
 3778TIP3   OH232892   1.597   1.900   1.732
 3778TIP3    H132893   1.635   1.931   1.650
 3778TIP3    H232894   1.578   1.979   1.782
 3779TIP3   OH232895   0.979   0.675   1.012
 3779TIP3    H132896   1.062   0.644   1.048
 3779TIP3    H232897   0.912   0.634   1.067
 3780TIP3   OH232898   0.456   0.303   0.598
 3780TIP3    H132899   0.448   0.213   0.629
 3780TIP3    H232900   0.474   0.294   0.504
 3781TIP3   OH232901   0.815   0.564   1.203
 3781TIP3    H132902   0.733   0.613   1.207
 3781TIP3    H232903   0.862   0.591   1.282
 3782TIP3   OH232904   0.865   1.153   0.357
 3782TIP3    H132905   0.796   1.105   0.311
 3782TIP3    H232906   0.829   1.170   0.444
 3783TIP3   OH232907   1.585   1.080   1.208
 3783TIP3    H132908   1.647   1.135   1.160
 3783TIP3    H232909   1.512   1.068   1.148
 3784TIP3   OH232910   1.225   0.419   0.214
 3784TIP3    H132911   1.153   0.379   0.167
 3784TIP3    H232912   1.263   0.482   0.152
 3785TIP3   OH232913   1.007   1.150   1.520
 3785TIP3    H132914   1.042   1.116   1.602
 3785TIP3    H232915   0.995   1.244   1.535
 3786TIP3   OH232916   1.304   0.652   0.440
 3786TIP3    H132917   1.392   0.616   0.450
 3786TIP3    H232918   1.302   0.686   0.350
 3787TIP3   OH232919   0.371   1.042   0.910
 3787TIP3    H132920   0.445   1.030   0.852
 3787TIP3    H232921   0.391   0.988   0.986
 3788TIP3   OH232922   1.097   1.287   0.266
 3788TIP3    H132923   1.064   1.376   0.280
 3788TIP3    H232924   1.023   1.230   0.286
 3789TIP3   OH232925   0.132   0.905   1.477
 3789TIP3    H132926   0.147   0.875   1.566
 3789TIP3    H232927   0.072   0.840   1.440
 3790TIP3   OH232928   0.811   0.884   1.680
 3790TIP3    H132929   0.769   0.855   1.599
 3790TIP3    H232930   0.897   0.843   1.679
 3791TIP3   OH232931   1.228   1.432   1.505
 3791TIP3    H132932   1.136   1.440   1.481
 3791TIP3    H232933   1.230   1.450   1.599
 3792TIP3   OH232934   1.756   0.671   0.313
 3792TIP3    H132935   1.692   0.652   0.245
 3792TIP3    H232936   1.791   0.757   0.289
 3793TIP3   OH232937   1.838   1.257   1.607
 3793TIP3    H132938   1.744   1.261   1.587
 3793TIP3    H232939   1.879   1.235   1.523
 3794TIP3   OH232940   1.635   1.520   0.383
 3794TIP3    H132941   1.595   1.443   0.425
 3794TIP3    H232942   1.672   1.486   0.302
 3795TIP3   OH232943   1.377   1.021   1.023
 3795TIP3    H132944   1.282   1.011   1.031
 3795TIP3    H232945   1.406   0.940   0.982
 3796TIP3   OH232946   0.647   1.424   0.718
 3796TIP3    H132947   0.669   1.503   0.669
 3796TIP3    H232948   0.563   1.444   0.760
 3797TIP3   OH232949   0.181   0.891   0.189
 3797TIP3    H132950   0.230   0.961   0.233
 3797TIP3    H232951   0.098   0.887   0.236
 3798TIP3   OH232952   0.733   1.193   0.592
 3798TIP3    H132953   0.712   1.278   0.631
 3798TIP3    H232954   0.685   1.130   0.646
 3799TIP3   OH232955   0.835   1.609   1.267
 3799TIP3    H132956   0.885   1.691   1.260
 3799TIP3    H232957   0.892   1.551   1.318
 3800TIP3   OH232958   0.642   1.672   0.585
 3800TIP3    H132959   0.564   1.716   0.618
 3800TIP3    H232960   0.713   1.707   0.638
 3801TIP3   OH232961   1.131   1.206   1.278
 3801TIP3    H132962   1.079   1.184   1.356
 3801TIP3    H232963   1.220   1.181   1.301
 3802TIP3   OH232964   1.368   1.320   0.151
 3802TIP3    H132965   1.423   1.267   0.209
 3802TIP3    H232966   1.280   1.312   0.187
 3803TIP3   OH232967   1.440   1.627   1.462
 3803TIP3    H132968   1.355   1.582   1.466
 3803TIP3    H232969   1.420   1.709   1.417
 3804TIP3   OH232970   1.835   1.754   0.172
 3804TIP3    H132971   1.898   1.825   0.167
 3804TIP3    H232972   1.751   1.796   0.187
 3805TIP3   OH232973   0.247   0.401   1.446
 3805TIP3    H132974   0.175   0.441   1.496
 3805TIP3    H232975   0.262   0.317   1.490
 3806TIP3   OH232976   1.515   1.142   0.318
 3806TIP3    H132977   1.470   1.094   0.387
 3806TIP3    H232978   1.606   1.147   0.347
 3807TIP3   OH232979   0.187   1.639   1.247
 3807TIP3    H132980   0.142   1.572   1.300
 3807TIP3    H232981   0.224   1.699   1.311
 3808TIP3   OH232982   0.653   1.362   0.281
 3808TIP3    H132983   0.728   1.316   0.318
 3808TIP3    H232984   0.673   1.455   0.295
 3809TIP3   OH232985   0.306   1.102   0.317
 3809TIP3    H132986   0.233   1.148   0.360
 3809TIP3    H232987   0.355   1.172   0.273
 3810TIP3   OH232988   1.152   0.346   1.308
 3810TIP3    H132989   1.210   0.381   1.376
 3810TIP3    H232990   1.104   0.275   1.352
 3811TIP3   OH232991   1.247   0.304   0.465
 3811TIP3    H132992   1.242   0.351   0.381
 3811TIP3    H232993   1.286   0.368   0.525
 3812TIP3   OH232994   0.977   1.524   0.334
 3812TIP3    H132995   0.890   1.562   0.335
 3812TIP3    H232996   1.009   1.536   0.424
 3813TIP3   OH232997   0.883   0.501   0.476
 3813TIP3    H132998   0.947   0.571   0.490
 3813TIP3    H232999   0.910   0.431   0.535
 3814TIP3   OH233000   0.998   0.605   1.414
 3814TIP3    H133001   1.003   0.639   1.503
 3814TIP3    H233002   1.026   0.513   1.422
 3815TIP3   OH233003   0.998   0.267   0.580
 3815TIP3    H133004   1.005   0.250   0.674
 3815TIP3    H233005   1.089   0.267   0.549
 3816TIP3   OH233006   0.716   1.620   0.330
 3816TIP3    H133007   0.727   1.704   0.286
 3816TIP3    H233008   0.687   1.642   0.418
 3817TIP3   OH233009   0.564   0.329   0.331
 3817TIP3    H133010   0.567   0.417   0.369
 3817TIP3    H233011   0.647   0.289   0.355
 3818TIP3   OH233012   1.566   0.388   1.526
 3818TIP3    H133013   1.474   0.414   1.522
 3818TIP3    H233014   1.585   0.353   1.439
 3819TIP3   OH233015   1.451   0.764   0.921
 3819TIP3    H133016   1.369   0.724   0.952
 3819TIP3    H233017   1.520   0.715   0.966
 3820TIP3   OH233018   0.408   1.314   0.165
 3820TIP3    H133019   0.466   1.357   0.228
 3820TIP3    H233020   0.467   1.275   0.101
 3821TIP3   OH233021   0.317   0.698   0.056
 3821TIP3    H133022   0.272   0.761   0.111
 3821TIP3    H233023   0.256   0.625   0.047
 3822TIP3   OH233024   1.570   1.721   1.070
 3822TIP3    H133025   1.560   1.786   1.000
 3822TIP3    H233026   1.664   1.718   1.087
 3823TIP3   OH233027   0.219   0.130   0.940
 3823TIP3    H133028   0.197   0.115   0.848
 3823TIP3    H233029   0.281   0.061   0.961
 3824TIP3   OH233030   0.177   1.513   0.540
 3824TIP3    H133031   0.133   1.531   0.623
 3824TIP3    H233032   0.153   1.586   0.483
 3825TIP3   OH233033   0.210   1.815   1.725
 3825TIP3    H133034   0.251   1.812   1.811
 3825TIP3    H233035   0.128   1.765   1.736
 3826TIP3   OH233036   0.523   1.487   1.958
 3826TIP3    H133037   0.583   1.545   2.006
 3826TIP3    H233038   0.537   1.510   1.866
 3827TIP3   OH233039   1.074   1.614   0.094
 3827TIP3    H133040   1.039   1.584   0.178
 3827TIP3    H233041   1.159   1.653   0.116
 3828TIP3   OH233042   1.223   1.474   1.775
 3828TIP3    H133043   1.208   1.397   1.829
 3828TIP3    H233044   1.301   1.515   1.813
 3829TIP3   OH233045   1.481   1.565   0.072
 3829TIP3    H133046   1.443   1.482   0.102
 3829TIP3    H233047   1.576   1.549   0.073
 3830TIP3   OH233048   0.138   1.099   1.792
 3830TIP3    H133049   0.164   1.012   1.762
 3830TIP3    H233050   0.090   1.136   1.719
 3831TIP3   OH233051   0.598   1.180   0.027
 3831TIP3    H133052   0.629   1.141   0.108
 3831TIP3    H233053   0.617   1.114   8.460
 3832TIP3   OH233054   0.798   1.157   1.768
 3832TIP3    H133055   0.785   1.208   1.688
 3832TIP3    H233056   0.818   1.069   1.737
 3833TIP3   OH233057   1.347   1.182   1.483
 3833TIP3    H133058   1.440   1.202   1.475
 3833TIP3    H233059   1.304   1.267   1.494
 3834TIP3   OH233060   0.227   0.840   1.722
 3834TIP3    H133061   0.298   0.787   1.685
 3834TIP3    H233062   0.196   0.789   1.797
 3835TIP3   OH233063   0.665   0.997   0.243
 3835TIP3    H133064   0.608   0.975   0.316
 3835TIP3    H233065   0.701   0.913   0.214
 3836TIP3   OH233066   0.599   0.778   1.455
 3836TIP3    H133067   0.537   0.851   1.462
 3836TIP3    H233068   0.676   0.816   1.413
 3837TIP3   OH233069   0.799   0.796   0.029
 3837TIP3    H133070   0.820   0.755   8.444
 3837TIP3    H233071   0.881   0.792   0.078
 3838TIP3   OH233072   1.114   1.028   1.776
 3838TIP3    H133073   1.201   0.995   1.754
 3838TIP3    H233074   1.080   0.965   1.839
 3839TIP3   OH233075   1.698   1.085   0.002
 3839TIP3    H133076   1.680   1.090   8.408
 3839TIP3    H233077   1.706   1.176   0.030
 3840TIP3   OH233078   0.665   0.536   1.568
 3840TIP3    H133079   0.665   0.466   1.502
 3840TIP3    H233080   0.647   0.616   1.519
 3841TIP3   OH233081   0.676   0.359   1.350
 3841TIP3    H133082   0.729   0.403   1.283
 3841TIP3    H233083   0.590   0.347   1.308
 3842TIP3   OH233084   0.825   0.891   1.364
 3842TIP3    H133085   0.914   0.917   1.388
 3842TIP3    H233086   0.789   0.967   1.318
 3843TIP3   OH233087   1.246   0.668   1.847
 3843TIP3    H133088   1.250   0.589   1.901
 3843TIP3    H233089   1.325   0.716   1.869
 3844TIP3   OH233090   1.400   0.971   1.655
 3844TIP3    H133091   1.372   1.046   1.602
 3844TIP3    H233092   1.495   0.974   1.651
 3845TIP3   OH233093   0.415   0.647   1.662
 3845TIP3    H133094   0.370   0.573   1.702
 3845TIP3    H233095   0.506   0.618   1.652
 3846TIP3   OH233096   0.739   0.094   1.406
 3846TIP3    H133097   0.715   0.186   1.391
 3846TIP3    H233098   0.662   0.045   1.379
 3847TIP3   OH233099   0.878   0.480   1.735
 3847TIP3    H133100   0.837   0.464   1.820
 3847TIP3    H233101   0.804   0.495   1.676
 3848TIP3   OH233102   1.123   0.404   1.636
 3848TIP3    H133103   1.040   0.418   1.682
 3848TIP3    H233104   1.181   0.365   1.702
 3849TIP3   OH233105   1.308   0.306   1.816
 3849TIP3    H133106   1.319   0.212   1.831
 3849TIP3    H233107   1.289   0.342   1.903
 3850TIP3   OH233108   0.316   0.407   1.756
 3850TIP3    H133109   0.307   0.322   1.713
 3850TIP3    H233110   0.354   0.387   1.841
 3851TIP3   OH233111   0.806   7.299   1.653
 3851TIP3    H133112   0.761   7.214   1.654
 3851TIP3    H233113   0.774   0.038   1.574
 3852TIP3   OH233114   0.808   0.173   1.920
 3852TIP3    H133115   0.832   0.140   1.833
 3852TIP3    H233116   0.760   0.254   1.902
 3853TIP3   OH233117   0.788   1.840   0.181
 3853TIP3    H133118   0.846   1.848   0.257
 3853TIP3    H233119   0.790   1.926   0.139
 3854TIP3   OH233120   0.140   1.363   0.115
 3854TIP3    H133121   0.234   1.358   0.127
 3854TIP3    H233122   0.127   1.348   0.021
 3855TIP3   OH233123   0.047   1.881   0.608
 3855TIP3    H133124   0.039   1.846   0.519
 3855TIP3    H233125   0.047   1.804   0.664
 3856TIP3   OH233126   0.081   1.643   0.786
 3856TIP3    H133127   0.079   1.558   0.830
 3856TIP3    H233128   0.137   1.698   0.841
 3857TIP3   OH233129   1.836   1.723   1.144
 3857TIP3    H133130   1.827   1.712   1.238
 3857TIP3    H233131   1.893   1.800   1.134
 3858TIP3   OH233132   1.786   1.683   1.412
 3858TIP3    H133133   1.729   1.612   1.383
 3858TIP3    H233134   1.830   1.648   1.489
 3859TIP3   OH233135   1.656   1.275   1.884
 3859TIP3    H133136   1.570   1.286   1.924
 3859TIP3    H233137   1.703   1.356   1.904
 3860TIP3   OH233138   1.776   1.111   0.418
 3860TIP3    H133139   1.846   1.176   0.424
 3860TIP3    H233140   1.791   1.053   0.493
 3861TIP3   OH233141   1.829   0.920   0.615
 3861TIP3    H133142   1.747   0.887   0.650
 3861TIP3    H233143   1.885   0.933   0.692
 3862TIP3   OH233144   1.812   1.211   1.124
 3862TIP3    H133145   1.871   1.147   1.084
 3862TIP3    H233146   1.842   1.295   1.089
 3863TIP3   OH233147   1.621   1.477   1.322
 3863TIP3    H133148   1.550   1.524   1.367
 3863TIP3    H233149   1.587   1.462   1.234
 3864TIP3   OH233150   1.816   0.930   0.216
 3864TIP3    H133151   1.766   0.970   0.144
 3864TIP3    H233152   1.801   0.989   0.290
 3865TIP3   OH233153   1.586   0.624   0.099
 3865TIP3    H133154   1.653   0.646   0.035
 3865TIP3    H233155   1.578   0.529   0.095
 3866TIP3   OH233156   1.573   0.799   0.665
 3866TIP3    H133157   1.578   0.709   0.633
 3866TIP3    H233158   1.536   0.791   0.753
 3867TIP3   OH233159   0.112   0.998   1.056
 3867TIP3    H133160   0.148   1.042   0.979
 3867TIP3    H233161   0.189   0.971   1.106
 3868TIP3   OH233162   1.679   0.976   1.639
 3868TIP3    H133163   1.737   0.902   1.623
 3868TIP3    H233164   1.718   1.049   1.591
 3869TIP3   OH233165   1.830   0.740   1.624
 3869TIP3    H133166   1.739   0.713   1.639
 3869TIP3    H233167   1.882   0.663   1.650
 3870TIP3   OH233168   1.571   0.357   0.082
 3870TIP3    H133169   1.657   0.315   0.089
 3870TIP3    H233170   1.511   0.286   0.059
 3871TIP3   OH233171   1.575   0.551   0.500
 3871TIP3    H133172   1.604   0.460   0.501
 3871TIP3    H233173   1.638   0.596   0.444
 3872TIP3   OH233174   1.612   0.586   1.058
 3872TIP3    H133175   1.705   0.600   1.040
 3872TIP3    H233176   1.603   0.600   1.152
 3873TIP3   OH233177   1.625   0.665   1.324
 3873TIP3    H133178   1.551   0.693   1.378
 3873TIP3    H233179   1.679   0.743   1.314
 3874TIP3   OH233180   0.058   0.465   1.671
 3874TIP3    H133181   0.147   0.468   1.705
 3874TIP3    H233182   0.007   0.422   1.740
 3875TIP3   OH233183   1.938   0.117   1.822
 3875TIP3    H133184   1.903   0.038   1.864
 3875TIP3    H233185   1.863   0.156   1.777
 3876TIP3   OH233186   1.639   0.279   0.511
 3876TIP3    H133187   1.656   0.235   0.594
 3876TIP3    H233188   1.575   0.224   0.467
 3877TIP3   OH233189   0.174   0.388   0.983
 3877TIP3    H133190   0.187   0.293   0.982
 3877TIP3    H233191   0.262   0.424   1.000
 3878TIP3   OH233192   0.030   0.735   1.088
 3878TIP3    H133193   0.097   0.705   1.027
 3878TIP3    H233194   0.038   0.831   1.086
 3879TIP3   OH233195   1.751   0.228   1.652
 3879TIP3    H133196   1.684   0.295   1.637
 3879TIP3    H233197   1.754   0.179   1.570
 3880TIP3   OH233198   1.821   0.245   0.130
 3880TIP3    H133199   1.886   0.214   0.066
 3880TIP3    H233200   1.866   0.315   0.177
 3881TIP3   OH233201   0.098   0.237   0.404
 3881TIP3    H133202   0.019   0.230   0.458
 3881TIP3    H233203   0.113   0.331   0.396
 3882TIP3   OH233204   1.485   1.769   0.659
 3882TIP3    H133205   1.565   1.771   0.606
 3882TIP3    H233206   1.509   1.816   0.739
 3883TIP3   OH233207   0.015   0.076   1.325
 3883TIP3    H133208   7.302   0.147   1.387
 3883TIP3    H233209   7.294   0.113   1.240
 3884TIP3   OH233210   0.223   1.480   1.666
 3884TIP3    H133211   0.135   1.514   1.650
 3884TIP3    H233212   0.256   1.531   1.740
 3885TIP3   OH233213   0.577   1.566   1.355
 3885TIP3    H133214   0.534   1.639   1.311
 3885TIP3    H233215   0.669   1.574   1.330
 3886TIP3   OH233216   0.964   1.693   1.591
 3886TIP3    H133217   0.962   1.661   1.681
 3886TIP3    H233218   1.038   1.753   1.588
 3887TIP3   OH233219   1.695   0.078   1.421
 3887TIP3    H133220   1.642   0.142   1.374
 3887TIP3    H233221   1.655   7.297   1.400
 3888TIP3   OH233222   0.277   1.862   1.393
 3888TIP3    H133223   0.202   1.917   1.372
 3888TIP3    H233224   0.304   1.890   1.480
 3889TIP3   OH233225   0.493   1.794   1.237
 3889TIP3    H133226   0.419   1.832   1.284
 3889TIP3    H233227   0.525   1.865   1.181
 3890TIP3   OH233228   0.975   1.849   1.227
 3890TIP3    H133229   0.935   1.882   1.147
 3890TIP3    H233230   0.973   1.924   1.287
 3891TIP3   OH233231   1.203   1.695   1.274
 3891TIP3    H133232   1.124   1.746   1.255
 3891TIP3    H233233   1.274   1.759   1.272
 3892TIP3   OH233234   1.442   1.852   1.280
 3892TIP3    H133235   1.464   1.943   1.262
 3892TIP3    H233236   1.485   1.803   1.209
 3893TIP3   OH233237   0.236   1.742   1.001
 3893TIP3    H133238   0.223   1.711   1.090
 3893TIP3    H233239   0.312   1.693   0.969
 3894TIP3   OH233240   0.446   1.586   0.906
 3894TIP3    H133241   0.424   1.499   0.940
 3894TIP3    H233242   0.529   1.609   0.948
 3895TIP3   OH233243   0.694   1.626   1.012
 3895TIP3    H133244   0.770   1.640   0.956
 3895TIP3    H233245   0.731   1.623   1.101
 3896TIP3   OH233246   0.989   0.232   0.854
 3896TIP3    H133247   0.924   0.178   0.899
 3896TIP3    H233248   1.074   0.200   0.885
 3897TIP3   OH233249   1.512   0.035   0.889
 3897TIP3    H133250   1.588   0.057   0.835
 3897TIP3    H233251   1.504   0.108   0.950
 3898TIP3   OH233252   1.717   0.124   0.732
 3898TIP3    H133253   1.783   0.061   0.704
 3898TIP3    H233254   1.766   0.202   0.757
 3899TIP3   OH233255   0.178   0.135   0.659
 3899TIP3    H133256   0.158   0.144   0.566
 3899TIP3    H233257   0.261   0.088   0.662
 3900TIP3   OH233258   0.138   0.168   0.140
 3900TIP3    H133259   0.233   0.182   0.140
 3900TIP3    H233260   0.114   0.168   0.233
 3901TIP3   OH233261   0.750   0.060   0.610
 3901TIP3    H133262   0.786   0.095   0.692
 3901TIP3    H233263   0.657   0.046   0.629
 3902TIP3   OH233264   1.229   0.114   0.914
 3902TIP3    H133265   1.283   0.098   0.837
 3902TIP3    H233266   1.215   0.028   0.953
 3903TIP3   OH233267   1.442   0.107   0.418
 3903TIP3    H133268   1.368   0.168   0.421
 3903TIP3    H233269   1.421   0.040   0.483
 3904TIP3   OH233270   0.106   1.717   0.367
 3904TIP3    H133271   0.082   1.664   0.291
 3904TIP3    H233272   0.154   1.791   0.330
 3905TIP3   OH233273   0.417   0.202   0.133
 3905TIP3    H133274   0.446   0.112   0.148
 3905TIP3    H233275   0.454   0.252   0.205
 3906TIP3   OH233276   0.831   0.260   0.357
 3906TIP3    H133277   0.871   0.217   0.433
 3906TIP3    H233278   0.853   0.352   0.368
 3907TIP3   OH233279   1.081   1.915   0.121
 3907TIP3    H133280   1.165   1.879   0.148
 3907TIP3    H233281   1.031   1.839   0.090
 3908TIP3   OH233282   1.700   1.765   0.481
 3908TIP3    H133283   1.682   1.676   0.451
 3908TIP3    H233284   1.686   1.820   0.403
 3909TIP3   OH233285   0.261   0.171   1.612
 3909TIP3    H133286   0.182   0.118   1.622
 3909TIP3    H233287   0.325   0.130   1.671
 3910TIP3   OH233288   0.412   0.093   1.836
 3910TIP3    H133289   0.468   0.020   1.862
 3910TIP3    H233290   0.332   0.081   1.886
 3911TIP3   OH233291   0.317   1.777   0.021
 3911TIP3    H133292   0.275   1.830   0.089
 3911TIP3    H233293   0.400   1.750   0.061
 3912TIP3   OH233294   1.357   0.033   1.850
 3912TIP3    H133295   1.375   0.001   1.938
 3912TIP3    H233296   1.441   0.025   1.804
 3913TIP3   OH233297   1.622   1.632   1.679
 3913TIP3    H133298   1.553   1.622   1.613
 3913TIP3    H233299   1.609   1.721   1.714
 3914TIP3   OH233300   3.092   1.036   0.652
 3914TIP3    H133301   3.071   1.128   0.636
 3914TIP3    H233302   3.018   0.988   0.614
 3915TIP3   OH233303   2.972   0.930   1.051
 3915TIP3    H133304   2.963   0.906   1.143
 3915TIP3    H233305   2.929   0.858   1.004
 3916TIP3   OH233306   2.168   0.861   1.216
 3916TIP3    H133307   2.176   0.776   1.260
 3916TIP3    H233308   2.214   0.922   1.273
 3917TIP3   OH233309   3.262   1.260   0.927
 3917TIP3    H133310   3.295   1.172   0.945
 3917TIP3    H233311   3.326   1.318   0.967
 3918TIP3   OH233312   2.309   1.331   0.996
 3918TIP3    H133313   2.280   1.247   0.962
 3918TIP3    H233314   2.343   1.311   1.083
 3919TIP3   OH233315   1.956   0.681   0.525
 3919TIP3    H133316   1.926   0.765   0.559
 3919TIP3    H233317   1.896   0.662   0.453
 3920TIP3   OH233318   2.029   0.932   0.817
 3920TIP3    H133319   2.056   0.842   0.835
 3920TIP3    H233320   2.107   0.984   0.832
 3921TIP3   OH233321   3.058   1.755   0.904
 3921TIP3    H133322   3.093   1.681   0.853
 3921TIP3    H233323   3.058   1.723   0.994
 3922TIP3   OH233324   2.855   1.178   1.060
 3922TIP3    H133325   2.870   1.086   1.040
 3922TIP3    H233326   2.787   1.178   1.127
 3923TIP3   OH233327   3.719   0.360   1.164
 3923TIP3    H133328   3.723   0.390   1.254
 3923TIP3    H233329   3.747   0.436   1.112
 3924TIP3   OH233330   3.166   0.633   1.020
 3924TIP3    H133331   3.147   0.616   1.112
 3924TIP3    H233332   3.086   0.607   0.974
 3925TIP3   OH233333   2.433   0.416   0.805
 3925TIP3    H133334   2.439   0.502   0.763
 3925TIP3    H233335   2.380   0.364   0.744
 3926TIP3   OH233336   3.242   0.448   0.672
 3926TIP3    H133337   3.288   0.430   0.754
 3926TIP3    H233338   3.306   0.494   0.618
 3927TIP3   OH233339   2.104   0.675   0.883
 3927TIP3    H133340   2.167   0.634   0.943
 3927TIP3    H233341   2.123   0.636   0.798
 3928TIP3   OH233342   2.591   0.817   0.845
 3928TIP3    H133343   2.673   0.778   0.876
 3928TIP3    H233344   2.550   0.747   0.794
 3929TIP3   OH233345   3.742   0.483   1.409
 3929TIP3    H133346   3.664   0.535   1.388
 3929TIP3    H233347   3.745   0.482   1.505
 3930TIP3   OH233348   2.328   0.326   1.229
 3930TIP3    H133349   2.300   0.386   1.161
 3930TIP3    H233350   2.259   0.332   1.296
 3931TIP3   OH233351   3.044   1.288   0.554
 3931TIP3    H133352   3.023   1.284   0.460
 3931TIP3    H233353   2.993   1.362   0.586
 3932TIP3   OH233354   2.612   1.167   1.196
 3932TIP3    H133355   2.543   1.188   1.258
 3932TIP3    H233356   2.601   1.231   1.126
 3933TIP3   OH233357   3.383   0.397   0.895
 3933TIP3    H133358   3.329   0.357   0.964
 3933TIP3    H233359   3.431   0.466   0.940
 3934TIP3   OH233360   2.282   0.505   1.018
 3934TIP3    H133361   2.337   0.565   1.069
 3934TIP3    H233362   2.342   0.468   0.952
 3935TIP3   OH233363   2.410   1.316   1.314
 3935TIP3    H133364   2.422   1.411   1.316
 3935TIP3    H233365   2.323   1.302   1.351
 3936TIP3   OH233366   1.991   1.289   0.407
 3936TIP3    H133367   1.991   1.329   0.321
 3936TIP3    H233368   2.017   1.359   0.467
 3937TIP3   OH233369   3.376   1.466   1.075
 3937TIP3    H133370   3.287   1.469   1.108
 3937TIP3    H233371   3.399   1.558   1.060
 3938TIP3   OH233372   3.462   0.254   1.247
 3938TIP3    H133373   3.384   0.267   1.194
 3938TIP3    H233374   3.531   0.299   1.199
 3939TIP3   OH233375   2.667   0.019   0.977
 3939TIP3    H133376   2.642   7.231   0.968
 3939TIP3    H233377   2.590   0.061   1.015
 3940TIP3   OH233378   3.192   1.589   0.728
 3940TIP3    H133379   3.231   1.504   0.708
 3940TIP3    H233380   3.261   1.652   0.711
 3941TIP3   OH233381   3.293   1.342   0.658
 3941TIP3    H133382   3.212   1.314   0.613
 3941TIP3    H233383   3.287   1.302   0.744
 3942TIP3   OH233384   3.478   1.228   1.434
 3942TIP3    H133385   3.486   1.164   1.363
 3942TIP3    H233386   3.513   1.309   1.396
 3943TIP3   OH233387   2.940   0.935   0.431
 3943TIP3    H133388   2.867   0.997   0.421
 3943TIP3    H233389   2.985   0.937   0.347
 3944TIP3   OH233390   2.938   0.747   0.121
 3944TIP3    H133391   3.017   0.776   0.166
 3944TIP3    H233392   2.941   0.651   0.127
 3945TIP3   OH233393   3.669   0.863   1.226
 3945TIP3    H133394   3.597   0.924   1.242
 3945TIP3    H233395   3.735   0.915   1.180
 3946TIP3   OH233396   3.297   0.949   0.498
 3946TIP3    H133397   3.230   0.980   0.558
 3946TIP3    H233398   3.360   0.904   0.555
 3947TIP3   OH233399   3.323   0.758   1.448
 3947TIP3    H133400   3.287   0.825   1.505
 3947TIP3    H233401   3.247   0.714   1.410
 3948TIP3   OH233402   2.456   1.012   0.700
 3948TIP3    H133403   2.431   0.971   0.617
 3948TIP3    H233404   2.507   0.945   0.746
 3949TIP3   OH233405   2.639   1.363   0.968
 3949TIP3    H133406   2.606   1.371   0.879
 3949TIP3    H233407   2.720   1.314   0.959
 3950TIP3   OH233408   2.462   0.929   1.064
 3950TIP3    H133409   2.514   0.893   0.991
 3950TIP3    H233410   2.528   0.956   1.128
 3951TIP3   OH233411   3.121   1.430   1.181
 3951TIP3    H133412   3.100   1.523   1.173
 3951TIP3    H233413   3.116   1.412   1.275
 3952TIP3   OH233414   2.592   1.333   1.534
 3952TIP3    H133415   2.531   1.389   1.582
 3952TIP3    H233416   2.543   1.304   1.458
 3953TIP3   OH233417   3.179   0.845   0.270
 3953TIP3    H133418   3.210   0.883   0.352
 3953TIP3    H233419   3.229   0.892   0.202
 3954TIP3   OH233420   2.257   0.973   1.464
 3954TIP3    H133421   2.267   1.042   1.530
 3954TIP3    H233422   2.166   0.943   1.474
 3955TIP3   OH233423   2.938   1.526   0.636
 3955TIP3    H133424   3.018   1.561   0.676
 3955TIP3    H233425   2.902   1.600   0.587
 3956TIP3   OH233426   2.398   1.504   1.623
 3956TIP3    H133427   2.394   1.543   1.535
 3956TIP3    H233428   2.307   1.491   1.648
 3957TIP3   OH233429   3.528   0.087   0.271
 3957TIP3    H133430   3.523   7.299   0.296
 3957TIP3    H233431   3.551   0.133   0.352
 3958TIP3   OH233432   2.374   0.923   0.440
 3958TIP3    H133433   2.309   0.989   0.415
 3958TIP3    H233434   2.331   0.839   0.422
 3959TIP3   OH233435   3.651   1.477   0.127
 3959TIP3    H133436   3.671   1.571   0.126
 3959TIP3    H233437   3.736   1.434   0.117
 3960TIP3   OH233438   1.949   1.173   1.371
 3960TIP3    H133439   1.898   1.175   1.290
 3960TIP3    H233440   1.963   1.080   1.388
 3961TIP3   OH233441   1.923   1.467   1.060
 3961TIP3    H133442   2.001   1.470   1.115
 3961TIP3    H233443   1.873   1.545   1.085
 3962TIP3   OH233444   2.823   1.479   1.492
 3962TIP3    H133445   2.819   1.552   1.553
 3962TIP3    H233446   2.746   1.426   1.511
 3963TIP3   OH233447   2.935   1.812   0.494
 3963TIP3    H133448   2.912   1.830   0.403
 3963TIP3    H233449   2.899   1.885   0.543
 3964TIP3   OH233450   2.258   1.693   0.675
 3964TIP3    H133451   2.279   1.660   0.763
 3964TIP3    H233452   2.202   1.625   0.637
 3965TIP3   OH233453   3.220   1.737   0.128
 3965TIP3    H133454   3.288   1.671   0.111
 3965TIP3    H233455   3.220   1.746   0.223
 3966TIP3   OH233456   3.197   1.754   0.418
 3966TIP3    H133457   3.105   1.761   0.445
 3966TIP3    H233458   3.240   1.714   0.494
 3967TIP3   OH233459   3.426   0.658   1.691
 3967TIP3    H133460   3.391   0.704   1.616
 3967TIP3    H233461   3.396   0.567   1.680
 3968TIP3   OH233462   2.162   1.335   1.428
 3968TIP3    H133463   2.182   1.314   1.520
 3968TIP3    H233464   2.087   1.279   1.407
 3969TIP3   OH233465   2.416   0.114   1.061
 3969TIP3    H133466   2.328   0.125   1.026
 3969TIP3    H233467   2.423   0.178   1.132
 3970TIP3   OH233468   2.927   0.129   1.462
 3970TIP3    H133469   2.954   0.126   1.554
 3970TIP3    H233470   2.833   0.111   1.463
 3971TIP3   OH233471   3.252   0.467   1.568
 3971TIP3    H133472   3.180   0.429   1.619
 3971TIP3    H233473   3.211   0.504   1.491
 3972TIP3   OH233474   3.353   0.991   0.102
 3972TIP3    H133475   3.427   1.019   0.049
 3972TIP3    H233476   3.355   1.048   0.179
 3973TIP3   OH233477   2.918   0.378   0.133
 3973TIP3    H133478   2.856   0.349   0.201
 3973TIP3    H233479   2.872   0.363   0.051
 3974TIP3   OH233480   2.430   0.671   1.174
 3974TIP3    H133481   2.378   0.668   1.255
 3974TIP3    H233482   2.430   0.763   1.149
 3975TIP3   OH233483   2.438   0.656   0.674
 3975TIP3    H133484   2.343   0.649   0.667
 3975TIP3    H233485   2.470   0.629   0.588
 3976TIP3   OH233486   3.002   0.686   0.529
 3976TIP3    H133487   2.979   0.774   0.501
 3976TIP3    H233488   3.067   0.657   0.465
 3977TIP3   OH233489   2.927   0.739   1.698
 3977TIP3    H133490   2.874   0.659   1.698
 3977TIP3    H233491   3.009   0.714   1.739
 3978TIP3   OH233492   3.011   0.576   0.785
 3978TIP3    H133493   2.996   0.630   0.707
 3978TIP3    H233494   3.088   0.524   0.764
 3979TIP3   OH233495   2.231   0.636   1.372
 3979TIP3    H133496   2.267   0.658   1.458
 3979TIP3    H233497   2.191   0.549   1.384
 3980TIP3   OH233498   2.598   0.399   0.071
 3980TIP3    H133499   2.572   0.360   0.155
 3980TIP3    H233500   2.522   0.451   0.045
 3981TIP3   OH233501   1.877   0.338   0.763
 3981TIP3    H133502   1.930   0.365   0.837
 3981TIP3    H233503   1.934   0.351   0.687
 3982TIP3   OH233504   1.935   0.462   0.265
 3982TIP3    H133505   2.006   0.510   0.222
 3982TIP3    H233506   1.868   0.529   0.282
 3983TIP3   OH233507   2.938   0.856   1.311
 3983TIP3    H133508   2.980   0.770   1.311
 3983TIP3    H233509   2.954   0.891   1.398
 3984TIP3   OH233510   2.708   0.434   0.760
 3984TIP3    H133511   2.619   0.425   0.794
 3984TIP3    H233512   2.759   0.369   0.809
 3985TIP3   OH233513   2.179   0.566   0.641
 3985TIP3    H133514   2.104   0.596   0.590
 3985TIP3    H233515   2.192   0.475   0.613
 3986TIP3   OH233516   2.512   0.557   0.428
 3986TIP3    H133517   2.607   0.565   0.440
 3986TIP3    H233518   2.494   0.606   0.348
 3987TIP3   OH233519   3.234   0.242   1.068
 3987TIP3    H133520   3.181   0.258   1.147
 3987TIP3    H233521   3.169   0.226   0.999
 3988TIP3   OH233522   2.450   0.679   0.192
 3988TIP3    H133523   2.394   0.628   0.133
 3988TIP3    H233524   2.517   0.717   0.134
 3989TIP3   OH233525   3.482   1.920   1.783
 3989TIP3    H133526   3.444   1.999   1.744
 3989TIP3    H233527   3.483   1.938   1.877
 3990TIP3   OH233528   2.248   1.171   1.664
 3990TIP3    H133529   2.312   1.190   1.733
 3990TIP3    H233530   2.165   1.161   1.710
 3991TIP3   OH233531   2.823   0.704   0.954
 3991TIP3    H133532   2.873   0.643   0.900
 3991TIP3    H233533   2.788   0.651   1.025
 3992TIP3   OH233534   2.274   0.290   0.610
 3992TIP3    H133535   2.232   0.210   0.641
 3992TIP3    H233536   2.301   0.270   0.520
 3993TIP3   OH233537   2.690   0.572   1.163
 3993TIP3    H133538   2.605   0.614   1.171
 3993TIP3    H233539   2.732   0.586   1.248
 3994TIP3   OH233540   2.756   1.132   0.361
 3994TIP3    H133541   2.684   1.092   0.312
 3994TIP3    H233542   2.716   1.161   0.442
 3995TIP3   OH233543   3.484   1.071   1.206
 3995TIP3    H133544   3.530   1.128   1.144
 3995TIP3    H233545   3.402   1.049   1.161
 3996TIP3   OH233546   3.171   0.340   0.216
 3996TIP3    H133547   3.083   0.344   0.179
 3996TIP3    H233548   3.187   0.429   0.250
 3997TIP3   OH233549   2.862   1.138   1.468
 3997TIP3    H133550   2.828   1.069   1.526
 3997TIP3    H233551   2.850   1.219   1.518
 3998TIP3   OH233552   3.208   0.582   0.352
 3998TIP3    H133553   3.291   0.579   0.400
 3998TIP3    H233554   3.207   0.669   0.312
 3999TIP3   OH233555   2.270   1.059   0.905
 3999TIP3    H133556   2.330   1.055   0.830
 3999TIP3    H233557   2.316   1.011   0.974
 4000TIP3   OH233558   2.981   1.273   0.277
 4000TIP3    H133559   2.943   1.360   0.290
 4000TIP3    H233560   2.909   1.213   0.295
 4001TIP3   OH233561   1.977   0.909   1.463
 4001TIP3    H133562   1.955   0.853   1.537
 4001TIP3    H233563   1.917   0.883   1.394
 4002TIP3   OH233564   2.747   0.934   1.622
 4002TIP3    H133565   2.673   0.874   1.610
 4002TIP3    H233566   2.817   0.878   1.657
 4003TIP3   OH233567   3.098   1.480   1.457
 4003TIP3    H133568   3.002   1.474   1.459
 4003TIP3    H233569   3.125   1.458   1.547
 4004TIP3   OH233570   3.644   0.638   0.323
 4004TIP3    H133571   3.594   0.622   0.243
 4004TIP3    H233572   3.670   0.730   0.317
 4005TIP3   OH233573   3.702   1.246   1.610
 4005TIP3    H133574   3.614   1.210   1.606
 4005TIP3    H233575   3.743   1.220   1.527
 4006TIP3   OH233576   3.544   1.516   0.387
 4006TIP3    H133577   3.487   1.446   0.419
 4006TIP3    H233578   3.570   1.486   0.300
 4007TIP3   OH233579   3.248   1.005   1.036
 4007TIP3    H133580   3.162   0.966   1.052
 4007TIP3    H233581   3.298   0.935   0.994
 4008TIP3   OH233582   2.531   1.435   0.713
 4008TIP3    H133583   2.548   1.519   0.671
 4008TIP3    H233584   2.437   1.436   0.733
 4009TIP3   OH233585   2.088   0.938   0.151
 4009TIP3    H133586   2.125   0.988   0.224
 4009TIP3    H233587   1.996   0.926   0.174
 4010TIP3   OH233588   2.623   1.205   0.585
 4010TIP3    H133589   2.601   1.289   0.627
 4010TIP3    H233590   2.566   1.141   0.630
 4011TIP3   OH233591   2.715   1.615   1.276
 4011TIP3    H133592   2.774   1.686   1.254
 4011TIP3    H233593   2.762   1.563   1.341
 4012TIP3   OH233594   2.521   1.697   0.592
 4012TIP3    H133595   2.429   1.709   0.613
 4012TIP3    H233596   2.564   1.774   0.629
 4013TIP3   OH233597   3.077   1.154   1.301
 4013TIP3    H133598   2.993   1.142   1.345
 4013TIP3    H233599   3.142   1.154   1.371
 4014TIP3   OH233600   3.249   1.311   0.166
 4014TIP3    H133601   3.299   1.261   0.231
 4014TIP3    H233602   3.158   1.305   0.196
 4015TIP3   OH233603   3.333   1.628   1.447
 4015TIP3    H133604   3.250   1.580   1.447
 4015TIP3    H233605   3.316   1.705   1.392
 4016TIP3   OH233606   3.716   1.745   0.167
 4016TIP3    H133607   3.784   1.812   0.158
 4016TIP3    H233608   3.637   1.795   0.186
 4017TIP3   OH233609   2.115   0.379   1.402
 4017TIP3    H133610   2.024   0.408   1.399
 4017TIP3    H233611   2.117   0.313   1.472
 4018TIP3   OH233612   3.405   1.140   0.329
 4018TIP3    H133613   3.358   1.090   0.396
 4018TIP3    H233614   3.496   1.141   0.359
 4019TIP3   OH233615   2.111   1.569   1.263
 4019TIP3    H133616   2.131   1.492   1.317
 4019TIP3    H233617   2.117   1.643   1.323
 4020TIP3   OH233618   2.546   1.397   0.262
 4020TIP3    H133619   2.611   1.344   0.308
 4020TIP3    H233620   2.568   1.487   0.286
 4021TIP3   OH233621   2.195   1.111   0.340
 4021TIP3    H133622   2.123   1.155   0.385
 4021TIP3    H233623   2.240   1.181   0.292
 4022TIP3   OH233624   3.049   0.277   1.259
 4022TIP3    H133625   3.049   0.368   1.287
 4022TIP3    H233626   3.006   0.230   1.331
 4023TIP3   OH233627   3.085   0.302   0.505
 4023TIP3    H133628   3.068   0.353   0.426
 4023TIP3    H233629   3.130   0.363   0.563
 4024TIP3   OH233630   2.851   1.505   0.325
 4024TIP3    H133631   2.771   1.554   0.348
 4024TIP3    H233632   2.892   1.558   0.257
 4025TIP3   OH233633   2.774   0.534   0.517
 4025TIP3    H133634   2.849   0.593   0.528
 4025TIP3    H233635   2.751   0.508   0.606
 4026TIP3   OH233636   2.790   0.589   1.416
 4026TIP3    H133637   2.780   0.568   1.509
 4026TIP3    H233638   2.884   0.585   1.401
 4027TIP3   OH233639   2.876   0.154   0.597
 4027TIP3    H133640   2.864   0.183   0.687
 4027TIP3    H233641   2.953   0.201   0.566
 4028TIP3   OH233642   2.616   1.652   0.338
 4028TIP3    H133643   2.609   1.734   0.290
 4028TIP3    H233644   2.581   1.671   0.425
 4029TIP3   OH233645   2.520   0.296   0.322
 4029TIP3    H133646   2.485   0.377   0.360
 4029TIP3    H233647   2.614   0.300   0.342
 4030TIP3   OH233648   3.482   0.326   1.515
 4030TIP3    H133649   3.404   0.375   1.543
 4030TIP3    H233650   3.469   0.312   1.421
 4031TIP3   OH233651   3.367   0.778   0.917
 4031TIP3    H133652   3.286   0.736   0.942
 4031TIP3    H233653   3.436   0.728   0.961
 4032TIP3   OH233654   2.295   1.324   0.183
 4032TIP3    H133655   2.369   1.365   0.227
 4032TIP3    H233656   2.334   1.271   0.114
 4033TIP3   OH233657   2.082   0.653   0.133
 4033TIP3    H133658   2.100   0.747   0.126
 4033TIP3    H233659   2.156   0.612   0.088
 4034TIP3   OH233660   3.470   1.733   1.062
 4034TIP3    H133661   3.447   1.794   0.992
 4034TIP3    H233662   3.565   1.743   1.072
 4035TIP3   OH233663   2.157   0.118   0.965
 4035TIP3    H133664   2.152   0.094   0.872
 4035TIP3    H233665   2.111   0.048   1.011
 4036TIP3   OH233666   2.062   1.514   0.567
 4036TIP3    H133667   2.013   1.542   0.644
 4036TIP3    H233668   2.044   1.580   0.500
 4037TIP3   OH233669   2.019   1.781   1.720
 4037TIP3    H133670   2.078   1.750   1.788
 4037TIP3    H233671   1.969   1.704   1.694
 4038TIP3   OH233672   2.442   1.647   1.855
 4038TIP3    H133673   2.526   1.628   1.896
 4038TIP3    H233674   2.440   1.592   1.777
 4039TIP3   OH233675   2.966   1.635   0.116
 4039TIP3    H133676   2.935   1.597   0.034
 4039TIP3    H233677   3.057   1.657   0.100
 4040TIP3   OH233678   3.148   1.435   1.720
 4040TIP3    H133679   3.073   1.390   1.759
 4040TIP3    H233680   3.198   1.468   1.795
 4041TIP3   OH233681   3.379   1.527   0.049
 4041TIP3    H133682   3.334   1.452   0.088
 4041TIP3    H233683   3.472   1.510   0.066
 4042TIP3   OH233684   2.007   1.143   1.798
 4042TIP3    H133685   1.992   1.048   1.799
 4042TIP3    H233686   1.936   1.178   1.745
 4043TIP3   OH233687   2.444   1.152   0.024
 4043TIP3    H133688   2.483   1.111   0.101
 4043TIP3    H233689   2.463   1.091   8.453
 4044TIP3   OH233690   2.651   1.165   1.744
 4044TIP3    H133691   2.639   1.209   1.660
 4044TIP3    H233692   2.689   1.080   1.721
 4045TIP3   OH233693   3.229   1.181   1.531
 4045TIP3    H133694   3.321   1.195   1.508
 4045TIP3    H233695   3.213   1.241   1.603
 4046TIP3   OH233696   2.161   0.864   1.795
 4046TIP3    H133697   2.194   0.788   1.747
 4046TIP3    H233698   2.240   0.905   1.830
 4047TIP3   OH233699   2.551   1.000   0.232
 4047TIP3    H133700   2.496   0.963   0.301
 4047TIP3    H233701   2.582   0.924   0.182
 4048TIP3   OH233702   2.477   0.792   1.460
 4048TIP3    H133703   2.408   0.857   1.466
 4048TIP3    H233704   2.539   0.827   1.397
 4049TIP3   OH233705   2.664   0.804   0.063
 4049TIP3    H133706   2.657   0.801   8.467
 4049TIP3    H233707   2.757   0.789   0.080
 4050TIP3   OH233708   3.028   1.009   1.838
 4050TIP3    H133709   3.104   0.967   1.797
 4050TIP3    H233710   2.984   0.938   1.884
 4051TIP3   OH233711   3.594   1.105   0.006
 4051TIP3    H133712   3.578   1.131   8.416
 4051TIP3    H233713   3.605   1.187   0.054
 4052TIP3   OH233714   2.500   0.532   1.549
 4052TIP3    H133715   2.541   0.473   1.485
 4052TIP3    H233716   2.509   0.619   1.511
 4053TIP3   OH233717   2.581   0.356   1.332
 4053TIP3    H133718   2.630   0.415   1.275
 4053TIP3    H233719   2.493   0.356   1.296
 4054TIP3   OH233720   2.660   0.897   1.283
 4054TIP3    H133721   2.747   0.861   1.298
 4054TIP3    H233722   2.673   0.992   1.283
 4055TIP3   OH233723   3.159   0.658   1.836
 4055TIP3    H133724   3.166   0.563   1.835
 4055TIP3    H233725   3.241   0.689   1.796
 4056TIP3   OH233726   3.271   0.936   1.655
 4056TIP3    H133727   3.244   1.019   1.616
 4056TIP3    H233728   3.361   0.950   1.684
 4057TIP3   OH233729   2.275   0.630   1.685
 4057TIP3    H133730   2.236   0.551   1.723
 4057TIP3    H233731   2.364   0.604   1.663
 4058TIP3   OH233732   2.634   0.094   1.395
 4058TIP3    H133733   2.624   0.187   1.375
 4058TIP3    H233734   2.616   0.087   1.489
 4059TIP3   OH233735   2.758   0.517   1.687
 4059TIP3    H133736   2.788   0.484   1.772
 4059TIP3    H233737   2.663   0.507   1.689
 4060TIP3   OH233738   3.023   0.390   1.694
 4060TIP3    H133739   2.948   0.409   1.638
 4060TIP3    H233740   2.987   0.391   1.783
 4061TIP3   OH233741   2.157   0.402   1.790
 4061TIP3    H133742   2.156   0.325   1.733
 4061TIP3    H233743   2.212   0.377   1.864
 4062TIP3   OH233744   2.757   0.019   1.705
 4062TIP3    H133745   2.738   7.249   1.765
 4062TIP3    H233746   2.744   0.097   1.759
 4063TIP3   OH233747   2.643   1.862   0.156
 4063TIP3    H133748   2.731   1.882   0.188
 4063TIP3    H233749   2.643   1.891   0.065
 4064TIP3   OH233750   2.022   1.344   0.121
 4064TIP3    H133751   2.113   1.356   0.147
 4064TIP3    H233752   2.026   1.289   0.042
 4065TIP3   OH233753   1.898   1.840   0.658
 4065TIP3    H133754   1.837   1.810   0.591
 4065TIP3    H233755   1.913   1.762   0.712
 4066TIP3   OH233756   1.967   1.620   0.817
 4066TIP3    H133757   1.931   1.547   0.866
 4066TIP3    H233758   2.017   1.670   0.881
 4067TIP3   OH233759   3.744   1.807   1.122
 4067TIP3    H133760   3.724   1.777   1.210
 4067TIP3    H233761   3.823   1.759   1.098
 4068TIP3   OH233762   3.688   1.685   1.365
 4068TIP3    H133763   3.643   1.605   1.338
 4068TIP3    H233764   3.665   1.695   1.457
 4069TIP3   OH233765   3.670   1.097   0.415
 4069TIP3    H133766   3.738   1.165   0.419
 4069TIP3    H233767   3.686   1.042   0.492
 4070TIP3   OH233768   3.722   0.911   0.617
 4070TIP3    H133769   3.636   0.885   0.650
 4070TIP3    H233770   3.773   0.931   0.695
 4071TIP3   OH233771   3.665   1.217   1.060
 4071TIP3    H133772   3.734   1.151   1.065
 4071TIP3    H233773   3.712   1.301   1.056
 4072TIP3   OH233774   3.522   1.474   1.311
 4072TIP3    H133775   3.453   1.516   1.363
 4072TIP3    H233776   3.481   1.457   1.226
 4073TIP3   OH233777   3.680   0.914   0.212
 4073TIP3    H133778   3.648   0.969   0.141
 4073TIP3    H233779   3.675   0.969   0.290
 4074TIP3   OH233780   3.504   0.649   0.087
 4074TIP3    H133781   3.498   0.744   0.098
 4074TIP3    H233782   3.569   0.637   0.018
 4075TIP3   OH233783   3.467   0.795   0.661
 4075TIP3    H133784   3.453   0.704   0.634
 4075TIP3    H233785   3.430   0.799   0.750
 4076TIP3   OH233786   1.960   0.979   1.081
 4076TIP3    H133787   1.973   0.964   0.987
 4076TIP3    H233788   2.039   0.944   1.122
 4077TIP3   OH233789   3.545   0.985   1.696
 4077TIP3    H133790   3.606   0.913   1.680
 4077TIP3    H233791   3.551   1.001   1.790
 4078TIP3   OH233792   3.682   0.745   1.617
 4078TIP3    H133793   3.592   0.720   1.639
 4078TIP3    H233794   3.736   0.673   1.647
 4079TIP3   OH233795   3.420   0.339   0.068
 4079TIP3    H133796   3.488   0.406   0.074
 4079TIP3    H233797   3.342   0.386   0.041
 4080TIP3   OH233798   3.450   0.534   0.498
 4080TIP3    H133799   3.473   0.441   0.504
 4080TIP3    H233800   3.522   0.573   0.448
 4081TIP3   OH233801   3.520   0.586   1.039
 4081TIP3    H133802   3.616   0.593   1.037
 4081TIP3    H233803   3.497   0.593   1.131
 4082TIP3   OH233804   3.532   0.640   1.310
 4082TIP3    H133805   3.457   0.669   1.361
 4082TIP3    H233806   3.583   0.720   1.295
 4083TIP3   OH233807   1.919   0.474   1.658
 4083TIP3    H133808   2.001   0.461   1.705
 4083TIP3    H233809   1.864   0.400   1.685
 4084TIP3   OH233810   3.742   7.302   1.867
 4084TIP3    H133811   3.761   7.242   1.796
 4084TIP3    H233812   3.721   0.081   1.824
 4085TIP3   OH233813   3.498   0.249   0.511
 4085TIP3    H133814   3.518   0.218   0.599
 4085TIP3    H233815   3.414   0.209   0.490
 4086TIP3   OH233816   2.042   0.367   0.985
 4086TIP3    H133817   2.081   0.280   0.985
 4086TIP3    H233818   2.116   0.426   1.002
 4087TIP3   OH233819   1.874   0.651   1.041
 4087TIP3    H133820   1.946   0.654   0.977
 4087TIP3    H233821   1.913   0.687   1.121
 4088TIP3   OH233822   3.648   0.209   1.698
 4088TIP3    H133823   3.645   0.271   1.772
 4088TIP3    H233824   3.602   0.254   1.627
 4089TIP3   OH233825   3.704   0.326   0.147
 4089TIP3    H133826   3.635   0.272   0.109
 4089TIP3    H233827   3.712   0.295   0.237
 4090TIP3   OH233828   1.921   0.277   0.466
 4090TIP3    H133829   1.826   0.275   0.478
 4090TIP3    H233830   1.936   0.344   0.400
 4091TIP3   OH233831   3.381   1.769   0.658
 4091TIP3    H133832   3.461   1.769   0.606
 4091TIP3    H233833   3.402   1.822   0.735
 4092TIP3   OH233834   1.918   0.068   1.255
 4092TIP3    H133835   1.856   0.061   1.328
 4092TIP3    H233836   1.900   0.154   1.216
 4093TIP3   OH233837   2.138   1.475   1.704
 4093TIP3    H133838   2.053   1.500   1.668
 4093TIP3    H233839   2.119   1.450   1.795
 4094TIP3   OH233840   2.452   1.586   1.354
 4094TIP3    H133841   2.421   1.674   1.333
 4094TIP3    H233842   2.546   1.588   1.335
 4095TIP3   OH233843   2.832   1.707   1.648
 4095TIP3    H133844   2.845   1.673   1.737
 4095TIP3    H233845   2.912   1.754   1.628
 4096TIP3   OH233846   3.070   1.838   1.602
 4096TIP3    H133847   3.134   1.771   1.581
 4096TIP3    H233848   3.100   1.875   1.685
 4097TIP3   OH233849   3.617   0.047   1.359
 4097TIP3    H133850   3.557   0.120   1.343
 4097TIP3    H233851   3.561   7.274   1.361
 4098TIP3   OH233852   2.148   1.874   1.360
 4098TIP3    H133853   2.069   1.911   1.321
 4098TIP3    H233854   2.155   1.916   1.446
 4099TIP3   OH233855   2.412   1.851   1.286
 4099TIP3    H133856   2.320   1.861   1.311
 4099TIP3    H233857   2.419   1.897   1.203
 4100TIP3   OH233858   2.863   1.830   1.182
 4100TIP3    H133859   2.805   1.871   1.119
 4100TIP3    H233860   2.873   1.895   1.252
 4101TIP3   OH233861   3.103   1.702   1.178
 4101TIP3    H133862   3.020   1.746   1.191
 4101TIP3    H233863   3.168   1.761   1.216
 4102TIP3   OH233864   3.327   1.846   1.271
 4102TIP3    H133865   3.348   1.939   1.267
 4102TIP3    H233866   3.381   1.806   1.203
 4103TIP3   OH233867   2.127   1.728   1.025
 4103TIP3    H133868   2.110   1.685   1.109
 4103TIP3    H233869   2.205   1.685   0.991
 4104TIP3   OH233870   2.340   1.592   0.919
 4104TIP3    H133871   2.326   1.502   0.947
 4104TIP3    H233872   2.425   1.616   0.956
 4105TIP3   OH233873   2.596   1.636   1.027
 4105TIP3    H133874   2.617   1.547   0.997
 4105TIP3    H233875   2.623   1.638   1.119
 4106TIP3   OH233876   2.830   0.209   0.860
 4106TIP3    H133877   2.780   0.149   0.916
 4106TIP3    H233878   2.921   0.196   0.888
 4107TIP3   OH233879   3.368   0.056   0.900
 4107TIP3    H133880   3.444   0.099   0.861
 4107TIP3    H233881   3.342   0.114   0.972
 4108TIP3   OH233882   3.595   0.162   0.757
 4108TIP3    H133883   3.653   0.098   0.798
 4108TIP3    H233884   3.640   0.246   0.765
 4109TIP3   OH233885   2.176   0.036   0.697
 4109TIP3    H133886   2.119   7.287   0.641
 4109TIP3    H233887   2.238   7.277   0.734
 4110TIP3   OH233888   2.066   0.070   0.347
 4110TIP3    H133889   2.115   0.110   0.275
 4110TIP3    H233890   2.018   0.143   0.387
 4111TIP3   OH233891   2.623   0.050   0.637
 4111TIP3    H133892   2.712   0.082   0.622
 4111TIP3    H233893   2.596   0.092   0.719
 4112TIP3   OH233894   3.103   0.157   0.839
 4112TIP3    H133895   3.138   0.205   0.763
 4112TIP3    H233896   3.156   0.078   0.844
 4113TIP3   OH233897   3.267   0.115   0.422
 4113TIP3    H133898   3.192   0.171   0.442
 4113TIP3    H233899   3.263   0.045   0.487
 4114TIP3   OH233900   2.020   1.699   0.372
 4114TIP3    H133901   1.947   1.691   0.310
 4114TIP3    H233902   2.045   1.791   0.369
 4115TIP3   OH233903   2.189   0.206   0.139
 4115TIP3    H133904   2.137   0.178   0.064
 4115TIP3    H233905   2.227   0.290   0.113
 4116TIP3   OH233906   2.787   0.306   0.373
 4116TIP3    H133907   2.808   0.239   0.439
 4116TIP3    H233908   2.786   0.388   0.422
 4117TIP3   OH233909   2.909   1.878   0.226
 4117TIP3    H133910   2.973   1.938   0.187
 4117TIP3    H233911   2.928   1.794   0.185
 4118TIP3   OH233912   3.599   1.764   0.486
 4118TIP3    H133913   3.584   1.675   0.455
 4118TIP3    H233914   3.584   1.819   0.409
 4119TIP3   OH233915   2.118   0.188   1.611
 4119TIP3    H133916   2.048   0.150   1.664
 4119TIP3    H233917   2.199   0.157   1.651
 4120TIP3   OH233918   2.303   0.121   1.803
 4120TIP3    H133919   2.393   0.091   1.816
 4120TIP3    H233920   2.248   0.046   1.825
 4121TIP3   OH233921   2.252   1.800   0.082
 4121TIP3    H133922   2.158   1.806   0.100
 4121TIP3    H233923   2.272   1.707   0.096
 4122TIP3   OH233924   3.154   0.008   1.818
 4122TIP3    H133925   3.079   0.037   1.869
 4122TIP3    H233926   3.231   0.034   1.869
 4123TIP3   OH233927   3.557   1.706   1.612
 4123TIP3    H133928   3.479   1.658   1.585
 4123TIP3    H233929   3.526   1.765   1.680
 4124TIP3   OH233930   4.960   1.023   0.656
 4124TIP3    H133931   4.937   1.116   0.651
 4124TIP3    H233932   4.890   0.979   0.608
 4125TIP3   OH233933   4.852   0.936   1.060
 4125TIP3    H133934   4.878   0.894   1.142
 4125TIP3    H233935   4.801   0.869   1.014
 4126TIP3   OH233936   4.054   0.885   1.220
 4126TIP3    H133937   4.053   0.797   1.258
 4126TIP3    H233938   4.105   0.937   1.282
 4127TIP3   OH233939   5.236   1.243   0.888
 4127TIP3    H133940   5.195   1.170   0.934
 4127TIP3    H233941   5.254   1.308   0.956
 4128TIP3   OH233942   4.193   1.329   0.981
 4128TIP3    H133943   4.166   1.240   0.962
 4128TIP3    H233944   4.286   1.322   1.005
 4129TIP3   OH233945   3.843   0.661   0.570
 4129TIP3    H133946   3.812   0.751   0.576
 4129TIP3    H233947   3.778   0.610   0.619
 4130TIP3   OH233948   3.915   0.933   0.826
 4130TIP3    H133949   3.943   0.845   0.849
 4130TIP3    H233950   3.993   0.987   0.839
 4131TIP3   OH233951   4.957   1.726   0.924
 4131TIP3    H133952   4.985   1.668   0.854
 4131TIP3    H233953   4.937   1.668   0.997
 4132TIP3   OH233954   4.694   1.190   1.072
 4132TIP3    H133955   4.732   1.109   1.038
 4132TIP3    H233956   4.761   1.224   1.132
 4133TIP3   OH233957   5.604   0.333   1.170
 4133TIP3    H133958   5.616   0.405   1.232
 4133TIP3    H233959   5.658   0.356   1.095
 4134TIP3   OH233960   5.008   0.592   1.078
 4134TIP3    H133961   5.031   0.501   1.093
 4134TIP3    H233962   4.990   0.597   0.984
 4135TIP3   OH233963   4.327   0.427   0.815
 4135TIP3    H133964   4.341   0.510   0.768
 4135TIP3    H233965   4.273   0.375   0.755
 4136TIP3   OH233966   5.136   0.440   0.654
 4136TIP3    H133967   5.184   0.418   0.733
 4136TIP3    H233968   5.200   0.484   0.599
 4137TIP3   OH233969   4.003   0.681   0.894
 4137TIP3    H133970   4.061   0.640   0.958
 4137TIP3    H233971   4.031   0.644   0.810
 4138TIP3   OH233972   4.490   0.820   0.844
 4138TIP3    H133973   4.570   0.782   0.880
 4138TIP3    H233974   4.453   0.751   0.789
 4139TIP3   OH233975   5.620   0.505   1.388
 4139TIP3    H133976   5.539   0.552   1.370
 4139TIP3    H233977   5.630   0.511   1.483
 4140TIP3   OH233978   4.213   0.322   1.231
 4140TIP3    H133979   4.187   0.386   1.165
 4140TIP3    H233980   4.144   0.327   1.298
 4141TIP3   OH233981   4.870   1.270   0.567
 4141TIP3    H133982   4.899   1.289   0.478
 4141TIP3    H233983   4.837   1.353   0.600
 4142TIP3   OH233984   4.468   1.105   1.210
 4142TIP3    H133985   4.416   1.173   1.252
 4142TIP3    H233986   4.540   1.152   1.168
 4143TIP3   OH233987   5.251   0.393   0.895
 4143TIP3    H133988   5.192   0.368   0.966
 4143TIP3    H233989   5.312   0.454   0.936
 4144TIP3   OH233990   4.175   0.507   1.028
 4144TIP3    H133991   4.228   0.564   1.084
 4144TIP3    H233992   4.236   0.474   0.963
 4145TIP3   OH233993   4.313   1.303   1.332
 4145TIP3    H133994   4.319   1.398   1.323
 4145TIP3    H233995   4.223   1.287   1.359
 4146TIP3   OH233996   3.880   1.280   0.402
 4146TIP3    H133997   3.877   1.321   0.315
 4146TIP3    H233998   3.908   1.350   0.461
 4147TIP3   OH233999   5.271   1.456   1.080
 4147TIP3    H134000   5.177   1.458   1.095
 4147TIP3    H234001   5.294   1.547   1.058
 4148TIP3   OH234002   5.349   0.272   1.270
 4148TIP3    H134003   5.275   0.295   1.214
 4148TIP3    H234004   5.426   0.294   1.218
 4149TIP3   OH234005   4.544   0.050   0.956
 4149TIP3    H134006   4.578   7.302   1.029
 4149TIP3    H234007   4.460   0.083   0.988
 4150TIP3   OH234008   5.068   1.603   0.699
 4150TIP3    H134009   5.108   1.518   0.685
 4150TIP3    H234010   5.141   1.664   0.701
 4151TIP3   OH234011   5.195   1.371   0.648
 4151TIP3    H134012   5.240   1.319   0.580
 4151TIP3    H234013   5.208   1.321   0.728
 4152TIP3   OH234014   5.384   1.238   1.437
 4152TIP3    H134015   5.371   1.177   1.364
 4152TIP3    H234016   5.396   1.323   1.395
 4153TIP3   OH234017   4.813   0.918   0.438
 4153TIP3    H134018   4.755   0.991   0.416
 4153TIP3    H234019   4.885   0.924   0.374
 4154TIP3   OH234020   4.832   0.750   0.131
 4154TIP3    H134021   4.887   0.801   0.190
 4154TIP3    H234022   4.892   0.687   0.090
 4155TIP3   OH234023   5.539   0.894   1.281
 4155TIP3    H134024   5.465   0.953   1.271
 4155TIP3    H234025   5.598   0.915   1.209
 4156TIP3   OH234026   5.178   0.949   0.511
 4156TIP3    H134027   5.110   0.977   0.573
 4156TIP3    H234028   5.244   0.905   0.565
 4157TIP3   OH234029   5.147   0.757   1.456
 4157TIP3    H134030   5.141   0.830   1.517
 4157TIP3    H234031   5.082   0.776   1.389
 4158TIP3   OH234032   4.343   1.011   0.706
 4158TIP3    H134033   4.326   0.971   0.620
 4158TIP3    H234034   4.400   0.949   0.751
 4159TIP3   OH234035   4.484   1.360   0.968
 4159TIP3    H134036   4.490   1.366   0.873
 4159TIP3    H234037   4.559   1.306   0.994
 4160TIP3   OH234038   4.341   0.912   1.060
 4160TIP3    H134039   4.403   0.888   0.992
 4160TIP3    H234040   4.387   0.977   1.113
 4161TIP3   OH234041   5.008   1.466   1.149
 4161TIP3    H134042   4.993   1.537   1.211
 4161TIP3    H234043   4.964   1.390   1.188
 4162TIP3   OH234044   4.484   1.321   1.556
 4162TIP3    H134045   4.427   1.382   1.602
 4162TIP3    H234046   4.433   1.291   1.480
 4163TIP3   OH234047   5.044   0.881   0.280
 4163TIP3    H134048   5.091   0.908   0.359
 4163TIP3    H234049   5.092   0.921   0.208
 4164TIP3   OH234050   4.161   0.965   1.473
 4164TIP3    H134051   4.175   1.035   1.537
 4164TIP3    H234052   4.071   0.936   1.489
 4165TIP3   OH234053   4.811   1.540   0.621
 4165TIP3    H134054   4.897   1.560   0.657
 4165TIP3    H234055   4.786   1.619   0.574
 4166TIP3   OH234056   4.292   1.507   1.620
 4166TIP3    H134057   4.286   1.539   1.531
 4166TIP3    H234058   4.206   1.469   1.638
 4167TIP3   OH234059   5.411   0.050   0.207
 4167TIP3    H134060   5.350   0.070   0.278
 4167TIP3    H234061   5.473   0.123   0.207
 4168TIP3   OH234062   4.257   0.925   0.439
 4168TIP3    H134063   4.196   0.991   0.406
 4168TIP3    H234064   4.202   0.851   0.462
 4169TIP3   OH234065   5.540   1.500   0.091
 4169TIP3    H134066   5.565   1.592   0.103
 4169TIP3    H234067   5.623   1.452   0.095
 4170TIP3   OH234068   3.842   1.144   1.389
 4170TIP3    H134069   3.801   1.117   1.307
 4170TIP3    H234070   3.859   1.062   1.435
 4171TIP3   OH234071   3.860   1.429   1.050
 4171TIP3    H134072   3.943   1.388   1.026
 4171TIP3    H234073   3.876   1.468   1.137
 4172TIP3   OH234074   5.657   1.531   1.667
 4172TIP3    H134075   5.644   1.438   1.649
 4172TIP3    H234076   5.570   1.563   1.691
 4173TIP3   OH234077   4.713   1.459   1.493
 4173TIP3    H134078   4.718   1.535   1.551
 4173TIP3    H234079   4.631   1.416   1.518
 4174TIP3   OH234080   4.797   1.804   0.481
 4174TIP3    H134081   4.787   1.832   0.390
 4174TIP3    H234082   4.771   1.880   0.533
 4175TIP3   OH234083   4.143   1.688   0.674
 4175TIP3    H134084   4.164   1.656   0.761
 4175TIP3    H234085   4.087   1.621   0.636
 4176TIP3   OH234086   5.088   1.757   0.159
 4176TIP3    H134087   5.159   1.704   0.125
 4176TIP3    H234088   5.093   1.747   0.254
 4177TIP3   OH234089   5.065   1.747   0.436
 4177TIP3    H134090   4.972   1.757   0.458
 4177TIP3    H234091   5.100   1.690   0.504
 4178TIP3   OH234092   5.313   0.634   1.653
 4178TIP3    H134093   5.251   0.677   1.594
 4178TIP3    H234094   5.324   0.546   1.617
 4179TIP3   OH234095   4.052   1.318   1.441
 4179TIP3    H134096   4.085   1.278   1.522
 4179TIP3    H234097   3.975   1.266   1.418
 4180TIP3   OH234098   4.292   0.126   1.044
 4180TIP3    H134099   4.198   0.124   1.022
 4180TIP3    H234100   4.296   0.178   1.123
 4181TIP3   OH234101   4.792   0.143   1.475
 4181TIP3    H134102   4.795   0.144   1.570
 4181TIP3    H234103   4.701   0.125   1.453
 4182TIP3   OH234104   5.076   0.485   1.493
 4182TIP3    H134105   5.009   0.470   1.560
 4182TIP3    H234106   5.078   0.580   1.482
 4183TIP3   OH234107   5.204   1.010   0.093
 4183TIP3    H134108   5.290   1.009   0.051
 4183TIP3    H234109   5.214   1.070   0.166
 4184TIP3   OH234110   4.777   0.312   0.084
 4184TIP3    H134111   4.689   0.319   0.122
 4184TIP3    H234112   4.803   0.221   0.102
 4185TIP3   OH234113   4.321   0.670   1.194
 4185TIP3    H134114   4.258   0.671   1.265
 4185TIP3    H234115   4.319   0.759   1.158
 4186TIP3   OH234116   4.343   0.660   0.668
 4186TIP3    H134117   4.248   0.649   0.667
 4186TIP3    H234118   4.370   0.640   0.578
 4187TIP3   OH234119   4.875   0.670   0.542
 4187TIP3    H134120   4.850   0.758   0.512
 4187TIP3    H234121   4.948   0.645   0.485
 4188TIP3   OH234122   4.797   0.713   1.689
 4188TIP3    H134123   4.744   0.641   1.723
 4188TIP3    H234124   4.882   0.704   1.733
 4189TIP3   OH234125   4.976   0.616   0.804
 4189TIP3    H134126   4.926   0.663   0.738
 4189TIP3    H234127   5.022   0.548   0.755
 4190TIP3   OH234128   4.103   0.648   1.367
 4190TIP3    H134129   4.099   0.682   1.456
 4190TIP3    H234130   4.068   0.559   1.374
 4191TIP3   OH234131   4.478   0.387   0.093
 4191TIP3    H134132   4.433   0.360   0.174
 4191TIP3    H234133   4.479   0.483   0.098
 4192TIP3   OH234134   3.803   0.361   0.697
 4192TIP3    H134135   3.832   0.385   0.785
 4192TIP3    H234136   3.873   0.307   0.662
 4193TIP3   OH234137   3.885   0.500   0.336
 4193TIP3    H134138   3.940   0.550   0.396
 4193TIP3    H234139   3.800   0.544   0.339
 4194TIP3   OH234140   4.934   0.769   1.272
 4194TIP3    H134141   4.963   0.708   1.204
 4194TIP3    H234142   4.869   0.720   1.323
 4195TIP3   OH234143   4.600   0.425   0.754
 4195TIP3    H134144   4.515   0.417   0.797
 4195TIP3    H234145   4.654   0.358   0.795
 4196TIP3   OH234146   4.087   0.572   0.650
 4196TIP3    H134147   4.000   0.594   0.617
 4196TIP3    H234148   4.095   0.478   0.635
 4197TIP3   OH234149   4.395   0.579   0.408
 4197TIP3    H134150   4.488   0.572   0.430
 4197TIP3    H234151   4.395   0.619   0.321
 4198TIP3   OH234152   5.081   0.312   1.091
 4198TIP3    H134153   5.030   0.309   1.172
 4198TIP3    H234154   5.038   0.249   1.034
 4199TIP3   OH234155   4.379   0.653   0.142
 4199TIP3    H134156   4.298   0.669   0.094
 4199TIP3    H234157   4.445   0.707   0.098
 4200TIP3   OH234158   5.374   1.880   1.739
 4200TIP3    H134159   5.397   1.922   1.656
 4200TIP3    H234160   5.389   1.947   1.805
 4201TIP3   OH234161   4.138   1.177   1.662
 4201TIP3    H134162   4.203   1.174   1.733
 4201TIP3    H234163   4.055   1.158   1.705
 4202TIP3   OH234164   4.707   0.701   0.971
 4202TIP3    H134165   4.767   0.637   0.932
 4202TIP3    H234166   4.670   0.656   1.047
 4203TIP3   OH234167   4.164   0.304   0.609
 4203TIP3    H134168   4.133   0.221   0.644
 4203TIP3    H234169   4.221   0.280   0.535
 4204TIP3   OH234170   4.589   0.583   1.199
 4204TIP3    H134171   4.504   0.627   1.204
 4204TIP3    H234172   4.637   0.615   1.275
 4205TIP3   OH234173   4.650   1.125   0.354
 4205TIP3    H134174   4.573   1.093   0.307
 4205TIP3    H234175   4.615   1.160   0.436
 4206TIP3   OH234176   5.348   1.080   1.211
 4206TIP3    H134177   5.407   1.135   1.160
 4206TIP3    H234178   5.275   1.062   1.152
 4207TIP3   OH234179   5.017   0.374   0.231
 4207TIP3    H134180   4.947   0.376   0.165
 4207TIP3    H234181   5.040   0.466   0.245
 4208TIP3   OH234182   4.786   1.174   1.501
 4208TIP3    H134183   4.800   1.138   1.589
 4208TIP3    H234184   4.747   1.260   1.517
 4209TIP3   OH234185   5.089   0.616   0.367
 4209TIP3    H134186   5.178   0.604   0.400
 4209TIP3    H234187   5.090   0.702   0.325
 4210TIP3   OH234188   4.154   1.055   0.907
 4210TIP3    H134189   4.217   1.050   0.835
 4210TIP3    H234190   4.193   1.003   0.977
 4211TIP3   OH234191   4.869   1.272   0.251
 4211TIP3    H134192   4.825   1.355   0.271
 4211TIP3    H234193   4.807   1.206   0.282
 4212TIP3   OH234194   3.892   0.906   1.524
 4212TIP3    H134195   3.929   0.896   1.612
 4212TIP3    H234196   3.811   0.855   1.526
 4213TIP3   OH234197   4.579   0.887   1.694
 4213TIP3    H134198   4.509   0.849   1.642
 4213TIP3    H234199   4.655   0.832   1.676
 4214TIP3   OH234200   4.996   1.448   1.505
 4214TIP3    H134201   4.903   1.448   1.484
 4214TIP3    H234202   5.000   1.458   1.600
 4215TIP3   OH234203   5.535   0.673   0.311
 4215TIP3    H134204   5.470   0.649   0.244
 4215TIP3    H234205   5.559   0.763   0.288
 4216TIP3   OH234206   5.597   1.261   1.609
 4216TIP3    H134207   5.509   1.265   1.572
 4216TIP3    H234208   5.652   1.235   1.535
 4217TIP3   OH234209   5.364   1.434   0.295
 4217TIP3    H134210   5.414   1.451   0.375
 4217TIP3    H234211   5.424   1.458   0.224
 4218TIP3   OH234212   5.139   1.013   1.028
 4218TIP3    H134213   5.044   1.005   1.029
 4218TIP3    H234214   5.169   0.936   0.981
 4219TIP3   OH234215   4.429   1.438   0.699
 4219TIP3    H134216   4.456   1.522   0.660
 4219TIP3    H234217   4.334   1.445   0.706
 4220TIP3   OH234218   3.964   0.871   0.187
 4220TIP3    H134219   4.007   0.947   0.225
 4220TIP3    H234220   3.870   0.888   0.197
 4221TIP3   OH234221   4.498   1.201   0.569
 4221TIP3    H134222   4.490   1.287   0.612
 4221TIP3    H234223   4.448   1.142   0.625
 4222TIP3   OH234224   4.602   1.608   1.279
 4222TIP3    H134225   4.661   1.682   1.263
 4222TIP3    H234226   4.650   1.552   1.341
 4223TIP3   OH234227   4.405   1.706   0.583
 4223TIP3    H134228   4.313   1.712   0.609
 4223TIP3    H234229   4.447   1.781   0.626
 4224TIP3   OH234230   4.903   1.226   1.257
 4224TIP3    H134231   4.861   1.208   1.341
 4224TIP3    H234232   4.978   1.167   1.255
 4225TIP3   OH234233   5.135   1.337   0.139
 4225TIP3    H134234   5.199   1.330   0.210
 4225TIP3    H234235   5.052   1.311   0.179
 4226TIP3   OH234236   5.202   1.628   1.465
 4226TIP3    H134237   5.128   1.568   1.469
 4226TIP3    H234238   5.176   1.695   1.402
 4227TIP3   OH234239   5.601   1.766   0.142
 4227TIP3    H134240   5.671   1.811   0.188
 4227TIP3    H234241   5.522   1.816   0.163
 4228TIP3   OH234242   4.003   0.385   1.398
 4228TIP3    H134243   3.911   0.414   1.401
 4228TIP3    H234244   4.009   0.321   1.469
 4229TIP3   OH234245   5.272   1.131   0.327
 4229TIP3    H134246   5.233   1.078   0.397
 4229TIP3    H234247   5.362   1.145   0.355
 4230TIP3   OH234248   3.976   1.549   1.281
 4230TIP3    H134249   4.012   1.475   1.330
 4230TIP3    H234250   3.942   1.608   1.349
 4231TIP3   OH234251   4.426   1.400   0.265
 4231TIP3    H134252   4.501   1.352   0.302
 4231TIP3    H234253   4.445   1.492   0.283
 4232TIP3   OH234254   4.075   1.099   0.316
 4232TIP3    H134255   4.004   1.143   0.364
 4232TIP3    H234256   4.122   1.171   0.273
 4233TIP3   OH234257   4.942   0.313   1.319
 4233TIP3    H134258   4.985   0.368   1.385
 4233TIP3    H234259   4.889   0.253   1.371
 4234TIP3   OH234260   4.997   0.271   0.482
 4234TIP3    H134261   4.999   0.309   0.394
 4234TIP3    H234262   5.036   0.338   0.538
 4235TIP3   OH234263   4.717   1.493   0.306
 4235TIP3    H134264   4.647   1.548   0.340
 4235TIP3    H234265   4.763   1.549   0.243
 4236TIP3   OH234266   4.645   0.523   0.504
 4236TIP3    H134267   4.726   0.574   0.510
 4236TIP3    H234268   4.629   0.493   0.594
 4237TIP3   OH234269   4.767   0.613   1.427
 4237TIP3    H134270   4.771   0.654   1.514
 4237TIP3    H234271   4.771   0.519   1.445
 4238TIP3   OH234272   4.768   0.156   0.579
 4238TIP3    H134273   4.768   0.189   0.669
 4238TIP3    H234274   4.849   0.190   0.541
 4239TIP3   OH234275   4.492   1.659   0.327
 4239TIP3    H134276   4.497   1.744   0.284
 4239TIP3    H234277   4.462   1.679   0.416
 4240TIP3   OH234278   4.326   0.327   0.323
 4240TIP3    H134279   4.326   0.416   0.359
 4240TIP3    H234280   4.406   0.287   0.355
 4241TIP3   OH234281   5.328   0.386   1.525
 4241TIP3    H134282   5.234   0.405   1.521
 4241TIP3    H234283   5.349   0.354   1.437
 4242TIP3   OH234284   5.214   0.762   0.905
 4242TIP3    H134285   5.128   0.721   0.891
 4242TIP3    H234286   5.260   0.703   0.964
 4243TIP3   OH234287   4.174   1.331   0.184
 4243TIP3    H134288   4.243   1.374   0.234
 4243TIP3    H234289   4.220   1.279   0.118
 4244TIP3   OH234290   4.004   0.632   0.056
 4244TIP3    H134291   3.996   0.716   0.100
 4244TIP3    H234292   4.013   0.655   8.463
 4245TIP3   OH234293   5.359   1.729   1.076
 4245TIP3    H134294   5.338   1.795   1.010
 4245TIP3    H234295   5.451   1.744   1.098
 4246TIP3   OH234296   4.012   0.084   1.000
 4246TIP3    H134297   4.040   7.296   1.001
 4246TIP3    H234298   3.957   0.094   1.077
 4247TIP3   OH234299   3.950   1.510   0.558
 4247TIP3    H134300   3.884   1.536   0.623
 4247TIP3    H234301   3.938   1.573   0.487
 4248TIP3   OH234302   4.449   1.617   1.831
 4248TIP3    H134303   4.476   1.538   1.877
 4248TIP3    H234304   4.383   1.587   1.768
 4249TIP3   OH234305   4.841   1.637   0.112
 4249TIP3    H134306   4.821   1.589   0.032
 4249TIP3    H234307   4.935   1.655   0.106
 4250TIP3   OH234308   5.012   1.474   1.777
 4250TIP3    H134309   4.974   1.397   1.819
 4250TIP3    H234310   5.082   1.502   1.836
 4251TIP3   OH234311   5.257   1.577   0.042
 4251TIP3    H134312   5.221   1.499   0.083
 4251TIP3    H234313   5.352   1.561   0.038
 4252TIP3   OH234314   3.891   1.134   1.773
 4252TIP3    H134315   3.855   1.061   1.822
 4252TIP3    H234316   3.816   1.171   1.726
 4253TIP3   OH234317   4.322   1.154   0.039
 4253TIP3    H134318   4.365   1.112   0.114
 4253TIP3    H234319   4.354   1.107   8.463
 4254TIP3   OH234320   4.576   1.160   1.767
 4254TIP3    H134321   4.541   1.204   1.690
 4254TIP3    H234322   4.577   1.067   1.744
 4255TIP3   OH234323   5.117   1.191   1.499
 4255TIP3    H134324   5.208   1.218   1.486
 4255TIP3    H234325   5.068   1.273   1.496
 4256TIP3   OH234326   4.010   0.850   1.764
 4256TIP3    H134327   3.989   0.771   1.813
 4256TIP3    H234328   4.050   0.908   1.829
 4257TIP3   OH234329   4.435   0.990   0.231
 4257TIP3    H134330   4.384   0.964   0.307
 4257TIP3    H234331   4.484   0.912   0.207
 4258TIP3   OH234332   4.385   0.789   1.497
 4258TIP3    H134333   4.309   0.848   1.491
 4258TIP3    H234334   4.445   0.821   1.430
 4259TIP3   OH234335   4.580   0.801   0.029
 4259TIP3    H134336   4.601   0.785   8.438
 4259TIP3    H234337   4.662   0.790   0.076
 4260TIP3   OH234338   4.903   1.022   1.790
 4260TIP3    H134339   4.961   0.962   1.743
 4260TIP3    H234340   4.841   0.964   1.835
 4261TIP3   OH234341   5.469   1.104   0.015
 4261TIP3    H134342   5.441   1.140   8.431
 4261TIP3    H234343   5.474   1.180   0.073
 4262TIP3   OH234344   4.436   0.531   1.574
 4262TIP3    H134345   4.437   0.471   1.499
 4262TIP3    H234346   4.413   0.616   1.537
 4263TIP3   OH234347   4.461   0.368   1.342
 4263TIP3    H134348   4.508   0.423   1.280
 4263TIP3    H234349   4.374   0.356   1.303
 4264TIP3   OH234350   4.579   0.883   1.328
 4264TIP3    H134351   4.665   0.910   1.358
 4264TIP3    H234352   4.542   0.961   1.287
 4265TIP3   OH234353   5.024   0.654   1.840
 4265TIP3    H134354   4.975   0.595   1.898
 4265TIP3    H234355   5.100   0.602   1.812
 4266TIP3   OH234356   5.158   0.964   1.642
 4266TIP3    H134357   5.129   1.042   1.596
 4266TIP3    H234358   5.253   0.971   1.644
 4267TIP3   OH234359   4.292   0.564   1.811
 4267TIP3    H134360   4.201   0.542   1.792
 4267TIP3    H234361   4.336   0.560   1.726
 4268TIP3   OH234362   4.521   0.103   1.409
 4268TIP3    H134363   4.501   0.196   1.396
 4268TIP3    H234364   4.440   0.057   1.386
 4269TIP3   OH234365   4.638   0.503   1.758
 4269TIP3    H134366   4.602   0.454   1.832
 4269TIP3    H234367   4.565   0.509   1.696
 4270TIP3   OH234368   4.889   0.413   1.673
 4270TIP3    H134369   4.800   0.422   1.707
 4270TIP3    H234370   4.937   0.371   1.743
 4271TIP3   OH234371   5.047   0.315   1.885
 4271TIP3    H134372   5.085   0.227   1.879
 4271TIP3    H234373   4.974   0.306   1.946
 4272TIP3   OH234374   4.057   0.438   1.733
 4272TIP3    H134375   4.052   0.356   1.684
 4272TIP3    H234376   4.063   0.410   1.825
 4273TIP3   OH234377   4.524   7.292   1.666
 4273TIP3    H134378   4.441   7.244   1.664
 4273TIP3    H234379   4.529   0.031   1.580
 4274TIP3   OH234380   4.663   0.181   1.800
 4274TIP3    H134381   4.612   0.111   1.758
 4274TIP3    H234382   4.598   0.236   1.842
 4275TIP3   OH234383   4.549   1.871   0.151
 4275TIP3    H134384   4.637   1.892   0.180
 4275TIP3    H234385   4.546   1.900   0.060
 4276TIP3   OH234386   3.903   1.339   0.120
 4276TIP3    H134387   3.992   1.362   0.145
 4276TIP3    H234388   3.912   1.274   0.051
 4277TIP3   OH234389   3.785   1.849   0.672
 4277TIP3    H134390   3.727   1.823   0.600
 4277TIP3    H234391   3.797   1.769   0.723
 4278TIP3   OH234392   3.841   1.632   0.836
 4278TIP3    H134393   3.800   1.557   0.879
 4278TIP3    H234394   3.903   1.665   0.900
 4279TIP3   OH234395   5.618   1.790   1.168
 4279TIP3    H134396   5.618   1.741   1.250
 4279TIP3    H234397   5.700   1.765   1.125
 4280TIP3   OH234398   5.579   1.675   1.419
 4280TIP3    H134399   5.520   1.607   1.386
 4280TIP3    H234400   5.616   1.638   1.498
 4281TIP3   OH234401   5.532   1.094   0.423
 4281TIP3    H134402   5.601   1.160   0.420
 4281TIP3    H234403   5.552   1.040   0.499
 4282TIP3   OH234404   5.603   0.912   0.620
 4282TIP3    H134405   5.519   0.879   0.652
 4282TIP3    H234406   5.654   0.929   0.700
 4283TIP3   OH234407   5.589   1.208   1.137
 4283TIP3    H134408   5.635   1.135   1.097
 4283TIP3    H234409   5.630   1.286   1.100
 4284TIP3   OH234410   5.397   1.489   1.327
 4284TIP3    H134411   5.325   1.534   1.371
 4284TIP3    H234412   5.365   1.473   1.238
 4285TIP3   OH234413   5.589   0.930   0.213
 4285TIP3    H134414   5.539   0.971   0.143
 4285TIP3    H234415   5.569   0.983   0.291
 4286TIP3   OH234416   5.363   0.622   0.098
 4286TIP3    H134417   5.431   0.644   0.034
 4286TIP3    H234418   5.349   0.528   0.087
 4287TIP3   OH234419   5.352   0.795   0.668
 4287TIP3    H134420   5.346   0.706   0.633
 4287TIP3    H234421   5.309   0.791   0.753
 4288TIP3   OH234422   3.853   1.015   1.087
 4288TIP3    H134423   3.867   0.991   0.995
 4288TIP3    H234424   3.929   0.979   1.132
 4289TIP3   OH234425   5.433   0.985   1.648
 4289TIP3    H134426   5.492   0.910   1.652
 4289TIP3    H234427   5.487   1.055   1.612
 4290TIP3   OH234428   5.547   0.739   1.736
 4290TIP3    H134429   5.462   0.702   1.711
 4290TIP3    H234430   5.608   0.667   1.721
 4291TIP3   OH234431   5.340   0.356   0.067
 4291TIP3    H134432   5.424   0.314   0.083
 4291TIP3    H234433   5.275   0.290   0.092
 4292TIP3   OH234434   5.344   0.553   0.494
 4292TIP3    H134435   5.372   0.462   0.499
 4292TIP3    H234436   5.412   0.597   0.444
 4293TIP3   OH234437   5.376   0.583   1.054
 4293TIP3    H134438   5.469   0.599   1.036
 4293TIP3    H234439   5.367   0.597   1.148
 4294TIP3   OH234440   5.392   0.662   1.325
 4294TIP3    H134441   5.310   0.689   1.365
 4294TIP3    H234442   5.440   0.743   1.312
 4295TIP3   OH234443   3.790   0.500   1.686
 4295TIP3    H134444   3.881   0.494   1.712
 4295TIP3    H234445   3.741   0.463   1.759
 4296TIP3   OH234446   5.704   0.065   1.800
 4296TIP3    H134447   5.670   0.003   1.865
 4296TIP3    H234448   5.631   0.125   1.784
 4297TIP3   OH234449   5.406   0.282   0.510
 4297TIP3    H134450   5.423   0.239   0.594
 4297TIP3    H234451   5.343   0.226   0.466
 4298TIP3   OH234452   3.964   0.349   0.917
 4298TIP3    H134453   3.976   0.263   0.958
 4298TIP3    H234454   4.019   0.408   0.968
 4299TIP3   OH234455   3.789   0.617   1.065
 4299TIP3    H134456   3.860   0.648   1.009
 4299TIP3    H234457   3.786   0.680   1.137
 4300TIP3   OH234458   5.540   0.252   1.649
 4300TIP3    H134459   5.462   0.306   1.636
 4300TIP3    H234460   5.532   0.182   1.584
 4301TIP3   OH234461   5.589   0.258   0.147
 4301TIP3    H134462   5.656   0.218   0.091
 4301TIP3    H234463   5.634   0.332   0.187
 4302TIP3   OH234464   3.772   0.246   0.401
 4302TIP3    H134465   3.707   0.250   0.472
 4302TIP3    H234466   3.824   0.326   0.411
 4303TIP3   OH234467   5.256   1.798   0.672
 4303TIP3    H134468   5.328   1.793   0.609
 4303TIP3    H234469   5.296   1.834   0.751
 4304TIP3   OH234470   3.834   0.112   1.211
 4304TIP3    H134471   3.768   0.078   1.272
 4304TIP3    H234472   3.804   0.200   1.190
 4305TIP3   OH234473   4.336   1.579   1.348
 4305TIP3    H134474   4.305   1.667   1.326
 4305TIP3    H234475   4.430   1.582   1.333
 4306TIP3   OH234476   4.739   1.676   1.653
 4306TIP3    H134477   4.736   1.658   1.747
 4306TIP3    H234478   4.814   1.735   1.643
 4307TIP3   OH234479   4.968   1.831   1.602
 4307TIP3    H134480   5.027   1.765   1.564
 4307TIP3    H234481   5.016   1.865   1.677
 4308TIP3   OH234482   5.443   0.073   1.441
 4308TIP3    H134483   5.402   0.142   1.388
 4308TIP3    H234484   5.414   7.295   1.402
 4309TIP3   OH234485   4.049   1.905   1.387
 4309TIP3    H134486   3.969   1.948   1.357
 4309TIP3    H234487   4.059   1.934   1.478
 4310TIP3   OH234488   4.292   1.843   1.280
 4310TIP3    H134489   4.206   1.863   1.317
 4310TIP3    H234490   4.295   1.895   1.199
 4311TIP3   OH234491   4.752   1.830   1.199
 4311TIP3    H134492   4.699   1.869   1.130
 4311TIP3    H234493   4.757   1.898   1.267
 4312TIP3   OH234494   4.992   1.714   1.275
 4312TIP3    H134495   4.908   1.751   1.249
 4312TIP3    H234496   5.054   1.785   1.265
 4313TIP3   OH234497   5.232   1.865   1.281
 4313TIP3    H134498   5.243   1.955   1.251
 4313TIP3    H234499   5.272   1.812   1.212
 4314TIP3   OH234500   4.010   1.708   1.054
 4314TIP3    H134501   4.007   1.662   1.138
 4314TIP3    H234502   4.089   1.675   1.011
 4315TIP3   OH234503   4.222   1.596   0.921
 4315TIP3    H134504   4.210   1.504   0.943
 4315TIP3    H234505   4.307   1.618   0.957
 4316TIP3   OH234506   4.479   1.633   1.030
 4316TIP3    H134507   4.491   1.543   1.001
 4316TIP3    H234508   4.511   1.634   1.120
 4317TIP3   OH234509   4.741   0.210   0.847
 4317TIP3    H134510   4.682   0.155   0.899
 4317TIP3    H234511   4.829   0.189   0.880
 4318TIP3   OH234512   5.286   0.031   0.902
 4318TIP3    H134513   5.359   0.057   0.846
 4318TIP3    H234514   5.262   0.111   0.950
 4319TIP3   OH234515   5.480   0.126   0.734
 4319TIP3    H134516   5.545   0.063   0.704
 4319TIP3    H234517   5.532   0.203   0.758
 4320TIP3   OH234518   4.067   0.064   0.714
 4320TIP3    H134519   4.022   0.092   0.794
 4320TIP3    H234520   4.134   0.003   0.744
 4321TIP3   OH234521   3.865   0.063   0.189
 4321TIP3    H134522   3.950   0.034   0.223
 4321TIP3    H234523   3.823   0.106   0.264
 4322TIP3   OH234524   4.526   0.043   0.671
 4322TIP3    H134525   4.610   0.081   0.645
 4322TIP3    H234526   4.525   0.049   0.766
 4323TIP3   OH234527   5.011   0.154   0.869
 4323TIP3    H134528   5.056   0.206   0.803
 4323TIP3    H234529   5.027   0.063   0.843
 4324TIP3   OH234530   5.216   0.104   0.415
 4324TIP3    H134531   5.136   0.155   0.425
 4324TIP3    H234532   5.199   0.023   0.462
 4325TIP3   OH234533   3.911   1.686   0.356
 4325TIP3    H134534   3.833   1.675   0.302
 4325TIP3    H234535   3.936   1.778   0.343
 4326TIP3   OH234536   4.118   0.310   0.118
 4326TIP3    H134537   4.174   0.320   0.041
 4326TIP3    H234538   4.179   0.303   0.192
 4327TIP3   OH234539   4.590   0.274   0.399
 4327TIP3    H134540   4.653   0.226   0.453
 4327TIP3    H234541   4.608   0.366   0.418
 4328TIP3   OH234542   4.822   1.891   0.207
 4328TIP3    H134543   4.916   1.909   0.208
 4328TIP3    H234544   4.815   1.803   0.171
 4329TIP3   OH234545   5.456   1.778   0.479
 4329TIP3    H134546   5.495   1.691   0.478
 4329TIP3    H234547   5.435   1.796   0.387
 4330TIP3   OH234548   4.024   0.193   1.605
 4330TIP3    H134549   3.943   0.149   1.630
 4330TIP3    H234550   4.091   0.155   1.662
 4331TIP3   OH234551   4.221   0.120   1.790
 4331TIP3    H134552   4.281   0.190   1.815
 4331TIP3    H234553   4.254   0.042   1.835
 4332TIP3   OH234554   4.123   1.783   0.039
 4332TIP3    H134555   4.061   1.821   0.100
 4332TIP3    H234556   4.158   1.706   0.084
 4333TIP3   OH234557   5.186   0.078   1.887
 4333TIP3    H134558   5.163   0.013   1.953
 4333TIP3    H234559   5.255   0.037   1.835
 4334TIP3   OH234560   5.392   1.611   1.685
 4334TIP3    H134561   5.324   1.604   1.618
 4334TIP3    H234562   5.383   1.701   1.717
 4335TIP3   OH234563   6.855   1.034   0.652
 4335TIP3    H134564   6.835   1.127   0.644
 4335TIP3    H234565   6.789   0.991   0.598
 4336TIP3   OH234566   6.706   0.943   1.037
 4336TIP3    H134567   6.730   0.904   1.121
 4336TIP3    H234568   6.665   0.872   0.988
 4337TIP3   OH234569   5.949   0.871   1.193
 4337TIP3    H134570   5.960   0.795   1.251
 4337TIP3    H234571   6.037   0.889   1.161
 4338TIP3   OH234572   7.106   1.244   0.900
 4338TIP3    H134573   7.065   1.170   0.947
 4338TIP3    H234574   7.129   1.306   0.969
 4339TIP3   OH234575   6.065   1.342   0.989
 4339TIP3    H134576   6.042   1.254   0.958
 4339TIP3    H234577   6.157   1.336   1.012
 4340TIP3   OH234578   5.732   0.684   0.520
 4340TIP3    H134579   5.702   0.765   0.559
 4340TIP3    H234580   5.665   0.662   0.455
 4341TIP3   OH234581   5.798   0.931   0.826
 4341TIP3    H134582   5.830   0.842   0.841
 4341TIP3    H234583   5.876   0.986   0.834
 4342TIP3   OH234584   6.815   1.716   0.936
 4342TIP3    H134585   6.841   1.643   0.880
 4342TIP3    H234586   6.799   1.676   1.022
 4343TIP3   OH234587   6.569   1.188   1.072
 4343TIP3    H134588   6.608   1.108   1.036
 4343TIP3    H234589   6.635   1.223   1.131
 4344TIP3   OH234590   6.885   0.612   1.076
 4344TIP3    H134591   6.894   0.518   1.096
 4344TIP3    H234592   6.859   0.614   0.984
 4345TIP3   OH234593   6.212   0.418   0.807
 4345TIP3    H134594   6.218   0.502   0.762
 4345TIP3    H234595   6.160   0.363   0.748
 4346TIP3   OH234596   6.955   0.440   0.644
 4346TIP3    H134597   6.992   0.400   0.723
 4346TIP3    H234598   7.031   0.466   0.593
 4347TIP3   OH234599   5.879   0.673   0.886
 4347TIP3    H134600   5.939   0.628   0.945
 4347TIP3    H234601   5.895   0.634   0.800
 4348TIP3   OH234602   6.344   0.812   0.860
 4348TIP3    H134603   6.429   0.775   0.885
 4348TIP3    H234604   6.307   0.747   0.800
 4349TIP3   OH234605   6.098   0.332   1.241
 4349TIP3    H134606   6.071   0.386   1.167
 4349TIP3    H234607   6.026   0.339   1.304
 4350TIP3   OH234608   6.814   1.288   0.547
 4350TIP3    H134609   6.806   1.278   0.452
 4350TIP3    H234610   6.757   1.362   0.568
 4351TIP3   OH234611   6.355   1.093   1.220
 4351TIP3    H134612   6.302   1.167   1.250
 4351TIP3    H234613   6.428   1.133   1.172
 4352TIP3   OH234614   7.049   0.363   0.884
 4352TIP3    H134615   6.990   0.355   0.959
 4352TIP3    H234616   7.130   0.400   0.920
 4353TIP3   OH234617   6.060   0.502   1.020
 4353TIP3    H134618   6.119   0.557   1.071
 4353TIP3    H234619   6.115   0.465   0.951
 4354TIP3   OH234620   6.205   1.307   1.310
 4354TIP3    H134621   6.217   1.402   1.307
 4354TIP3    H234622   6.114   1.296   1.337
 4355TIP3   OH234623   5.745   1.260   0.368
 4355TIP3    H134624   5.749   1.289   0.276
 4355TIP3    H234625   5.710   1.335   0.415
 4356TIP3   OH234626   7.146   1.453   1.095
 4356TIP3    H134627   7.050   1.451   1.106
 4356TIP3    H234628   7.165   1.544   1.074
 4357TIP3   OH234629   7.177   0.215   1.122
 4357TIP3    H134630   7.106   0.219   1.186
 4357TIP3    H234631   7.204   0.307   1.111
 4358TIP3   OH234632   6.412   0.033   0.948
 4358TIP3    H134633   6.419   7.245   0.976
 4358TIP3    H234634   6.343   0.070   1.003
 4359TIP3   OH234635   6.920   1.562   0.728
 4359TIP3    H134636   6.968   1.481   0.712
 4359TIP3    H234637   6.988   1.629   0.741
 4360TIP3   OH234638   7.071   1.350   0.649
 4360TIP3    H134639   6.996   1.302   0.615
 4360TIP3    H234640   7.095   1.303   0.729
 4361TIP3   OH234641   7.242   1.228   1.488
 4361TIP3    H134642   7.254   1.168   1.415
 4361TIP3    H234643   7.267   1.314   1.454
 4362TIP3   OH234644   6.713   0.935   0.434
 4362TIP3    H134645   6.645   0.996   0.407
 4362TIP3    H234646   6.774   0.932   0.360
 4363TIP3   OH234647   6.721   0.758   0.128
 4363TIP3    H134648   6.786   0.800   0.184
 4363TIP3    H234649   6.769   0.689   0.082
 4364TIP3   OH234650   7.069   0.959   0.500
 4364TIP3    H134651   7.003   0.991   0.561
 4364TIP3    H234652   7.118   0.893   0.549
 4365TIP3   OH234653   6.980   0.759   1.434
 4365TIP3    H134654   6.964   0.817   1.509
 4365TIP3    H234655   6.913   0.785   1.370
 4366TIP3   OH234656   6.231   1.011   0.700
 4366TIP3    H134657   6.208   0.971   0.617
 4366TIP3    H234658   6.279   0.943   0.748
 4367TIP3   OH234659   6.360   1.362   0.967
 4367TIP3    H134660   6.364   1.361   0.871
 4367TIP3    H234661   6.433   1.307   0.994
 4368TIP3   OH234662   6.205   0.914   1.077
 4368TIP3    H134663   6.259   0.886   1.003
 4368TIP3    H234664   6.259   0.976   1.124
 4369TIP3   OH234665   6.875   1.459   1.144
 4369TIP3    H134666   6.859   1.528   1.207
 4369TIP3    H234667   6.835   1.381   1.182
 4370TIP3   OH234668   6.393   1.316   1.527
 4370TIP3    H134669   6.328   1.368   1.574
 4370TIP3    H234670   6.348   1.289   1.447
 4371TIP3   OH234671   6.939   0.882   0.271
 4371TIP3    H134672   6.983   0.911   0.350
 4371TIP3    H234673   6.990   0.921   0.199
 4372TIP3   OH234674   6.014   0.943   1.539
 4372TIP3    H134675   6.014   1.033   1.571
 4372TIP3    H234676   5.935   0.936   1.486
 4373TIP3   OH234677   6.686   1.544   0.586
 4373TIP3    H134678   6.757   1.545   0.651
 4373TIP3    H234679   6.661   1.636   0.577
 4374TIP3   OH234680   6.175   1.462   1.595
 4374TIP3    H134681   6.170   1.526   1.524
 4374TIP3    H234682   6.097   1.478   1.648
 4375TIP3   OH234683   6.145   0.921   0.442
 4375TIP3    H134684   6.085   0.989   0.412
 4375TIP3    H234685   6.091   0.842   0.448
 4376TIP3   OH234686   5.722   1.168   1.382
 4376TIP3    H134687   5.670   1.178   1.303
 4376TIP3    H234688   5.728   1.073   1.395
 4377TIP3   OH234689   5.771   1.413   1.063
 4377TIP3    H134690   5.858   1.389   1.030
 4377TIP3    H234691   5.789   1.467   1.140
 4378TIP3   OH234692   6.604   1.484   1.474
 4378TIP3    H134693   6.602   1.554   1.540
 4378TIP3    H234694   6.532   1.426   1.498
 4379TIP3   OH234695   6.683   1.809   0.500
 4379TIP3    H134696   6.687   1.845   0.412
 4379TIP3    H234697   6.670   1.885   0.557
 4380TIP3   OH234698   6.044   1.724   0.697
 4380TIP3    H134699   6.060   1.691   0.785
 4380TIP3    H234700   5.993   1.655   0.654
 4381TIP3   OH234701   6.927   1.730   0.182
 4381TIP3    H134702   6.995   1.680   0.136
 4381TIP3    H234703   6.938   1.706   0.274
 4382TIP3   OH234704   6.936   1.699   0.455
 4382TIP3    H134705   6.849   1.722   0.486
 4382TIP3    H234706   6.972   1.644   0.524
 4383TIP3   OH234707   7.204   0.704   1.646
 4383TIP3    H134708   7.222   0.703   1.551
 4383TIP3    H234709   7.263   0.637   1.681
 4384TIP3   OH234710   5.943   1.326   1.413
 4384TIP3    H134711   5.966   1.306   1.504
 4384TIP3    H234712   5.866   1.272   1.396
 4385TIP3   OH234713   6.178   0.107   1.092
 4385TIP3    H134714   6.095   0.111   1.046
 4385TIP3    H234715   6.176   0.182   1.152
 4386TIP3   OH234716   6.714   0.121   1.430
 4386TIP3    H134717   6.754   0.042   1.465
 4386TIP3    H234718   6.623   0.116   1.458
 4387TIP3   OH234719   6.998   0.478   1.473
 4387TIP3    H134720   6.963   0.457   1.560
 4387TIP3    H234721   6.996   0.573   1.468
 4388TIP3   OH234722   7.103   1.010   0.085
 4388TIP3    H134723   7.156   1.040   0.011
 4388TIP3    H234724   7.134   1.062   0.159
 4389TIP3   OH234725   6.683   0.322   0.140
 4389TIP3    H134726   6.599   0.332   0.184
 4389TIP3    H234727   6.695   0.228   0.130
 4390TIP3   OH234728   6.218   0.658   1.183
 4390TIP3    H134729   6.153   0.655   1.253
 4390TIP3    H234730   6.218   0.749   1.153
 4391TIP3   OH234731   6.206   0.658   0.672
 4391TIP3    H134732   6.112   0.643   0.666
 4391TIP3    H234733   6.240   0.637   0.585
 4392TIP3   OH234734   6.754   0.686   0.541
 4392TIP3    H134735   6.736   0.774   0.507
 4392TIP3    H234736   6.823   0.652   0.485
 4393TIP3   OH234737   6.699   0.708   1.663
 4393TIP3    H134738   6.657   0.630   1.700
 4393TIP3    H234739   6.789   0.704   1.696
 4394TIP3   OH234740   6.838   0.634   0.806
 4394TIP3    H134741   6.800   0.687   0.736
 4394TIP3    H234742   6.873   0.557   0.762
 4395TIP3   OH234743   6.002   0.646   1.355
 4395TIP3    H134744   6.058   0.667   1.431
 4395TIP3    H234745   5.958   0.565   1.380
 4396TIP3   OH234746   6.376   0.413   0.068
 4396TIP3    H134747   6.331   0.375   0.143
 4396TIP3    H234748   6.368   0.507   0.080
 4397TIP3   OH234749   5.645   0.337   0.762
 4397TIP3    H134750   5.706   0.362   0.831
 4397TIP3    H234751   5.696   0.343   0.681
 4398TIP3   OH234752   5.727   0.470   0.263
 4398TIP3    H134753   5.810   0.498   0.225
 4398TIP3    H234754   5.675   0.551   0.270
 4399TIP3   OH234755   6.769   0.783   1.252
 4399TIP3    H134756   6.815   0.727   1.190
 4399TIP3    H234757   6.718   0.723   1.306
 4400TIP3   OH234758   6.491   0.433   0.764
 4400TIP3    H134759   6.402   0.420   0.797
 4400TIP3    H234760   6.541   0.362   0.803
 4401TIP3   OH234761   5.950   0.564   0.643
 4401TIP3    H134762   5.875   0.592   0.590
 4401TIP3    H234763   5.962   0.472   0.619
 4402TIP3   OH234764   6.278   0.576   0.420
 4402TIP3    H134765   6.372   0.570   0.434
 4402TIP3    H234766   6.269   0.611   0.331
 4403TIP3   OH234767   6.879   0.334   1.098
 4403TIP3    H134768   6.833   0.340   1.181
 4403TIP3    H234769   6.857   0.248   1.063
 4404TIP3   OH234770   6.220   0.645   0.160
 4404TIP3    H134771   6.128   0.649   0.136
 4404TIP3    H234772   6.263   0.706   0.100
 4405TIP3   OH234773   7.223   1.903   1.794
 4405TIP3    H134774   7.245   1.989   1.757
 4405TIP3    H234775   7.264   1.904   1.880
 4406TIP3   OH234776   5.964   1.186   1.681
 4406TIP3    H134777   6.034   1.155   1.739
 4406TIP3    H234778   5.951   1.278   1.706
 4407TIP3   OH234779   6.580   0.698   0.956
 4407TIP3    H134780   6.640   0.645   0.903
 4407TIP3    H234781   6.553   0.641   1.028
 4408TIP3   OH234782   6.047   0.290   0.617
 4408TIP3    H134783   6.001   0.213   0.650
 4408TIP3    H234784   6.076   0.265   0.530
 4409TIP3   OH234785   6.476   0.560   1.180
 4409TIP3    H134786   6.390   0.602   1.188
 4409TIP3    H234787   6.522   0.585   1.261
 4410TIP3   OH234788   6.532   1.126   0.353
 4410TIP3    H134789   6.459   1.085   0.305
 4410TIP3    H234790   6.492   1.160   0.433
 4411TIP3   OH234791   7.213   1.096   1.214
 4411TIP3    H134792   7.271   1.060   1.147
 4411TIP3    H234793   7.125   1.081   1.180
 4412TIP3   OH234794   6.945   0.386   0.199
 4412TIP3    H134795   6.858   0.371   0.162
 4412TIP3    H234796   6.940   0.472   0.240
 4413TIP3   OH234797   6.685   1.176   1.511
 4413TIP3    H134798   6.717   1.126   1.587
 4413TIP3    H234799   6.610   1.225   1.545
 4414TIP3   OH234800   6.960   0.611   0.362
 4414TIP3    H134801   7.043   0.588   0.404
 4414TIP3    H234802   6.975   0.698   0.326
 4415TIP3   OH234803   6.043   1.069   0.898
 4415TIP3    H134804   6.103   1.062   0.824
 4415TIP3    H234805   6.084   1.016   0.967
 4416TIP3   OH234806   6.757   1.263   0.260
 4416TIP3    H134807   6.713   1.348   0.273
 4416TIP3    H234808   6.690   1.198   0.283
 4417TIP3   OH234809   5.737   0.901   1.479
 4417TIP3    H134810   5.735   0.831   1.544
 4417TIP3    H234811   5.668   0.877   1.417
 4418TIP3   OH234812   6.508   0.905   1.643
 4418TIP3    H134813   6.478   0.893   1.552
 4418TIP3    H234814   6.574   0.836   1.655
 4419TIP3   OH234815   6.883   1.447   1.499
 4419TIP3    H134816   6.793   1.449   1.465
 4419TIP3    H234817   6.873   1.460   1.593
 4420TIP3   OH234818   6.992   1.023   1.037
 4420TIP3    H134819   6.897   1.015   1.028
 4420TIP3    H234820   7.028   0.949   0.988
 4421TIP3   OH234821   6.290   1.439   0.689
 4421TIP3    H134822   6.313   1.525   0.654
 4421TIP3    H234823   6.194   1.439   0.691
 4422TIP3   OH234824   5.862   0.924   0.154
 4422TIP3    H134825   5.900   0.978   0.223
 4422TIP3    H234826   5.769   0.921   0.174
 4423TIP3   OH234827   6.390   1.205   0.574
 4423TIP3    H134828   6.366   1.290   0.611
 4423TIP3    H234829   6.338   1.141   0.623
 4424TIP3   OH234830   6.490   1.617   1.265
 4424TIP3    H134831   6.546   1.692   1.247
 4424TIP3    H234832   6.540   1.564   1.327
 4425TIP3   OH234833   6.294   1.710   0.580
 4425TIP3    H134834   6.205   1.720   0.614
 4425TIP3    H234835   6.341   1.787   0.615
 4426TIP3   OH234836   6.778   1.220   1.257
 4426TIP3    H134837   6.740   1.207   1.344
 4426TIP3    H234838   6.855   1.164   1.256
 4427TIP3   OH234839   7.016   1.315   0.146
 4427TIP3    H134840   7.075   1.269   0.207
 4427TIP3    H234841   6.928   1.299   0.181
 4428TIP3   OH234842   7.093   1.634   1.472
 4428TIP3    H134843   7.017   1.576   1.462
 4428TIP3    H234844   7.081   1.700   1.404
 4429TIP3   OH234845   5.886   0.389   1.414
 4429TIP3    H134846   5.795   0.416   1.402
 4429TIP3    H234847   5.881   0.317   1.477
 4430TIP3   OH234848   7.170   1.147   0.315
 4430TIP3    H134849   7.140   1.093   0.388
 4430TIP3    H234850   7.248   1.191   0.348
 4431TIP3   OH234851   5.871   1.566   1.282
 4431TIP3    H134852   5.904   1.486   1.325
 4431TIP3    H234853   5.878   1.634   1.350
 4432TIP3   OH234854   6.329   1.424   0.216
 4432TIP3    H134855   6.401   1.378   0.260
 4432TIP3    H234856   6.333   1.513   0.252
 4433TIP3   OH234857   5.973   1.109   0.331
 4433TIP3    H134858   5.894   1.149   0.368
 4433TIP3    H234859   6.018   1.181   0.287
 4434TIP3   OH234860   6.775   0.373   1.350
 4434TIP3    H134861   6.859   0.396   1.390
 4434TIP3    H234862   6.757   0.285   1.382
 4435TIP3   OH234863   6.855   0.276   0.448
 4435TIP3    H134864   6.886   0.310   0.364
 4435TIP3    H234865   6.885   0.340   0.512
 4436TIP3   OH234866   6.612   1.482   0.325
 4436TIP3    H134867   6.623   1.508   0.416
 4436TIP3    H234868   6.618   1.563   0.275
 4437TIP3   OH234869   6.534   0.523   0.509
 4437TIP3    H134870   6.612   0.579   0.515
 4437TIP3    H234871   6.519   0.496   0.600
 4438TIP3   OH234872   6.632   0.605   1.405
 4438TIP3    H134873   6.649   0.630   1.496
 4438TIP3    H234874   6.675   0.520   1.395
 4439TIP3   OH234875   6.651   0.157   0.581
 4439TIP3    H134876   6.655   0.193   0.670
 4439TIP3    H234877   6.726   0.196   0.536
 4440TIP3   OH234878   6.347   1.679   0.310
 4440TIP3    H134879   6.379   1.766   0.287
 4440TIP3    H234880   6.332   1.682   0.405
 4441TIP3   OH234881   6.238   0.326   0.289
 4441TIP3    H134882   6.213   0.406   0.335
 4441TIP3    H234883   6.320   0.299   0.331
 4442TIP3   OH234884   7.229   0.318   1.452
 4442TIP3    H134885   7.147   0.368   1.450
 4442TIP3    H234886   7.277   0.354   1.526
 4443TIP3   OH234887   7.076   0.780   0.910
 4443TIP3    H134888   6.992   0.736   0.896
 4443TIP3    H234889   7.116   0.733   0.983
 4444TIP3   OH234890   6.073   1.322   0.173
 4444TIP3    H134891   6.146   1.373   0.209
 4444TIP3    H234892   6.115   1.263   0.110
 4445TIP3   OH234893   5.940   0.659   0.100
 4445TIP3    H134894   5.912   0.749   0.118
 4445TIP3    H234895   5.901   0.637   0.016
 4446TIP3   OH234896   7.229   1.720   1.066
 4446TIP3    H134897   7.220   1.792   1.004
 4446TIP3    H234898   0.020   1.708   1.074
 4447TIP3   OH234899   5.928   0.115   0.977
 4447TIP3    H134900   5.915   0.080   0.889
 4447TIP3    H234901   5.895   0.047   1.035
 4448TIP3   OH234902   5.918   1.529   0.560
 4448TIP3    H134903   5.824   1.514   0.573
 4448TIP3    H234904   5.928   1.534   0.465
 4449TIP3   OH234905   5.829   1.764   1.732
 4449TIP3    H134906   5.903   1.733   1.783
 4449TIP3    H234907   5.779   1.685   1.712
 4450TIP3   OH234908   6.672   1.652   0.106
 4450TIP3    H134909   6.675   1.585   0.038
 4450TIP3    H234910   6.764   1.674   0.121
 4451TIP3   OH234911   6.826   1.509   1.769
 4451TIP3    H134912   6.803   1.428   1.813
 4451TIP3    H234913   6.907   1.538   1.811
 4452TIP3   OH234914   7.103   1.564   0.047
 4452TIP3    H134915   7.074   1.480   0.081
 4452TIP3    H234916   7.189   1.546   0.009
 4453TIP3   OH234917   5.701   1.084   1.800
 4453TIP3    H134918   5.774   1.081   1.738
 4453TIP3    H234919   5.650   1.161   1.773
 4454TIP3   OH234920   6.220   1.138   0.026
 4454TIP3    H134921   6.257   1.097   0.104
 4454TIP3    H234922   6.238   1.077   8.455
 4455TIP3   OH234923   6.383   1.131   1.732
 4455TIP3    H134924   6.401   1.193   1.662
 4455TIP3    H234925   6.435   1.054   1.709
 4456TIP3   OH234926   6.985   1.142   1.485
 4456TIP3    H134927   7.070   1.186   1.489
 4456TIP3    H234928   6.921   1.213   1.493
 4457TIP3   OH234929   5.897   0.796   1.744
 4457TIP3    H134930   5.944   0.842   1.673
 4457TIP3    H234931   5.886   0.863   1.812
 4458TIP3   OH234932   6.324   0.988   0.231
 4458TIP3    H134933   6.274   0.951   0.304
 4458TIP3    H234934   6.363   0.911   0.188
 4459TIP3   OH234935   6.218   0.749   1.500
 4459TIP3    H134936   6.164   0.825   1.523
 4459TIP3    H234937   6.296   0.787   1.459
 4460TIP3   OH234938   6.450   0.796   0.066
 4460TIP3    H134939   6.459   0.791   8.471
 4460TIP3    H234940   6.539   0.781   0.099
 4461TIP3   OH234941   6.786   1.051   1.743
 4461TIP3    H134942   6.873   1.015   1.723
 4461TIP3    H234943   6.739   0.978   1.782
 4462TIP3   OH234944   6.302   0.504   1.610
 4462TIP3    H134945   6.323   0.452   1.532
 4462TIP3    H234946   6.279   0.590   1.576
 4463TIP3   OH234947   6.344   0.372   1.359
 4463TIP3    H134948   6.396   0.418   1.292
 4463TIP3    H234949   6.258   0.362   1.319
 4464TIP3   OH234950   6.436   0.876   1.374
 4464TIP3    H134951   6.524   0.857   1.341
 4464TIP3    H234952   6.408   0.954   1.326
 4465TIP3   OH234953   6.952   0.655   1.762
 4465TIP3    H134954   6.945   0.561   1.751
 4465TIP3    H234955   7.039   0.677   1.730
 4466TIP3   OH234956   7.037   0.942   1.668
 4466TIP3    H134957   7.040   1.007   1.598
 4466TIP3    H234958   7.110   0.883   1.649
 4467TIP3   OH234959   6.434   0.129   1.455
 4467TIP3    H134960   6.405   0.215   1.424
 4467TIP3    H234961   6.439   0.076   1.376
 4468TIP3   OH234962   6.587   0.480   1.751
 4468TIP3    H134963   6.609   0.440   1.836
 4468TIP3    H234964   6.494   0.460   1.739
 4469TIP3   OH234965   6.877   0.399   1.708
 4469TIP3    H134966   6.784   0.394   1.730
 4469TIP3    H234967   6.911   0.312   1.731
 4470TIP3   OH234968   5.896   0.452   1.822
 4470TIP3    H134969   5.951   0.373   1.827
 4470TIP3    H234970   5.837   0.445   1.896
 4471TIP3   OH234971   6.384   0.011   1.693
 4471TIP3    H134972   6.469   7.277   1.715
 4471TIP3    H234973   6.394   0.044   1.604
 4472TIP3   OH234974   6.389   0.238   1.845
 4472TIP3    H134975   6.400   0.166   1.784
 4472TIP3    H234976   6.474   0.247   1.887
 4473TIP3   OH234977   6.453   1.901   0.184
 4473TIP3    H134978   6.543   1.911   0.215
 4473TIP3    H234979   6.421   1.991   0.173
 4474TIP3   OH234980   5.796   1.336   0.103
 4474TIP3    H134981   5.887   1.352   0.130
 4474TIP3    H234982   5.804   1.286   0.022
 4475TIP3   OH234983   5.667   1.858   0.641
 4475TIP3    H134984   5.601   1.825   0.580
 4475TIP3    H234985   5.682   1.785   0.701
 4476TIP3   OH234986   5.719   1.666   0.827
 4476TIP3    H134987   5.683   1.577   0.827
 4476TIP3    H234988   5.764   1.673   0.911
 4477TIP3   OH234989   7.278   1.464   1.346
 4477TIP3    H134990   7.220   1.524   1.392
 4477TIP3    H234991   7.235   1.447   1.262
 4478TIP3   OH234992   7.176   0.753   0.650
 4478TIP3    H134993   7.173   0.657   0.647
 4478TIP3    H234994   7.152   0.774   0.740
 4479TIP3   OH234995   5.718   0.967   1.086
 4479TIP3    H134996   5.731   0.958   0.992
 4479TIP3    H234997   5.803   0.943   1.125
 4480TIP3   OH234998   7.202   0.381   0.076
 4480TIP3    H134999   7.246   0.309   0.121
 4480TIP3    H235000   7.111   0.376   0.106
 4481TIP3   OH235001   7.183   0.494   0.500
 4481TIP3    H135002   7.197   0.407   0.539
 4481TIP3    H235003   7.262   0.510   0.449
 4482TIP3   OH235004   7.236   0.480   1.050
 4482TIP3    H135005   0.020   0.446   1.029
 4482TIP3    H235006   7.252   0.569   1.082
 4483TIP3   OH235007   7.253   0.729   1.370
 4483TIP3    H135008   7.157   0.734   1.365
 4483TIP3    H235009   7.280   0.714   1.280
 4484TIP3   OH235010   5.676   0.503   1.660
 4484TIP3    H135011   5.760   0.498   1.706
 4484TIP3    H235012   5.636   0.417   1.676
 4485TIP3   OH235013   7.186   0.224   0.573
 4485TIP3    H135014   7.194   0.184   0.660
 4485TIP3    H235015   7.134   0.161   0.523
 4486TIP3   OH235016   5.817   0.365   0.981
 4486TIP3    H135017   5.851   0.276   0.982
 4486TIP3    H235018   5.892   0.421   0.999
 4487TIP3   OH235019   5.643   0.649   1.042
 4487TIP3    H135020   5.713   0.644   0.977
 4487TIP3    H235021   5.673   0.714   1.105
 4488TIP3   OH235022   5.687   0.299   0.476
 4488TIP3    H135023   5.592   0.294   0.479
 4488TIP3    H235024   5.707   0.360   0.405
 4489TIP3   OH235025   7.124   1.736   0.742
 4489TIP3    H135026   7.203   1.682   0.749
 4489TIP3    H235027   7.145   1.815   0.792
 4490TIP3   OH235028   5.697   0.115   1.321
 4490TIP3    H135029   5.619   0.094   1.371
 4490TIP3    H235030   5.671   0.189   1.265
 4491TIP3   OH235031   5.927   1.455   1.738
 4491TIP3    H135032   5.836   1.484   1.728
 4491TIP3    H235033   5.964   1.515   1.802
 4492TIP3   OH235034   6.226   1.585   1.337
 4492TIP3    H135035   6.194   1.674   1.319
 4492TIP3    H235036   6.320   1.589   1.320
 4493TIP3   OH235037   6.644   1.689   1.657
 4493TIP3    H135038   6.696   1.622   1.703
 4493TIP3    H235039   6.708   1.755   1.631
 4494TIP3   OH235040   6.865   1.843   1.589
 4494TIP3    H135041   6.918   1.775   1.548
 4494TIP3    H235042   6.928   1.901   1.631
 4495TIP3   OH235043   5.914   1.897   1.357
 4495TIP3    H135044   5.837   1.946   1.327
 4495TIP3    H235045   5.929   1.928   1.446
 4496TIP3   OH235046   6.176   1.851   1.281
 4496TIP3    H135047   6.085   1.867   1.307
 4496TIP3    H235048   6.186   1.899   1.199
 4497TIP3   OH235049   6.632   1.839   1.187
 4497TIP3    H135050   6.581   1.880   1.117
 4497TIP3    H235051   6.644   1.908   1.252
 4498TIP3   OH235052   6.847   1.695   1.281
 4498TIP3    H135053   6.772   1.747   1.252
 4498TIP3    H235054   6.922   1.754   1.273
 4499TIP3   OH235055   7.080   1.837   1.269
 4499TIP3    H135056   7.093   1.931   1.256
 4499TIP3    H235057   7.136   1.796   1.203
 4500TIP3   OH235058   5.875   1.723   1.057
 4500TIP3    H135059   5.878   1.677   1.141
 4500TIP3    H235060   5.954   1.693   1.011
 4501TIP3   OH235061   6.098   1.614   0.942
 4501TIP3    H135062   6.084   1.521   0.957
 4501TIP3    H235063   6.187   1.631   0.974
 4502TIP3   OH235064   6.365   1.637   1.021
 4502TIP3    H135065   6.372   1.546   0.992
 4502TIP3    H235066   6.402   1.637   1.109
 4503TIP3   OH235067   6.618   0.204   0.852
 4503TIP3    H135068   6.558   0.146   0.899
 4503TIP3    H235069   6.705   0.178   0.881
 4504TIP3   OH235070   7.201   0.047   0.896
 4504TIP3    H135071   7.275   7.296   0.923
 4504TIP3    H235072   7.193   0.112   0.967
 4505TIP3   OH235073   5.935   0.043   0.697
 4505TIP3    H135074   5.880   7.291   0.641
 4505TIP3    H235075   6.002   7.287   0.731
 4506TIP3   OH235076   5.807   0.082   0.349
 4506TIP3    H135077   5.868   0.125   0.289
 4506TIP3    H235078   5.765   0.154   0.396
 4507TIP3   OH235079   6.411   0.040   0.661
 4507TIP3    H135080   6.495   0.079   0.638
 4507TIP3    H235081   6.403   0.053   0.755
 4508TIP3   OH235082   6.875   0.124   0.908
 4508TIP3    H135083   6.951   0.173   0.874
 4508TIP3    H235084   6.899   0.032   0.896
 4509TIP3   OH235085   7.030   0.060   0.419
 4509TIP3    H135086   6.954   0.118   0.424
 4509TIP3    H235087   7.007   7.289   0.474
 4510TIP3   OH235088   5.834   1.696   0.323
 4510TIP3    H135089   5.764   1.631   0.332
 4510TIP3    H235090   5.829   1.748   0.403
 4511TIP3   OH235091   5.974   0.229   0.191
 4511TIP3    H135092   5.954   0.202   0.102
 4511TIP3    H235093   6.067   0.250   0.189
 4512TIP3   OH235094   6.492   0.280   0.386
 4512TIP3    H135095   6.550   0.227   0.441
 4512TIP3    H235096   6.508   0.370   0.416
 4513TIP3   OH235097   6.719   1.920   0.248
 4513TIP3    H135098   6.733   2.005   0.208
 4513TIP3    H235099   6.788   1.864   0.212
 4514TIP3   OH235100   5.889   0.174   1.626
 4514TIP3    H135101   5.822   0.175   1.694
 4514TIP3    H235102   5.972   0.175   1.674
 4515TIP3   OH235103   6.109   0.146   1.794
 4515TIP3    H135104   6.195   0.189   1.797
 4515TIP3    H235105   6.129   0.057   1.765
 4516TIP3   OH235106   6.018   1.816   0.137
 4516TIP3    H135107   5.928   1.788   0.158
 4516TIP3    H235108   6.073   1.753   0.183
 4517TIP3   OH235109   6.948   0.145   1.786
 4517TIP3    H135110   6.875   0.120   1.843
 4517TIP3    H235111   7.020   0.087   1.813
 4518TIP3   OH235112   7.268   1.647   1.700
 4518TIP3    H135113   7.213   1.631   1.624
 4518TIP3    H235114   7.242   1.734   1.731
 4519TIP3   OH235115   1.197   2.913   0.654
 4519TIP3    H135116   1.179   3.007   0.650
 4519TIP3    H235117   1.127   2.872   0.603
 4520TIP3   OH235118   1.059   2.819   1.054
 4520TIP3    H135119   1.091   2.780   1.136
 4520TIP3    H235120   1.019   2.746   1.007
 4521TIP3   OH235121   0.294   2.756   1.229
 4521TIP3    H135122   0.299   2.671   1.275
 4521TIP3    H235123   0.351   2.814   1.280
 4522TIP3   OH235124   1.455   3.132   0.883
 4522TIP3    H135125   1.425   3.054   0.929
 4522TIP3    H235126   1.478   3.194   0.952
 4523TIP3   OH235127   0.408   3.217   0.990
 4523TIP3    H135128   0.388   3.127   0.964
 4523TIP3    H235129   0.500   3.213   1.018
 4524TIP3   OH235130   0.166   2.611   0.502
 4524TIP3    H135131   0.178   2.678   0.569
 4524TIP3    H235132   0.075   2.583   0.512
 4525TIP3   OH235133   0.191   2.766   0.729
 4525TIP3    H135134   0.198   2.701   0.798
 4525TIP3    H235135   0.233   2.844   0.764
 4526TIP3   OH235136   1.193   3.586   0.928
 4526TIP3    H135137   1.224   3.538   0.851
 4526TIP3    H235138   1.185   3.520   0.996
 4527TIP3   OH235139   0.919   3.071   1.067
 4527TIP3    H135140   0.953   2.986   1.038
 4527TIP3    H235141   0.991   3.110   1.116
 4528TIP3   OH235142   1.800   2.216   1.160
 4528TIP3    H135143   1.816   2.279   1.231
 4528TIP3    H235144   1.849   2.251   1.086
 4529TIP3   OH235145   1.228   2.481   1.076
 4529TIP3    H135146   1.254   2.389   1.087
 4529TIP3    H235147   1.211   2.490   0.982
 4530TIP3   OH235148   0.581   2.316   0.831
 4530TIP3    H135149   0.596   2.399   0.785
 4530TIP3    H235150   0.544   2.258   0.765
 4531TIP3   OH235151   1.365   2.333   0.651
 4531TIP3    H135152   1.406   2.303   0.732
 4531TIP3    H235153   1.436   2.374   0.601
 4532TIP3   OH235154   0.225   2.542   0.890
 4532TIP3    H135155   0.292   2.511   0.952
 4532TIP3    H235156   0.250   2.501   0.807
 4533TIP3   OH235157   0.713   2.711   0.852
 4533TIP3    H135158   0.794   2.675   0.886
 4533TIP3    H235159   0.677   2.642   0.796
 4534TIP3   OH235160   1.847   2.381   1.376
 4534TIP3    H135161   1.767   2.433   1.363
 4534TIP3    H235162   1.864   2.387   1.470
 4535TIP3   OH235163   0.460   2.212   1.248
 4535TIP3    H135164   0.434   2.275   1.181
 4535TIP3    H235165   0.395   2.222   1.317
 4536TIP3   OH235166   1.150   3.172   0.563
 4536TIP3    H135167   1.141   3.170   0.468
 4536TIP3    H235168   1.099   3.248   0.591
 4537TIP3   OH235169   0.705   2.983   1.220
 4537TIP3    H135170   0.657   3.056   1.259
 4537TIP3    H235171   0.780   3.024   1.176
 4538TIP3   OH235172   1.470   2.278   0.894
 4538TIP3    H135173   1.408   2.248   0.961
 4538TIP3    H235174   1.527   2.340   0.939
 4539TIP3   OH235175   0.413   2.390   1.031
 4539TIP3    H135176   0.465   2.450   1.083
 4539TIP3    H235177   0.474   2.355   0.967
 4540TIP3   OH235178   0.557   3.195   1.327
 4540TIP3    H135179   0.565   3.289   1.316
 4540TIP3    H235180   0.465   3.180   1.347
 4541TIP3   OH235181   0.107   3.161   0.386
 4541TIP3    H135182   0.113   3.196   0.297
 4541TIP3    H235183   0.143   3.230   0.441
 4542TIP3   OH235184   1.482   3.337   1.080
 4542TIP3    H135185   1.387   3.344   1.083
 4542TIP3    H235186   1.512   3.425   1.059
 4543TIP3   OH235187   1.543   2.117   1.238
 4543TIP3    H135188   1.476   2.161   1.186
 4543TIP3    H235189   1.626   2.148   1.201
 4544TIP3   OH235190   0.836   1.937   1.000
 4544TIP3    H135191   0.838   1.874   0.928
 4544TIP3    H235192   0.743   1.950   1.018
 4545TIP3   OH235193   1.301   3.476   0.697
 4545TIP3    H135194   1.346   3.393   0.678
 4545TIP3    H235195   1.371   3.541   0.700
 4546TIP3   OH235196   1.416   3.235   0.631
 4546TIP3    H135197   1.331   3.195   0.610
 4546TIP3    H235198   1.442   3.194   0.713
 4547TIP3   OH235199   1.586   3.114   1.444
 4547TIP3    H135200   1.590   3.053   1.371
 4547TIP3    H235201   1.608   3.199   1.405
 4548TIP3   OH235202   1.050   2.813   0.438
 4548TIP3    H135203   0.985   2.878   0.412
 4548TIP3    H235204   1.114   2.813   0.368
 4549TIP3   OH235205   1.059   2.638   0.128
 4549TIP3    H135206   1.123   2.685   0.181
 4549TIP3    H235207   1.110   2.571   0.083
 4550TIP3   OH235208   1.771   2.766   1.264
 4550TIP3    H135209   1.699   2.830   1.263
 4550TIP3    H235210   1.834   2.799   1.201
 4551TIP3   OH235211   1.411   2.841   0.501
 4551TIP3    H135212   1.345   2.868   0.565
 4551TIP3    H235213   1.478   2.796   0.553
 4552TIP3   OH235214   1.379   2.625   1.424
 4552TIP3    H135215   1.379   2.693   1.491
 4552TIP3    H235216   1.309   2.651   1.363
 4553TIP3   OH235217   0.552   2.884   0.703
 4553TIP3    H135218   0.535   2.841   0.619
 4553TIP3    H235219   0.611   2.825   0.749
 4554TIP3   OH235220   0.699   3.241   0.983
 4554TIP3    H135221   0.702   3.245   0.888
 4554TIP3    H235222   0.773   3.186   1.008
 4555TIP3   OH235223   0.563   2.811   1.061
 4555TIP3    H135224   0.624   2.782   0.993
 4555TIP3    H235225   0.615   2.869   1.117
 4556TIP3   OH235226   1.211   3.364   1.118
 4556TIP3    H135227   1.206   3.425   1.191
 4556TIP3    H235228   1.183   3.280   1.155
 4557TIP3   OH235229   0.705   3.217   1.565
 4557TIP3    H135230   0.641   3.280   1.601
 4557TIP3    H235231   0.666   3.188   1.483
 4558TIP3   OH235232   1.276   2.765   0.275
 4558TIP3    H135233   1.321   2.794   0.354
 4558TIP3    H235234   1.327   2.801   0.203
 4559TIP3   OH235235   0.401   2.864   1.477
 4559TIP3    H135236   0.403   2.943   1.531
 4559TIP3    H235237   0.311   2.832   1.485
 4560TIP3   OH235238   1.037   3.424   0.623
 4560TIP3    H135239   1.123   3.440   0.663
 4560TIP3    H235240   1.018   3.504   0.575
 4561TIP3   OH235241   0.505   3.397   1.616
 4561TIP3    H135242   0.507   3.435   1.528
 4561TIP3    H235243   0.412   3.397   1.640
 4562TIP3   OH235244   1.638   1.927   0.257
 4562TIP3    H135245   1.556   1.951   0.300
 4562TIP3    H235246   1.679   2.012   0.237
 4563TIP3   OH235247   0.479   2.796   0.438
 4563TIP3    H135248   0.422   2.865   0.403
 4563TIP3    H235249   0.425   2.717   0.436
 4564TIP3   OH235250   1.742   3.370   0.127
 4564TIP3    H135251   1.775   3.459   0.127
 4564TIP3    H235252   1.819   3.315   0.113
 4565TIP3   OH235253   0.103   3.017   1.359
 4565TIP3    H135254   0.042   2.991   1.289
 4565TIP3    H235255   0.121   2.936   1.406
 4566TIP3   OH235256   0.142   3.330   0.998
 4566TIP3    H135257   0.230   3.292   0.998
 4566TIP3    H235258   0.099   3.291   1.074
 4567TIP3   OH235259   1.859   3.431   1.650
 4567TIP3    H135260   1.847   3.338   1.632
 4567TIP3    H235261   1.793   3.451   1.717
 4568TIP3   OH235262   0.941   3.356   1.523
 4568TIP3    H135263   0.944   3.432   1.581
 4568TIP3    H235264   0.860   3.311   1.546
 4569TIP3   OH235265   1.018   3.672   0.495
 4569TIP3    H135266   1.014   3.699   0.403
 4569TIP3    H235267   1.022   3.755   0.543
 4570TIP3   OH235268   0.395   3.560   0.663
 4570TIP3    H135269   0.410   3.528   0.752
 4570TIP3    H235270   0.334   3.496   0.625
 4571TIP3   OH235271   1.315   3.633   0.155
 4571TIP3    H135272   1.386   3.576   0.126
 4571TIP3    H235273   1.323   3.635   0.250
 4572TIP3   OH235274   1.294   3.639   0.436
 4572TIP3    H135275   1.203   3.633   0.463
 4572TIP3    H235276   1.343   3.595   0.505
 4573TIP3   OH235277   1.553   2.487   1.645
 4573TIP3    H135278   1.512   2.546   1.582
 4573TIP3    H235279   1.565   2.405   1.597
 4574TIP3   OH235280   0.292   3.213   1.405
 4574TIP3    H135281   0.308   3.197   1.498
 4574TIP3    H235282   0.227   3.147   1.381
 4575TIP3   OH235283   0.557   2.012   1.072
 4575TIP3    H135284   0.478   2.016   1.019
 4575TIP3    H235285   0.546   2.081   1.137
 4576TIP3   OH235286   1.291   2.380   1.522
 4576TIP3    H135287   1.288   2.405   1.615
 4576TIP3    H235288   1.316   2.461   1.477
 4577TIP3   OH235289   1.446   2.888   0.094
 4577TIP3    H135290   1.525   2.893   0.040
 4577TIP3    H235291   1.464   2.946   0.167
 4578TIP3   OH235292   1.032   2.186   0.111
 4578TIP3    H135293   0.966   2.199   0.179
 4578TIP3    H235294   1.052   2.093   0.114
 4579TIP3   OH235295   0.560   2.560   1.182
 4579TIP3    H135296   0.502   2.559   1.258
 4579TIP3    H235297   0.557   2.650   1.151
 4580TIP3   OH235298   0.575   2.547   0.682
 4580TIP3    H135299   0.481   2.530   0.683
 4580TIP3    H235300   0.603   2.525   0.593
 4581TIP3   OH235301   1.106   2.563   0.541
 4581TIP3    H135302   1.083   2.651   0.511
 4581TIP3    H235303   1.176   2.536   0.482
 4582TIP3   OH235304   0.991   2.559   1.700
 4582TIP3    H135305   0.956   2.470   1.712
 4582TIP3    H235306   1.082   2.552   1.728
 4583TIP3   OH235307   1.209   2.508   0.801
 4583TIP3    H135308   1.157   2.553   0.734
 4583TIP3    H235309   1.254   2.438   0.754
 4584TIP3   OH235310   0.365   2.529   1.378
 4584TIP3    H135311   0.424   2.554   1.449
 4584TIP3    H235312   0.332   2.443   1.404
 4585TIP3   OH235313   0.700   2.295   0.067
 4585TIP3    H135314   0.679   2.250   0.149
 4585TIP3    H235315   0.691   2.388   0.089
 4586TIP3   OH235316   0.078   2.259   0.702
 4586TIP3    H135317   0.100   2.270   0.795
 4586TIP3    H235318   0.153   2.214   0.664
 4587TIP3   OH235319   0.132   2.395   0.311
 4587TIP3    H135320   0.178   2.378   0.228
 4587TIP3    H235321   0.164   2.481   0.339
 4588TIP3   OH235322   1.144   2.656   1.266
 4588TIP3    H135323   1.176   2.596   1.199
 4588TIP3    H235324   1.087   2.602   1.321
 4589TIP3   OH235325   0.859   2.325   0.778
 4589TIP3    H135326   0.775   2.307   0.820
 4589TIP3    H235327   0.915   2.252   0.803
 4590TIP3   OH235328   0.326   2.436   0.652
 4590TIP3    H135329   0.281   2.474   0.578
 4590TIP3    H235330   0.368   2.357   0.617
 4591TIP3   OH235331   0.620   2.457   0.427
 4591TIP3    H135332   0.714   2.449   0.442
 4591TIP3    H235333   0.612   2.489   0.337
 4592TIP3   OH235334   1.297   2.201   1.093
 4592TIP3    H135335   1.248   2.202   1.176
 4592TIP3    H235336   1.256   2.131   1.042
 4593TIP3   OH235337   0.578   2.532   0.167
 4593TIP3    H135338   0.487   2.537   0.136
 4593TIP3    H235339   0.626   2.593   0.112
 4594TIP3   OH235340   1.607   3.798   1.716
 4594TIP3    H135341   1.628   3.820   1.626
 4594TIP3    H235342   1.686   3.820   1.766
 4595TIP3   OH235343   0.355   3.081   1.652
 4595TIP3    H135344   0.409   3.137   1.707
 4595TIP3    H235345   0.278   3.061   1.705
 4596TIP3   OH235346   0.930   2.580   0.963
 4596TIP3    H135347   0.969   2.513   0.907
 4596TIP3    H235348   0.899   2.532   1.040
 4597TIP3   OH235349   0.464   2.184   0.615
 4597TIP3    H135350   0.402   2.112   0.626
 4597TIP3    H235351   0.549   2.142   0.604
 4598TIP3   OH235352   0.821   2.456   1.190
 4598TIP3    H135353   0.734   2.497   1.195
 4598TIP3    H235354   0.866   2.487   1.269
 4599TIP3   OH235355   0.874   3.011   0.356
 4599TIP3    H135356   0.803   2.970   0.306
 4599TIP3    H235357   0.833   3.035   0.439
 4600TIP3   OH235358   1.580   2.961   1.210
 4600TIP3    H135359   1.642   3.017   1.164
 4600TIP3    H235360   1.509   2.946   1.148
 4601TIP3   OH235361   1.293   2.259   0.212
 4601TIP3    H135362   1.212   2.247   0.162
 4601TIP3    H235363   1.293   2.351   0.236
 4602TIP3   OH235364   1.003   3.069   1.462
 4602TIP3    H135365   1.062   3.032   1.528
 4602TIP3    H235366   0.981   3.156   1.496
 4603TIP3   OH235367   1.316   2.499   0.360
 4603TIP3    H135368   1.403   2.488   0.400
 4603TIP3    H235369   1.318   2.587   0.323
 4604TIP3   OH235370   0.372   2.942   0.908
 4604TIP3    H135371   0.429   2.937   0.830
 4604TIP3    H235372   0.420   2.893   0.975
 4605TIP3   OH235373   1.095   3.164   0.282
 4605TIP3    H135374   1.048   3.248   0.290
 4605TIP3    H235375   1.028   3.098   0.299
 4606TIP3   OH235376   0.138   2.785   1.500
 4606TIP3    H135377   0.144   2.762   1.593
 4606TIP3    H235378   0.083   2.716   1.462
 4607TIP3   OH235379   0.801   2.761   1.682
 4607TIP3    H135380   0.741   2.723   1.618
 4607TIP3    H235381   0.873   2.699   1.687
 4608TIP3   OH235382   1.219   3.306   1.498
 4608TIP3    H135383   1.127   3.332   1.499
 4608TIP3    H235384   1.259   3.357   1.569
 4609TIP3   OH235385   1.759   2.557   0.309
 4609TIP3    H135386   1.698   2.533   0.240
 4609TIP3    H235387   1.783   2.648   0.290
 4610TIP3   OH235388   1.829   3.161   1.593
 4610TIP3    H135389   1.737   3.136   1.585
 4610TIP3    H235390   1.870   3.127   1.513
 4611TIP3   OH235391   1.617   3.408   0.378
 4611TIP3    H135392   1.586   3.328   0.421
 4611TIP3    H235393   1.656   3.379   0.296
 4612TIP3   OH235394   1.368   2.901   1.023
 4612TIP3    H135395   1.273   2.893   1.022
 4612TIP3    H235396   1.399   2.822   0.980
 4613TIP3   OH235397   0.683   3.303   0.711
 4613TIP3    H135398   0.754   3.357   0.677
 4613TIP3    H235399   0.606   3.330   0.662
 4614TIP3   OH235400   0.183   2.770   0.177
 4614TIP3    H135401   0.236   2.836   0.222
 4614TIP3    H235402   0.097   2.812   0.167
 4615TIP3   OH235403   0.733   3.061   0.583
 4615TIP3    H135404   0.727   3.141   0.636
 4615TIP3    H235405   0.673   3.000   0.626
 4616TIP3   OH235406   0.833   3.492   1.289
 4616TIP3    H135407   0.892   3.564   1.265
 4616TIP3    H235408   0.883   3.440   1.352
 4617TIP3   OH235409   0.601   3.699   0.544
 4617TIP3    H135410   0.528   3.646   0.577
 4617TIP3    H235411   0.663   3.702   0.617
 4618TIP3   OH235412   1.142   3.116   1.230
 4618TIP3    H135413   1.092   3.099   1.310
 4618TIP3    H235414   1.221   3.063   1.239
 4619TIP3   OH235415   1.359   3.202   0.149
 4619TIP3    H135416   1.416   3.155   0.209
 4619TIP3    H235417   1.272   3.196   0.189
 4620TIP3   OH235418   1.414   3.547   1.461
 4620TIP3    H135419   1.335   3.518   1.416
 4620TIP3    H235420   1.446   3.621   1.409
 4621TIP3   OH235421   1.835   3.631   0.156
 4621TIP3    H135422   1.897   3.703   0.170
 4621TIP3    H235423   1.750   3.670   0.173
 4622TIP3   OH235424   0.275   2.270   1.457
 4622TIP3    H135425   0.201   2.306   1.505
 4622TIP3    H235426   0.295   2.188   1.503
 4623TIP3   OH235427   1.513   3.030   0.321
 4623TIP3    H135428   1.468   2.982   0.390
 4623TIP3    H235429   1.605   3.033   0.349
 4624TIP3   OH235430   0.233   3.505   1.286
 4624TIP3    H135431   0.300   3.444   1.317
 4624TIP3    H235432   0.150   3.458   1.298
 4625TIP3   OH235433   0.644   3.296   0.299
 4625TIP3    H135434   0.728   3.251   0.311
 4625TIP3    H235435   0.665   3.389   0.305
 4626TIP3   OH235436   0.309   2.980   0.314
 4626TIP3    H135437   0.236   3.025   0.357
 4626TIP3    H235438   0.357   3.050   0.270
 4627TIP3   OH235439   1.171   2.215   1.334
 4627TIP3    H135440   1.212   2.270   1.401
 4627TIP3    H235441   1.105   2.165   1.382
 4628TIP3   OH235442   1.224   2.178   0.472
 4628TIP3    H135443   1.243   2.216   0.386
 4628TIP3    H235444   1.265   2.239   0.534
 4629TIP3   OH235445   0.932   3.384   0.306
 4629TIP3    H135446   0.869   3.449   0.338
 4629TIP3    H235447   0.984   3.431   0.241
 4630TIP3   OH235448   0.877   2.412   0.517
 4630TIP3    H135449   0.956   2.467   0.520
 4630TIP3    H235450   0.867   2.380   0.606
 4631TIP3   OH235451   0.982   2.495   1.420
 4631TIP3    H135452   0.974   2.527   1.510
 4631TIP3    H235453   0.989   2.400   1.429
 4632TIP3   OH235454   0.986   2.076   0.561
 4632TIP3    H135455   0.989   2.075   0.657
 4632TIP3    H235456   1.070   2.113   0.535
 4633TIP3   OH235457   0.714   3.562   0.331
 4633TIP3    H135458   0.731   3.632   0.269
 4633TIP3    H235459   0.671   3.605   0.405
 4634TIP3   OH235460   0.584   2.201   0.303
 4634TIP3    H135461   0.563   2.275   0.360
 4634TIP3    H235462   0.671   2.173   0.331
 4635TIP3   OH235463   1.545   2.256   1.490
 4635TIP3    H135464   1.451   2.274   1.497
 4635TIP3    H235465   1.554   2.208   1.408
 4636TIP3   OH235466   1.440   2.652   0.902
 4636TIP3    H135467   1.356   2.609   0.884
 4636TIP3    H235468   1.486   2.592   0.960
 4637TIP3   OH235469   0.420   3.198   0.177
 4637TIP3    H135470   0.484   3.244   0.232
 4637TIP3    H235471   0.473   3.151   0.113
 4638TIP3   OH235472   0.303   2.533   0.103
 4638TIP3    H135473   0.261   2.617   0.122
 4638TIP3    H235474   0.246   2.492   0.038
 4639TIP3   OH235475   1.572   3.600   1.063
 4639TIP3    H135476   1.562   3.670   0.999
 4639TIP3    H235477   1.666   3.596   1.080
 4640TIP3   OH235478   0.304   2.002   0.944
 4640TIP3    H135479   0.311   1.992   0.849
 4640TIP3    H235480   0.280   1.915   0.975
 4641TIP3   OH235481   0.188   3.400   0.546
 4641TIP3    H135482   0.113   3.393   0.605
 4641TIP3    H235483   0.161   3.465   0.481
 4642TIP3   OH235484   0.628   3.475   1.921
 4642TIP3    H135485   0.657   3.553   1.969
 4642TIP3    H235486   0.611   3.507   1.832
 4643TIP3   OH235487   1.073   3.514   0.115
 4643TIP3    H135488   1.051   3.475   0.030
 4643TIP3    H235489   1.164   3.540   0.107
 4644TIP3   OH235490   1.480   3.439   0.057
 4644TIP3    H135491   1.437   3.359   0.086
 4644TIP3    H235492   1.574   3.421   0.065
 4645TIP3   OH235493   0.136   3.000   1.813
 4645TIP3    H135494   0.165   2.910   1.798
 4645TIP3    H235495   0.044   2.991   1.839
 4646TIP3   OH235496   0.587   3.040   0.031
 4646TIP3    H135497   0.622   2.993   0.107
 4646TIP3    H235498   0.601   2.980   8.457
 4647TIP3   OH235499   0.753   3.026   1.762
 4647TIP3    H135500   0.743   3.082   1.685
 4647TIP3    H235501   0.777   2.940   1.726
 4648TIP3   OH235502   1.325   3.049   1.511
 4648TIP3    H135503   1.419   3.063   1.500
 4648TIP3    H235504   1.287   3.137   1.502
 4649TIP3   OH235505   0.218   2.738   1.762
 4649TIP3    H135506   0.302   2.697   1.742
 4649TIP3    H235507   0.176   2.678   1.824
 4650TIP3   OH235508   0.669   2.871   0.233
 4650TIP3    H135509   0.618   2.832   0.304
 4650TIP3    H235510   0.707   2.796   0.187
 4651TIP3   OH235511   0.586   2.661   1.506
 4651TIP3    H135512   0.530   2.737   1.499
 4651TIP3    H235513   0.656   2.677   1.443
 4652TIP3   OH235514   0.791   2.682   0.062
 4652TIP3    H135515   0.803   2.683   8.467
 4652TIP3    H235516   0.879   2.666   0.096
 4653TIP3   OH235517   1.708   2.993   0.006
 4653TIP3    H135518   1.680   3.027   8.421
 4653TIP3    H235519   1.736   3.070   0.054
 4654TIP3   OH235520   0.711   2.262   1.381
 4654TIP3    H135521   0.757   2.299   1.305
 4654TIP3    H235522   0.627   2.232   1.346
 4655TIP3   OH235523   0.789   2.752   1.347
 4655TIP3    H135524   0.884   2.756   1.352
 4655TIP3    H235525   0.763   2.835   1.307
 4656TIP3   OH235526   1.272   2.575   1.768
 4656TIP3    H135527   1.344   2.551   1.826
 4656TIP3    H235528   1.301   2.657   1.727
 4657TIP3   OH235529   1.381   2.801   1.631
 4657TIP3    H135530   1.351   2.887   1.603
 4657TIP3    H235531   1.474   2.813   1.649
 4658TIP3   OH235532   0.431   2.565   1.738
 4658TIP3    H135533   0.402   2.476   1.758
 4658TIP3    H235534   0.503   2.554   1.676
 4659TIP3   OH235535   0.336   2.303   1.775
 4659TIP3    H135536   0.341   2.223   1.723
 4659TIP3    H235537   0.344   2.274   1.866
 4660TIP3   OH235538   0.777   1.886   1.517
 4660TIP3    H135539   0.833   1.812   1.541
 4660TIP3    H235540   0.691   1.847   1.502
 4661TIP3   OH235541   0.772   3.759   0.153
 4661TIP3    H135542   0.862   3.776   0.180
 4661TIP3    H235543   0.769   3.784   0.061
 4662TIP3   OH235544   0.150   3.235   0.123
 4662TIP3    H135545   0.245   3.233   0.134
 4662TIP3    H235546   0.137   3.218   0.030
 4663TIP3   OH235547   0.071   3.730   0.608
 4663TIP3    H135548   0.066   3.685   0.524
 4663TIP3    H235549   0.060   3.660   0.673
 4664TIP3   OH235550   0.076   3.535   0.823
 4664TIP3    H135551   0.085   3.447   0.859
 4664TIP3    H235552   0.138   3.589   0.872
 4665TIP3   OH235553   1.836   3.599   1.141
 4665TIP3    H135554   1.832   3.596   1.236
 4665TIP3    H235555   1.913   3.652   1.120
 4666TIP3   OH235556   1.783   3.562   1.413
 4666TIP3    H135557   1.729   3.489   1.383
 4666TIP3    H235558   1.822   3.531   1.495
 4667TIP3   OH235559   1.638   3.123   1.961
 4667TIP3    H135560   1.637   3.081   2.048
 4667TIP3    H235561   1.687   3.204   1.975
 4668TIP3   OH235562   1.773   2.990   0.419
 4668TIP3    H135563   1.843   3.056   0.422
 4668TIP3    H235564   1.790   2.933   0.494
 4669TIP3   OH235565   1.834   2.799   0.615
 4669TIP3    H135566   1.750   2.768   0.649
 4669TIP3    H235567   1.888   2.814   0.693
 4670TIP3   OH235568   1.806   3.095   1.125
 4670TIP3    H135569   1.863   3.028   1.087
 4670TIP3    H235570   1.839   3.178   1.091
 4671TIP3   OH235571   1.605   3.368   1.330
 4671TIP3    H135572   1.530   3.408   1.375
 4671TIP3    H235573   1.572   3.349   1.242
 4672TIP3   OH235574   1.807   2.815   0.214
 4672TIP3    H135575   1.765   2.861   0.141
 4672TIP3    H235576   1.796   2.873   0.289
 4673TIP3   OH235577   1.603   2.498   0.085
 4673TIP3    H135578   1.677   2.517   0.026
 4673TIP3    H235579   1.581   2.407   0.067
 4674TIP3   OH235580   1.579   2.685   0.663
 4674TIP3    H135581   1.577   2.593   0.635
 4674TIP3    H235582   1.536   2.684   0.749
 4675TIP3   OH235583   0.132   2.875   1.048
 4675TIP3    H135584   0.191   2.918   0.986
 4675TIP3    H235585   0.190   2.841   1.117
 4676TIP3   OH235586   1.656   2.832   1.640
 4676TIP3    H135587   1.713   2.755   1.633
 4676TIP3    H235588   1.684   2.875   1.721
 4677TIP3   OH235589   1.803   2.600   1.669
 4677TIP3    H135590   1.716   2.572   1.696
 4677TIP3    H235591   1.853   2.519   1.661
 4678TIP3   OH235592   1.536   2.237   0.049
 4678TIP3    H135593   1.613   2.195   0.088
 4678TIP3    H235594   1.465   2.220   0.110
 4679TIP3   OH235595   1.570   2.436   0.489
 4679TIP3    H135596   1.598   2.344   0.490
 4679TIP3    H235597   1.639   2.481   0.440
 4680TIP3   OH235598   1.597   2.469   1.048
 4680TIP3    H135599   1.690   2.480   1.028
 4680TIP3    H235600   1.590   2.482   1.142
 4681TIP3   OH235601   1.623   2.541   1.315
 4681TIP3    H135602   1.539   2.571   1.351
 4681TIP3    H235603   1.674   2.620   1.304
 4682TIP3   OH235604   0.088   2.355   1.657
 4682TIP3    H135605   0.173   2.365   1.699
 4682TIP3    H235606   0.030   2.321   1.725
 4683TIP3   OH235607   1.921   1.993   1.866
 4683TIP3    H135608   1.958   1.916   1.822
 4683TIP3    H235609   1.876   2.041   1.798
 4684TIP3   OH235610   1.631   2.162   0.498
 4684TIP3    H135611   1.654   2.126   0.583
 4684TIP3    H235612   1.560   2.105   0.466
 4685TIP3   OH235613   0.183   2.245   0.965
 4685TIP3    H135614   0.220   2.157   0.968
 4685TIP3    H235615   0.255   2.303   0.991
 4686TIP3   OH235616   0.028   2.614   1.074
 4686TIP3    H135617   0.094   2.580   1.014
 4686TIP3    H235618   0.053   2.706   1.088
 4687TIP3   OH235619   1.789   2.135   1.666
 4687TIP3    H135620   1.709   2.155   1.714
 4687TIP3    H235621   1.759   2.092   1.586
 4688TIP3   OH235622   1.780   2.145   0.157
 4688TIP3    H135623   1.849   2.082   0.139
 4688TIP3    H235624   1.826   2.225   0.183
 4689TIP3   OH235625   0.080   2.132   0.395
 4689TIP3    H135626   0.003   2.144   0.450
 4689TIP3    H235627   0.103   2.221   0.366
 4690TIP3   OH235628   1.484   3.675   0.673
 4690TIP3    H135629   1.558   3.673   0.612
 4690TIP3    H235630   1.517   3.719   0.751
 4691TIP3   OH235631   0.066   2.025   1.351
 4691TIP3    H135632   0.036   2.091   1.414
 4691TIP3    H235633   0.004   2.032   1.278
 4692TIP3   OH235634   0.237   3.389   1.680
 4692TIP3    H135635   0.161   3.439   1.653
 4692TIP3    H235636   0.211   3.349   1.763
 4693TIP3   OH235637   0.564   3.473   1.344
 4693TIP3    H135638   0.539   3.564   1.324
 4693TIP3    H235639   0.659   3.472   1.333
 4694TIP3   OH235640   0.966   3.585   1.680
 4694TIP3    H135641   0.964   3.597   1.775
 4694TIP3    H235642   1.046   3.631   1.653
 4695TIP3   OH235643   1.199   3.716   1.608
 4695TIP3    H135644   1.274   3.674   1.566
 4695TIP3    H235645   1.235   3.755   1.687
 4696TIP3   OH235646   1.701   1.946   1.466
 4696TIP3    H135647   1.620   1.956   1.415
 4696TIP3    H235648   1.724   1.854   1.456
 4697TIP3   OH235649   0.270   3.768   1.393
 4697TIP3    H135650   0.192   3.818   1.371
 4697TIP3    H235651   0.248   3.678   1.371
 4698TIP3   OH235652   0.528   3.742   1.291
 4698TIP3    H135653   0.442   3.762   1.327
 4698TIP3    H235654   0.532   3.793   1.210
 4699TIP3   OH235655   0.977   3.712   1.199
 4699TIP3    H135656   0.933   3.757   1.128
 4699TIP3    H235657   0.993   3.779   1.265
 4700TIP3   OH235658   1.213   3.589   1.276
 4700TIP3    H135659   1.132   3.630   1.246
 4700TIP3    H235660   1.280   3.656   1.262
 4701TIP3   OH235661   1.458   3.743   1.271
 4701TIP3    H135662   1.474   3.835   1.249
 4701TIP3    H235663   1.496   3.694   1.198
 4702TIP3   OH235664   0.243   3.629   1.030
 4702TIP3    H135665   0.233   3.598   1.120
 4702TIP3    H235666   0.317   3.579   0.995
 4703TIP3   OH235667   0.450   3.484   0.922
 4703TIP3    H135668   0.436   3.392   0.944
 4703TIP3    H235669   0.535   3.504   0.962
 4704TIP3   OH235670   0.706   3.517   1.037
 4704TIP3    H135671   0.715   3.426   1.011
 4704TIP3    H235672   0.743   3.521   1.126
 4705TIP3   OH235673   1.001   2.098   0.841
 4705TIP3    H135674   0.948   2.045   0.900
 4705TIP3    H235675   1.091   2.072   0.859
 4706TIP3   OH235676   1.536   1.923   0.885
 4706TIP3    H135677   1.601   1.980   0.844
 4706TIP3    H235678   1.461   1.980   0.901
 4707TIP3   OH235679   1.724   2.044   0.728
 4707TIP3    H135680   1.786   1.975   0.709
 4707TIP3    H235681   1.778   2.121   0.747
 4708TIP3   OH235682   0.297   1.972   0.669
 4708TIP3    H135683   0.208   1.958   0.637
 4708TIP3    H235684   0.340   1.886   0.661
 4709TIP3   OH235685   0.211   1.940   0.245
 4709TIP3    H135686   0.278   1.997   0.205
 4709TIP3    H235687   0.162   1.999   0.302
 4710TIP3   OH235688   0.703   2.038   0.641
 4710TIP3    H135689   0.788   2.053   0.600
 4710TIP3    H235690   0.719   1.970   0.706
 4711TIP3   OH235691   1.261   2.003   0.867
 4711TIP3    H135692   1.285   1.999   0.775
 4711TIP3    H235693   1.234   1.914   0.889
 4712TIP3   OH235694   1.421   1.993   0.413
 4712TIP3    H135695   1.350   2.055   0.426
 4712TIP3    H235696   1.382   1.907   0.429
 4713TIP3   OH235697   0.104   3.594   0.366
 4713TIP3    H135698   0.055   3.555   0.293
 4713TIP3    H235699   0.153   3.666   0.327
 4714TIP3   OH235700   0.387   2.113   0.128
 4714TIP3    H135701   0.415   2.154   0.046
 4714TIP3    H235702   0.452   2.141   0.192
 4715TIP3   OH235703   0.858   2.194   0.348
 4715TIP3    H135704   0.899   2.134   0.411
 4715TIP3    H235705   0.866   2.280   0.390
 4716TIP3   OH235706   1.035   3.758   0.233
 4716TIP3    H135707   1.111   3.811   0.209
 4716TIP3    H235708   1.050   3.674   0.190
 4717TIP3   OH235709   1.684   3.653   0.480
 4717TIP3    H135710   1.668   3.563   0.453
 4717TIP3    H235711   1.681   3.704   0.399
 4718TIP3   OH235712   0.320   2.049   1.630
 4718TIP3    H135713   0.257   1.982   1.657
 4718TIP3    H235714   0.399   2.029   1.680
 4719TIP3   OH235715   0.492   1.962   1.829
 4719TIP3    H135716   0.582   1.945   1.857
 4719TIP3    H235717   0.439   1.898   1.875
 4720TIP3   OH235718   0.323   3.642   0.013
 4720TIP3    H135719   0.289   3.701   0.080
 4720TIP3    H235720   0.387   3.587   0.059
 4721TIP3   OH235721   1.572   3.524   1.693
 4721TIP3    H135722   1.522   3.523   1.611
 4721TIP3    H235723   1.587   3.617   1.711
 4722TIP3   OH235724   3.089   2.910   0.650
 4722TIP3    H135725   3.075   3.004   0.648
 4722TIP3    H235726   3.012   2.873   0.605
 4723TIP3   OH235727   2.954   2.820   1.048
 4723TIP3    H135728   2.979   2.785   1.134
 4723TIP3    H235729   2.903   2.750   1.008
 4724TIP3   OH235730   2.178   2.767   1.200
 4724TIP3    H135731   2.181   2.681   1.240
 4724TIP3    H235732   2.232   2.822   1.256
 4725TIP3   OH235733   3.350   3.132   0.877
 4725TIP3    H135734   3.315   3.056   0.924
 4725TIP3    H235735   3.367   3.197   0.944
 4726TIP3   OH235736   2.313   3.208   1.004
 4726TIP3    H135737   2.281   3.123   0.972
 4726TIP3    H235738   2.352   3.188   1.089
 4727TIP3   OH235739   1.962   2.566   0.517
 4727TIP3    H135740   1.936   2.649   0.557
 4727TIP3    H235741   1.894   2.548   0.453
 4728TIP3   OH235742   2.029   2.811   0.820
 4728TIP3    H135743   2.056   2.722   0.842
 4728TIP3    H235744   2.106   2.864   0.836
 4729TIP3   OH235745   3.057   3.608   0.909
 4729TIP3    H135746   3.114   3.544   0.867
 4729TIP3    H235747   3.043   3.573   0.997
 4730TIP3   OH235748   2.821   3.068   1.082
 4730TIP3    H135749   2.858   2.986   1.049
 4730TIP3    H235750   2.886   3.100   1.145
 4731TIP3   OH235751   3.678   2.242   1.136
 4731TIP3    H135752   3.676   2.276   1.226
 4731TIP3    H235753   3.708   2.316   1.083
 4732TIP3   OH235754   3.118   2.489   1.074
 4732TIP3    H135755   3.134   2.396   1.090
 4732TIP3    H235756   3.099   2.495   0.981
 4733TIP3   OH235757   2.467   2.297   0.803
 4733TIP3    H135758   2.470   2.384   0.762
 4733TIP3    H235759   2.409   2.246   0.748
 4734TIP3   OH235760   3.246   2.331   0.659
 4734TIP3    H135761   3.287   2.295   0.737
 4734TIP3    H235762   3.317   2.376   0.612
 4735TIP3   OH235763   2.103   2.554   0.892
 4735TIP3    H135764   2.169   2.515   0.949
 4735TIP3    H235765   2.122   2.518   0.805
 4736TIP3   OH235766   2.601   2.701   0.836
 4736TIP3    H135767   2.678   2.659   0.873
 4736TIP3    H235768   2.558   2.632   0.786
 4737TIP3   OH235769   3.692   2.341   1.397
 4737TIP3    H135770   3.652   2.427   1.383
 4737TIP3    H235771   3.627   2.292   1.447
 4738TIP3   OH235772   2.330   2.220   1.229
 4738TIP3    H135773   2.308   2.282   1.160
 4738TIP3    H235774   2.258   2.227   1.291
 4739TIP3   OH235775   3.058   3.173   0.560
 4739TIP3    H135776   3.037   3.175   0.466
 4739TIP3    H235777   3.010   3.247   0.597
 4740TIP3   OH235778   2.585   2.992   1.209
 4740TIP3    H135779   2.531   3.063   1.242
 4740TIP3    H235780   2.661   3.035   1.171
 4741TIP3   OH235781   3.357   2.254   0.899
 4741TIP3    H135782   3.282   2.231   0.954
 4741TIP3    H235783   3.401   2.323   0.947
 4742TIP3   OH235784   2.301   2.390   1.011
 4742TIP3    H135785   2.355   2.449   1.063
 4742TIP3    H235786   2.362   2.353   0.946
 4743TIP3   OH235787   2.414   3.197   1.299
 4743TIP3    H135788   2.430   3.291   1.304
 4743TIP3    H235789   2.327   3.186   1.339
 4744TIP3   OH235790   1.985   3.166   0.396
 4744TIP3    H135791   1.982   3.206   0.309
 4744TIP3    H235792   2.003   3.239   0.456
 4745TIP3   OH235793   3.375   3.334   1.072
 4745TIP3    H135794   3.281   3.333   1.090
 4745TIP3    H235795   3.394   3.425   1.051
 4746TIP3   OH235796   3.411   2.122   1.222
 4746TIP3    H135797   3.331   2.161   1.187
 4746TIP3    H235798   3.481   2.167   1.175
 4747TIP3   OH235799   2.677   1.910   0.980
 4747TIP3    H135800   2.652   1.817   0.982
 4747TIP3    H235801   2.599   1.957   1.010
 4748TIP3   OH235802   3.214   3.464   0.730
 4748TIP3    H135803   3.258   3.384   0.702
 4748TIP3    H235804   3.278   3.533   0.717
 4749TIP3   OH235805   3.324   3.232   0.621
 4749TIP3    H135806   3.237   3.198   0.599
 4749TIP3    H235807   3.345   3.190   0.705
 4750TIP3   OH235808   3.496   3.117   1.440
 4750TIP3    H135809   3.493   3.056   1.366
 4750TIP3    H235810   3.509   3.203   1.399
 4751TIP3   OH235811   2.930   2.814   0.438
 4751TIP3    H135812   2.868   2.883   0.417
 4751TIP3    H235813   2.993   2.815   0.365
 4752TIP3   OH235814   2.943   2.631   0.125
 4752TIP3    H135815   3.005   2.680   0.179
 4752TIP3    H235816   2.996   2.561   0.085
 4753TIP3   OH235817   3.669   2.759   1.235
 4753TIP3    H135818   3.595   2.820   1.243
 4753TIP3    H235819   3.729   2.803   1.175
 4754TIP3   OH235820   3.302   2.840   0.498
 4754TIP3    H135821   3.233   2.867   0.560
 4754TIP3    H235822   3.368   2.798   0.553
 4755TIP3   OH235823   3.265   2.645   1.425
 4755TIP3    H135824   3.272   2.709   1.496
 4755TIP3    H235825   3.190   2.674   1.374
 4756TIP3   OH235826   2.458   2.898   0.702
 4756TIP3    H135827   2.433   2.859   0.618
 4756TIP3    H235828   2.513   2.832   0.744
 4757TIP3   OH235829   2.652   3.265   0.964
 4757TIP3    H135830   2.621   3.227   0.882
 4757TIP3    H235831   2.711   3.199   1.001
 4758TIP3   OH235832   2.464   2.795   1.061
 4758TIP3    H135833   2.523   2.775   0.988
 4758TIP3    H235834   2.510   2.861   1.112
 4759TIP3   OH235835   3.112   3.332   1.142
 4759TIP3    H135836   3.093   3.409   1.195
 4759TIP3    H235837   3.073   3.259   1.191
 4760TIP3   OH235838   2.590   3.214   1.534
 4760TIP3    H135839   2.528   3.269   1.582
 4760TIP3    H235840   2.540   3.183   1.457
 4761TIP3   OH235841   3.161   2.759   0.276
 4761TIP3    H135842   3.205   2.790   0.355
 4761TIP3    H235843   3.211   2.798   0.204
 4762TIP3   OH235844   2.271   2.819   1.479
 4762TIP3    H135845   2.283   2.887   1.545
 4762TIP3    H235846   2.176   2.811   1.470
 4763TIP3   OH235847   2.953   3.411   0.659
 4763TIP3    H135848   3.041   3.436   0.690
 4763TIP3    H235849   2.897   3.423   0.735
 4764TIP3   OH235850   2.388   3.384   1.614
 4764TIP3    H135851   2.391   3.425   1.527
 4764TIP3    H235852   2.295   3.378   1.635
 4765TIP3   OH235853   3.536   1.928   0.268
 4765TIP3    H135854   3.455   1.959   0.310
 4765TIP3    H235855   3.577   2.007   0.234
 4766TIP3   OH235856   2.368   2.811   0.439
 4766TIP3    H135857   2.310   2.880   0.407
 4766TIP3    H235858   2.311   2.735   0.449
 4767TIP3   OH235859   3.642   3.372   0.138
 4767TIP3    H135860   3.668   3.464   0.139
 4767TIP3    H235861   3.725   3.324   0.136
 4768TIP3   OH235862   1.950   3.056   1.370
 4768TIP3    H135863   1.895   3.056   1.291
 4768TIP3    H235864   1.963   2.963   1.390
 4769TIP3   OH235865   1.925   3.344   1.059
 4769TIP3    H135866   2.004   3.348   1.113
 4769TIP3    H235867   1.875   3.421   1.085
 4770TIP3   OH235868   3.765   3.416   1.643
 4770TIP3    H135869   3.757   3.324   1.666
 4770TIP3    H235870   3.679   3.454   1.664
 4771TIP3   OH235871   2.827   3.356   1.495
 4771TIP3    H135872   2.836   3.423   1.563
 4771TIP3    H235873   2.746   3.309   1.517
 4772TIP3   OH235874   2.868   3.696   0.481
 4772TIP3    H135875   2.866   3.604   0.454
 4772TIP3    H235876   2.809   3.700   0.556
 4773TIP3   OH235877   2.305   3.627   0.689
 4773TIP3    H135878   2.285   3.565   0.759
 4773TIP3    H235879   2.246   3.604   0.618
 4774TIP3   OH235880   3.205   3.653   0.167
 4774TIP3    H135881   3.271   3.591   0.136
 4774TIP3    H235882   3.207   3.644   0.262
 4775TIP3   OH235883   3.177   3.647   0.451
 4775TIP3    H135884   3.090   3.621   0.478
 4775TIP3    H235885   3.233   3.625   0.525
 4776TIP3   OH235886   3.489   2.520   1.677
 4776TIP3    H135887   3.443   2.597   1.712
 4776TIP3    H235888   3.420   2.468   1.635
 4777TIP3   OH235889   2.162   3.225   1.417
 4777TIP3    H135890   2.158   3.239   1.512
 4777TIP3    H235891   2.092   3.163   1.399
 4778TIP3   OH235892   2.435   2.020   1.067
 4778TIP3    H135893   2.357   2.009   1.013
 4778TIP3    H235894   2.413   2.092   1.126
 4779TIP3   OH235895   2.916   1.975   1.407
 4779TIP3    H135896   2.961   1.934   1.481
 4779TIP3    H235897   2.824   1.977   1.434
 4780TIP3   OH235898   3.277   2.396   1.539
 4780TIP3    H135899   3.191   2.371   1.570
 4780TIP3    H235900   3.264   2.480   1.495
 4781TIP3   OH235901   3.331   2.889   0.098
 4781TIP3    H135902   3.410   2.895   0.046
 4781TIP3    H235903   3.346   2.947   0.173
 4782TIP3   OH235904   2.918   2.209   0.148
 4782TIP3    H135905   2.851   2.203   0.215
 4782TIP3    H235906   2.870   2.214   0.065
 4783TIP3   OH235907   2.447   2.548   1.182
 4783TIP3    H135908   2.382   2.549   1.252
 4783TIP3    H235909   2.448   2.637   1.148
 4784TIP3   OH235910   2.446   2.536   0.672
 4784TIP3    H135911   2.351   2.529   0.672
 4784TIP3    H235912   2.471   2.516   0.581
 4785TIP3   OH235913   2.989   2.565   0.544
 4785TIP3    H135914   2.964   2.653   0.514
 4785TIP3    H235915   3.058   2.538   0.483
 4786TIP3   OH235916   2.910   2.605   1.683
 4786TIP3    H135917   2.871   2.527   1.722
 4786TIP3    H235918   2.986   2.624   1.738
 4787TIP3   OH235919   3.079   2.504   0.805
 4787TIP3    H135920   3.033   2.552   0.736
 4787TIP3    H235921   3.126   2.435   0.758
 4788TIP3   OH235922   2.228   2.536   1.352
 4788TIP3    H135923   2.230   2.582   1.436
 4788TIP3    H235924   2.188   2.451   1.373
 4789TIP3   OH235925   2.599   2.289   0.060
 4789TIP3    H135926   2.577   2.236   0.137
 4789TIP3    H235927   2.567   2.377   0.082
 4790TIP3   OH235928   1.906   2.242   0.746
 4790TIP3    H135929   1.953   2.253   0.829
 4790TIP3    H235930   1.973   2.243   0.679
 4791TIP3   OH235931   1.945   2.353   0.252
 4791TIP3    H135932   2.025   2.387   0.213
 4791TIP3    H235933   1.892   2.431   0.271
 4792TIP3   OH235934   3.031   2.664   1.266
 4792TIP3    H135935   3.066   2.602   1.202
 4792TIP3    H235936   2.973   2.611   1.321
 4793TIP3   OH235937   2.747   2.258   0.761
 4793TIP3    H135938   2.657   2.264   0.793
 4793TIP3    H235939   2.797   2.227   0.837
 4794TIP3   OH235940   2.183   2.456   0.646
 4794TIP3    H135941   2.109   2.483   0.592
 4794TIP3    H235942   2.202   2.366   0.618
 4795TIP3   OH235943   2.511   2.452   0.417
 4795TIP3    H135944   2.605   2.452   0.434
 4795TIP3    H235945   2.503   2.487   0.329
 4796TIP3   OH235946   3.145   2.211   1.077
 4796TIP3    H135947   3.120   2.203   1.169
 4796TIP3    H235948   3.069   2.179   1.028
 4797TIP3   OH235949   2.455   2.513   0.153
 4797TIP3    H135950   2.363   2.522   0.129
 4797TIP3    H235951   2.499   2.582   0.104
 4798TIP3   OH235952   3.403   3.796   1.701
 4798TIP3    H135953   3.467   3.822   1.634
 4798TIP3    H235954   3.448   3.810   1.784
 4799TIP3   OH235955   2.251   3.017   1.675
 4799TIP3    H135956   2.291   3.092   1.719
 4799TIP3    H235957   2.161   3.015   1.709
 4800TIP3   OH235958   2.815   2.576   0.965
 4800TIP3    H135959   2.889   2.524   0.934
 4800TIP3    H235960   2.784   2.530   1.044
 4801TIP3   OH235961   2.285   2.189   0.611
 4801TIP3    H135962   2.237   2.111   0.637
 4801TIP3    H235963   2.327   2.166   0.528
 4802TIP3   OH235964   2.713   2.454   1.200
 4802TIP3    H135965   2.629   2.499   1.205
 4802TIP3    H235966   2.760   2.483   1.278
 4803TIP3   OH235967   2.765   3.025   0.362
 4803TIP3    H135968   2.695   2.981   0.312
 4803TIP3    H235969   2.722   3.054   0.443
 4804TIP3   OH235970   3.477   2.956   1.207
 4804TIP3    H135971   3.534   3.019   1.163
 4804TIP3    H235972   3.400   2.949   1.151
 4805TIP3   OH235973   3.179   2.254   0.228
 4805TIP3    H135974   3.093   2.241   0.187
 4805TIP3    H235975   3.178   2.346   0.255
 4806TIP3   OH235976   2.888   3.043   1.515
 4806TIP3    H135977   2.925   2.999   1.592
 4806TIP3    H235978   2.842   3.120   1.550
 4807TIP3   OH235979   3.201   2.497   0.364
 4807TIP3    H135980   3.287   2.491   0.405
 4807TIP3    H235981   3.199   2.584   0.325
 4808TIP3   OH235982   2.268   2.933   0.908
 4808TIP3    H135983   2.332   2.933   0.836
 4808TIP3    H235984   2.309   2.879   0.976
 4809TIP3   OH235985   2.975   3.195   0.291
 4809TIP3    H135986   2.935   3.280   0.310
 4809TIP3    H235987   2.904   3.132   0.306
 4810TIP3   OH235988   1.992   2.796   1.463
 4810TIP3    H135989   1.999   2.774   1.555
 4810TIP3    H235990   1.911   2.756   1.434
 4811TIP3   OH235991   2.683   2.776   1.699
 4811TIP3    H135992   2.628   2.731   1.635
 4811TIP3    H235993   2.769   2.734   1.691
 4812TIP3   OH235994   3.110   3.326   1.500
 4812TIP3    H135995   3.015   3.325   1.483
 4812TIP3    H235996   3.117   3.344   1.594
 4813TIP3   OH235997   3.649   2.557   0.315
 4813TIP3    H135998   3.591   2.534   0.243
 4813TIP3    H235999   3.674   2.648   0.299
 4814TIP3   OH236000   3.710   3.113   1.630
 4814TIP3    H136001   3.619   3.135   1.611
 4814TIP3    H236002   3.752   3.106   1.544
 4815TIP3   OH236003   3.513   3.409   0.392
 4815TIP3    H136004   3.468   3.336   0.436
 4815TIP3    H236005   3.544   3.372   0.310
 4816TIP3   OH236006   3.261   2.905   1.021
 4816TIP3    H136007   3.166   2.900   1.033
 4816TIP3    H236008   3.284   2.823   0.976
 4817TIP3   OH236009   2.525   3.335   0.683
 4817TIP3    H136010   2.547   3.421   0.648
 4817TIP3    H236011   2.445   3.349   0.733
 4818TIP3   OH236012   2.083   2.771   0.184
 4818TIP3    H136013   2.123   2.845   0.231
 4818TIP3    H236014   1.989   2.787   0.191
 4819TIP3   OH236015   2.615   3.096   0.578
 4819TIP3    H136016   2.589   3.181   0.613
 4819TIP3    H236017   2.562   3.033   0.626
 4820TIP3   OH236018   2.719   3.499   1.280
 4820TIP3    H136019   2.776   3.574   1.264
 4820TIP3    H236020   2.768   3.444   1.341
 4821TIP3   OH236021   2.551   3.608   0.578
 4821TIP3    H136022   2.461   3.616   0.608
 4821TIP3    H236023   2.595   3.685   0.615
 4822TIP3   OH236024   3.020   3.100   1.279
 4822TIP3    H136025   2.964   3.083   1.355
 4822TIP3    H236026   3.106   3.069   1.305
 4823TIP3   OH236027   3.242   3.211   0.151
 4823TIP3    H136028   3.296   3.162   0.213
 4823TIP3    H236029   3.154   3.209   0.188
 4824TIP3   OH236030   3.304   3.522   1.459
 4824TIP3    H136031   3.229   3.464   1.450
 4824TIP3    H236032   3.291   3.589   1.392
 4825TIP3   OH236033   3.729   3.636   0.171
 4825TIP3    H136034   3.794   3.704   0.155
 4825TIP3    H236035   3.648   3.683   0.188
 4826TIP3   OH236036   2.114   2.278   1.394
 4826TIP3    H136037   2.024   2.307   1.378
 4826TIP3    H236038   2.106   2.213   1.463
 4827TIP3   OH236039   3.402   3.034   0.321
 4827TIP3    H136040   3.355   2.986   0.389
 4827TIP3    H236041   3.492   3.038   0.352
 4828TIP3   OH236042   2.106   3.458   1.267
 4828TIP3    H136043   2.129   3.380   1.318
 4828TIP3    H236044   2.114   3.530   1.329
 4829TIP3   OH236045   2.538   3.298   0.242
 4829TIP3    H136046   2.581   3.248   0.311
 4829TIP3    H236047   2.553   3.390   0.267
 4830TIP3   OH236048   2.188   2.990   0.322
 4830TIP3    H136049   2.118   3.036   0.368
 4830TIP3    H236050   2.230   3.057   0.269
 4831TIP3   OH236051   3.078   2.185   1.337
 4831TIP3    H136052   3.076   2.234   1.420
 4831TIP3    H236053   3.021   2.110   1.352
 4832TIP3   OH236054   3.102   2.169   0.487
 4832TIP3    H136055   3.115   2.206   0.400
 4832TIP3    H236056   3.142   2.232   0.547
 4833TIP3   OH236057   2.848   3.442   0.336
 4833TIP3    H136058   2.756   3.467   0.333
 4833TIP3    H236059   2.886   3.478   0.255
 4834TIP3   OH236060   2.767   2.404   0.524
 4834TIP3    H136061   2.841   2.464   0.531
 4834TIP3    H236062   2.757   2.367   0.611
 4835TIP3   OH236063   2.882   2.494   1.428
 4835TIP3    H136064   2.882   2.547   1.508
 4835TIP3    H236065   2.915   2.409   1.456
 4836TIP3   OH236066   2.859   2.073   0.585
 4836TIP3    H136067   2.830   2.142   0.644
 4836TIP3    H236068   2.944   2.104   0.553
 4837TIP3   OH236069   2.599   3.558   0.311
 4837TIP3    H136070   2.603   3.645   0.270
 4837TIP3    H236071   2.568   3.575   0.400
 4838TIP3   OH236072   2.459   2.198   0.302
 4838TIP3    H136073   2.448   2.286   0.339
 4838TIP3    H236074   2.547   2.171   0.328
 4839TIP3   OH236075   3.465   2.200   1.485
 4839TIP3    H136076   3.402   2.263   1.519
 4839TIP3    H236077   3.432   2.177   1.398
 4840TIP3   OH236078   3.323   2.648   0.897
 4840TIP3    H136079   3.234   2.616   0.886
 4840TIP3    H236080   3.363   2.589   0.961
 4841TIP3   OH236081   2.294   3.179   0.156
 4841TIP3    H136082   2.334   3.254   0.201
 4841TIP3    H236083   2.367   3.140   0.107
 4842TIP3   OH236084   2.151   2.517   0.110
 4842TIP3    H136085   2.132   2.606   0.140
 4842TIP3    H236086   2.112   2.512   0.023
 4843TIP3   OH236087   3.455   3.602   1.046
 4843TIP3    H136088   3.443   3.675   0.986
 4843TIP3    H236089   3.548   3.604   1.069
 4844TIP3   OH236090   2.187   1.990   0.947
 4844TIP3    H136091   2.176   1.980   0.852
 4844TIP3    H236092   2.156   1.907   0.983
 4845TIP3   OH236093   2.035   3.390   0.552
 4845TIP3    H136094   2.013   3.420   0.640
 4845TIP3    H236095   2.067   3.468   0.507
 4846TIP3   OH236096   2.039   3.676   1.717
 4846TIP3    H136097   2.106   3.662   1.784
 4846TIP3    H236098   1.988   3.596   1.716
 4847TIP3   OH236099   2.464   3.479   1.864
 4847TIP3    H136100   2.540   3.427   1.889
 4847TIP3    H236101   2.443   3.450   1.775
 4848TIP3   OH236102   2.951   3.548   0.110
 4848TIP3    H136103   2.925   3.498   0.033
 4848TIP3    H236104   3.045   3.561   0.100
 4849TIP3   OH236105   3.104   3.393   1.771
 4849TIP3    H136106   3.051   3.317   1.793
 4849TIP3    H236107   3.164   3.402   1.844
 4850TIP3   OH236108   3.362   3.451   0.063
 4850TIP3    H136109   3.320   3.369   0.088
 4850TIP3    H236110   3.455   3.432   0.066
 4851TIP3   OH236111   1.990   3.031   1.778
 4851TIP3    H136112   1.928   2.969   1.817
 4851TIP3    H236113   1.937   3.082   1.717
 4852TIP3   OH236114   2.498   3.046   0.032
 4852TIP3    H136115   2.526   2.996   0.109
 4852TIP3    H236116   2.490   2.980   8.463
 4853TIP3   OH236117   2.677   3.061   1.755
 4853TIP3    H136118   2.642   3.090   1.670
 4853TIP3    H236119   2.682   2.966   1.747
 4854TIP3   OH236120   3.228   3.065   1.484
 4854TIP3    H136121   3.321   3.086   1.483
 4854TIP3    H236122   3.185   3.149   1.499
 4855TIP3   OH236123   2.047   2.713   1.723
 4855TIP3    H136124   2.096   2.658   1.785
 4855TIP3    H236125   1.956   2.685   1.734
 4856TIP3   OH236126   2.564   2.877   0.242
 4856TIP3    H136127   2.504   2.845   0.309
 4856TIP3    H236128   2.593   2.798   0.196
 4857TIP3   OH236129   2.505   2.656   1.497
 4857TIP3    H136130   2.429   2.714   1.493
 4857TIP3    H236131   2.567   2.695   1.435
 4858TIP3   OH236132   2.671   2.680   0.070
 4858TIP3    H136133   2.677   2.682   8.474
 4858TIP3    H236134   2.761   2.662   0.099
 4859TIP3   OH236135   3.017   2.902   1.846
 4859TIP3    H136136   3.107   2.873   1.860
 4859TIP3    H236137   2.964   2.844   1.902
 4860TIP3   OH236138   3.585   2.995   0.010
 4860TIP3    H136139   3.562   3.032   8.425
 4860TIP3    H236140   3.595   3.071   0.067
 4861TIP3   OH236141   2.550   2.399   1.586
 4861TIP3    H136142   2.561   2.341   1.510
 4861TIP3    H236143   2.539   2.486   1.548
 4862TIP3   OH236144   2.579   2.242   1.347
 4862TIP3    H136145   2.631   2.297   1.288
 4862TIP3    H236146   2.492   2.239   1.307
 4863TIP3   OH236147   2.696   2.775   1.342
 4863TIP3    H136148   2.780   2.806   1.375
 4863TIP3    H236149   2.658   2.851   1.298
 4864TIP3   OH236150   3.139   2.553   1.897
 4864TIP3    H136151   3.148   2.467   1.938
 4864TIP3    H236152   3.216   2.602   1.927
 4865TIP3   OH236153   3.297   2.830   1.627
 4865TIP3    H136154   3.257   2.910   1.594
 4865TIP3    H236155   3.391   2.849   1.628
 4866TIP3   OH236156   2.352   2.452   1.775
 4866TIP3    H136157   2.286   2.388   1.748
 4866TIP3    H236158   2.421   2.444   1.709
 4867TIP3   OH236159   2.634   1.976   1.414
 4867TIP3    H136160   2.615   2.067   1.394
 4867TIP3    H236161   2.562   1.926   1.374
 4868TIP3   OH236162   2.791   2.358   1.730
 4868TIP3    H136163   2.777   2.320   1.817
 4868TIP3    H236164   2.703   2.371   1.695
 4869TIP3   OH236165   3.023   2.287   1.597
 4869TIP3    H136166   2.942   2.310   1.642
 4869TIP3    H236167   3.072   2.235   1.660
 4870TIP3   OH236168   3.169   2.154   1.790
 4870TIP3    H136169   3.165   2.064   1.823
 4870TIP3    H236170   3.162   2.209   1.869
 4871TIP3   OH236171   2.162   2.250   1.742
 4871TIP3    H136172   2.167   2.166   1.695
 4871TIP3    H236173   2.142   2.226   1.832
 4872TIP3   OH236174   2.644   1.914   1.682
 4872TIP3    H136175   2.700   1.836   1.684
 4872TIP3    H236176   2.639   1.938   1.590
 4873TIP3   OH236177   2.695   2.103   1.892
 4873TIP3    H136178   2.674   2.040   1.823
 4873TIP3    H236179   2.617   2.158   1.899
 4874TIP3   OH236180   2.671   3.778   0.151
 4874TIP3    H136181   2.763   3.794   0.174
 4874TIP3    H236182   2.666   3.794   0.057
 4875TIP3   OH236183   1.977   3.226   0.104
 4875TIP3    H136184   2.029   3.303   0.126
 4875TIP3    H236185   2.023   3.188   0.028
 4876TIP3   OH236186   1.870   3.730   0.678
 4876TIP3    H136187   1.820   3.698   0.603
 4876TIP3    H236188   1.903   3.650   0.720
 4877TIP3   OH236189   1.977   3.504   0.816
 4877TIP3    H136190   1.941   3.428   0.863
 4877TIP3    H236191   2.023   3.554   0.882
 4878TIP3   OH236192   3.715   3.620   1.138
 4878TIP3    H136193   3.705   3.595   1.230
 4878TIP3    H236194   3.760   3.705   1.141
 4879TIP3   OH236195   3.675   3.562   1.401
 4879TIP3    H136196   3.617   3.489   1.381
 4879TIP3    H236197   3.715   3.539   1.484
 4880TIP3   OH236198   3.495   3.154   1.861
 4880TIP3    H136199   3.472   3.125   1.949
 4880TIP3    H236200   3.556   3.226   1.875
 4881TIP3   OH236201   3.665   2.993   0.418
 4881TIP3    H136202   3.733   3.060   0.426
 4881TIP3    H236203   3.679   2.935   0.493
 4882TIP3   OH236204   3.722   2.794   0.609
 4882TIP3    H136205   3.637   2.768   0.645
 4882TIP3    H236206   3.776   2.813   0.686
 4883TIP3   OH236207   3.700   3.104   1.134
 4883TIP3    H136208   3.759   3.043   1.092
 4883TIP3    H236209   3.727   3.190   1.102
 4884TIP3   OH236210   3.496   3.367   1.323
 4884TIP3    H136211   3.425   3.411   1.370
 4884TIP3    H236212   3.459   3.350   1.236
 4885TIP3   OH236213   3.700   2.816   0.215
 4885TIP3    H136214   3.650   2.856   0.145
 4885TIP3    H236215   3.688   2.874   0.290
 4886TIP3   OH236216   3.510   2.503   0.085
 4886TIP3    H136217   3.579   2.513   0.021
 4886TIP3    H236218   3.475   2.415   0.070
 4887TIP3   OH236219   3.468   2.685   0.664
 4887TIP3    H136220   3.459   2.596   0.631
 4887TIP3    H236221   3.423   2.685   0.748
 4888TIP3   OH236222   1.953   2.864   1.080
 4888TIP3    H136223   1.966   2.850   0.987
 4888TIP3    H236224   2.035   2.838   1.121
 4889TIP3   OH236225   3.566   2.860   1.634
 4889TIP3    H136226   3.638   2.796   1.632
 4889TIP3    H236227   3.609   2.943   1.653
 4890TIP3   OH236228   3.739   2.639   1.628
 4890TIP3    H136229   3.660   2.592   1.655
 4890TIP3    H236230   3.799   2.628   1.702
 4891TIP3   OH236231   3.410   2.253   0.063
 4891TIP3    H136232   3.482   2.201   0.099
 4891TIP3    H236233   3.335   2.232   0.119
 4892TIP3   OH236234   3.457   2.441   0.498
 4892TIP3    H136235   3.485   2.350   0.499
 4892TIP3    H236236   3.523   2.486   0.446
 4893TIP3   OH236237   3.468   2.459   1.051
 4893TIP3    H136238   3.561   2.475   1.033
 4893TIP3    H236239   3.458   2.481   1.143
 4894TIP3   OH236240   3.506   2.546   1.314
 4894TIP3    H136241   3.426   2.576   1.358
 4894TIP3    H236242   3.558   2.625   1.301
 4895TIP3   OH236243   1.933   2.364   1.638
 4895TIP3    H136244   2.019   2.343   1.675
 4895TIP3    H236245   1.880   2.286   1.658
 4896TIP3   OH236246   3.792   1.974   1.774
 4896TIP3    H136247   3.736   1.933   1.839
 4896TIP3    H236248   3.744   1.965   1.691
 4897TIP3   OH236249   3.523   2.169   0.520
 4897TIP3    H136250   3.527   2.147   0.613
 4897TIP3    H236251   3.456   2.110   0.485
 4898TIP3   OH236252   2.061   2.238   0.973
 4898TIP3    H136253   2.099   2.150   0.978
 4898TIP3    H236254   2.134   2.297   0.994
 4899TIP3   OH236255   1.866   2.519   1.041
 4899TIP3    H136256   1.942   2.526   0.983
 4899TIP3    H236257   1.885   2.579   1.113
 4900TIP3   OH236258   3.656   2.146   0.142
 4900TIP3    H136259   3.706   2.120   0.065
 4900TIP3    H236260   3.712   2.208   0.188
 4901TIP3   OH236261   1.918   2.141   0.432
 4901TIP3    H136262   1.827   2.149   0.461
 4901TIP3    H236263   1.934   2.221   0.382
 4902TIP3   OH236264   3.375   3.672   0.662
 4902TIP3    H136265   3.457   3.672   0.612
 4902TIP3    H236266   3.394   3.729   0.737
 4903TIP3   OH236267   1.910   1.988   1.277
 4903TIP3    H136268   1.847   1.981   1.349
 4903TIP3    H236269   1.881   2.064   1.227
 4904TIP3   OH236270   2.122   3.340   1.678
 4904TIP3    H136271   2.039   3.381   1.656
 4904TIP3    H236272   2.114   3.316   1.770
 4905TIP3   OH236273   2.455   3.467   1.350
 4905TIP3    H136274   2.423   3.553   1.325
 4905TIP3    H236275   2.549   3.470   1.335
 4906TIP3   OH236276   2.912   3.561   1.668
 4906TIP3    H136277   2.965   3.497   1.716
 4906TIP3    H236278   2.974   3.630   1.644
 4907TIP3   OH236279   3.141   3.722   1.606
 4907TIP3    H136280   3.181   3.642   1.573
 4907TIP3    H236281   3.214   3.770   1.647
 4908TIP3   OH236282   3.626   1.969   1.470
 4908TIP3    H136283   3.556   2.033   1.483
 4908TIP3    H236284   3.581   1.884   1.471
 4909TIP3   OH236285   2.141   3.749   1.354
 4909TIP3    H136286   2.064   3.795   1.321
 4909TIP3    H236287   2.158   3.789   1.440
 4910TIP3   OH236288   2.404   3.728   1.276
 4910TIP3    H136289   2.311   3.737   1.300
 4910TIP3    H236290   2.414   3.780   1.197
 4911TIP3   OH236291   2.861   3.729   1.205
 4911TIP3    H136292   2.799   3.771   1.145
 4911TIP3    H236293   2.870   3.791   1.277
 4912TIP3   OH236294   3.089   3.584   1.247
 4912TIP3    H136295   3.009   3.636   1.237
 4912TIP3    H236296   3.160   3.649   1.249
 4913TIP3   OH236297   3.326   3.726   1.257
 4913TIP3    H136298   3.350   3.816   1.238
 4913TIP3    H236299   3.372   3.674   1.191
 4914TIP3   OH236300   2.124   3.608   1.035
 4914TIP3    H136301   2.115   3.565   1.121
 4914TIP3    H236302   2.200   3.567   0.996
 4915TIP3   OH236303   2.335   3.470   0.923
 4915TIP3    H136304   2.322   3.379   0.951
 4915TIP3    H236305   2.419   3.495   0.962
 4916TIP3   OH236306   2.597   3.525   1.029
 4916TIP3    H136307   2.618   3.438   0.996
 4916TIP3    H236308   2.626   3.524   1.120
 4917TIP3   OH236309   2.917   2.102   0.928
 4917TIP3    H136310   2.857   2.031   0.949
 4917TIP3    H236311   2.990   2.059   0.882
 4918TIP3   OH236312   3.418   1.934   0.878
 4918TIP3    H136313   3.484   2.004   0.880
 4918TIP3    H236314   3.334   1.979   0.874
 4919TIP3   OH236315   3.690   2.041   0.847
 4919TIP3    H136316   3.718   1.974   0.785
 4919TIP3    H236317   3.711   2.124   0.804
 4920TIP3   OH236318   2.154   1.951   0.673
 4920TIP3    H136319   2.061   1.932   0.657
 4920TIP3    H236320   2.197   1.866   0.664
 4921TIP3   OH236321   2.007   1.970   0.232
 4921TIP3    H136322   2.089   2.012   0.206
 4921TIP3    H236323   1.979   2.018   0.310
 4922TIP3   OH236324   2.644   1.920   0.695
 4922TIP3    H136325   2.714   1.975   0.659
 4922TIP3    H236326   2.657   1.925   0.790
 4923TIP3   OH236327   3.145   1.989   0.807
 4923TIP3    H136328   3.147   1.975   0.713
 4923TIP3    H236329   3.117   1.905   0.844
 4924TIP3   OH236330   3.319   2.002   0.424
 4924TIP3    H136331   3.242   2.058   0.436
 4924TIP3    H236332   3.284   1.913   0.423
 4925TIP3   OH236333   2.066   3.473   0.179
 4925TIP3    H136334   1.986   3.523   0.164
 4925TIP3    H236335   2.101   3.508   0.260
 4926TIP3   OH236336   2.250   2.075   0.156
 4926TIP3    H136337   2.287   1.993   0.123
 4926TIP3    H236338   2.321   2.116   0.204
 4927TIP3   OH236339   2.731   2.188   0.358
 4927TIP3    H136340   2.764   2.121   0.417
 4927TIP3    H236341   2.743   2.270   0.406
 4928TIP3   OH236342   2.956   3.806   0.200
 4928TIP3    H136343   3.049   3.813   0.179
 4928TIP3    H236344   2.934   3.715   0.180
 4929TIP3   OH236345   3.589   3.654   0.482
 4929TIP3    H136346   3.566   3.565   0.456
 4929TIP3    H236347   3.580   3.706   0.402
 4930TIP3   OH236348   2.156   2.000   1.615
 4930TIP3    H136349   2.095   1.933   1.645
 4930TIP3    H236350   2.240   1.974   1.653
 4931TIP3   OH236351   2.376   1.910   1.746
 4931TIP3    H136352   2.469   1.920   1.725
 4931TIP3    H236353   2.371   1.827   1.795
 4932TIP3   OH236354   2.271   3.705   0.137
 4932TIP3    H136355   2.248   3.692   0.230
 4932TIP3    H236356   2.234   3.628   0.093
 4933TIP3   OH236357   3.193   1.878   1.856
 4933TIP3    H136358   3.146   1.814   1.910
 4933TIP3    H236359   3.280   1.841   1.845
 4934TIP3   OH236360   3.515   3.529   1.648
 4934TIP3    H136361   3.439   3.516   1.592
 4934TIP3    H236362   3.489   3.599   1.708
 4935TIP3   OH236363   4.976   2.920   0.645
 4935TIP3    H136364   4.957   3.013   0.643
 4935TIP3    H236365   4.894   2.878   0.617
 4936TIP3   OH236366   4.841   2.822   1.041
 4936TIP3    H136367   4.864   2.788   1.128
 4936TIP3    H236368   4.789   2.753   1.001
 4937TIP3   OH236369   4.069   2.776   1.194
 4937TIP3    H136370   4.068   2.690   1.236
 4937TIP3    H236371   4.113   2.833   1.257
 4938TIP3   OH236372   5.229   3.136   0.870
 4938TIP3    H136373   5.195   3.060   0.917
 4938TIP3    H236374   5.244   3.201   0.939
 4939TIP3   OH236375   4.205   3.212   0.987
 4939TIP3    H136376   4.167   3.128   0.964
 4939TIP3    H236377   4.254   3.196   1.067
 4940TIP3   OH236378   3.832   2.542   0.538
 4940TIP3    H136379   3.813   2.630   0.571
 4940TIP3    H236380   3.776   2.533   0.461
 4941TIP3   OH236381   3.918   2.808   0.809
 4941TIP3    H136382   3.940   2.720   0.839
 4941TIP3    H236383   3.997   2.860   0.828
 4942TIP3   OH236384   4.942   3.633   0.928
 4942TIP3    H136385   4.952   3.538   0.921
 4942TIP3    H236386   4.888   3.647   1.005
 4943TIP3   OH236387   4.705   3.069   1.078
 4943TIP3    H136388   4.743   2.988   1.044
 4943TIP3    H236389   4.769   3.101   1.142
 4944TIP3   OH236390   5.576   2.237   1.140
 4944TIP3    H136391   5.578   2.310   1.201
 4944TIP3    H236392   5.633   2.264   1.068
 4945TIP3   OH236393   4.996   2.488   1.074
 4945TIP3    H136394   5.015   2.397   1.093
 4945TIP3    H236395   4.989   2.492   0.978
 4946TIP3   OH236396   4.344   2.290   0.811
 4946TIP3    H136397   4.356   2.378   0.773
 4946TIP3    H236398   4.292   2.243   0.746
 4947TIP3   OH236399   5.124   2.325   0.648
 4947TIP3    H136400   5.165   2.293   0.728
 4947TIP3    H236401   5.196   2.367   0.600
 4948TIP3   OH236402   3.977   2.549   0.891
 4948TIP3    H136403   4.043   2.519   0.952
 4948TIP3    H236404   4.005   2.516   0.806
 4949TIP3   OH236405   4.494   2.701   0.829
 4949TIP3    H136406   4.570   2.659   0.869
 4949TIP3    H236407   4.449   2.630   0.783
 4950TIP3   OH236408   5.579   2.371   1.396
 4950TIP3    H136409   5.506   2.428   1.373
 4950TIP3    H236410   5.630   2.420   1.460
 4951TIP3   OH236411   4.195   2.221   1.235
 4951TIP3    H136412   4.177   2.290   1.171
 4951TIP3    H236413   4.125   2.230   1.300
 4952TIP3   OH236414   4.924   3.181   0.560
 4952TIP3    H136415   4.887   3.183   0.472
 4952TIP3    H236416   4.885   3.257   0.604
 4953TIP3   OH236417   4.468   2.990   1.205
 4953TIP3    H136418   4.415   3.059   1.245
 4953TIP3    H236419   4.543   3.036   1.167
 4954TIP3   OH236420   5.227   2.275   0.894
 4954TIP3    H136421   5.157   2.251   0.955
 4954TIP3    H236422   5.281   2.337   0.942
 4955TIP3   OH236423   4.175   2.388   1.013
 4955TIP3    H136424   4.227   2.450   1.065
 4955TIP3    H236425   4.237   2.354   0.949
 4956TIP3   OH236426   4.309   3.193   1.311
 4956TIP3    H136427   4.327   3.287   1.314
 4956TIP3    H236428   4.221   3.184   1.349
 4957TIP3   OH236429   3.877   3.171   0.408
 4957TIP3    H136430   3.873   3.218   0.325
 4957TIP3    H236431   3.901   3.239   0.472
 4958TIP3   OH236432   5.252   3.334   1.072
 4958TIP3    H136433   5.160   3.339   1.098
 4958TIP3    H236434   5.277   3.425   1.055
 4959TIP3   OH236435   5.289   2.124   1.188
 4959TIP3    H136436   5.216   2.157   1.136
 4959TIP3    H236437   5.367   2.157   1.144
 4960TIP3   OH236438   4.566   1.905   0.984
 4960TIP3    H136439   4.542   1.812   0.988
 4960TIP3    H236440   4.491   1.950   1.022
 4961TIP3   OH236441   5.092   3.470   0.675
 4961TIP3    H136442   5.143   3.389   0.667
 4961TIP3    H236443   5.157   3.537   0.695
 4962TIP3   OH236444   5.203   3.221   0.607
 4962TIP3    H136445   5.112   3.198   0.592
 4962TIP3    H236446   5.223   3.186   0.694
 4963TIP3   OH236447   5.389   3.110   1.429
 4963TIP3    H136448   5.382   3.059   1.348
 4963TIP3    H236449   5.380   3.201   1.401
 4964TIP3   OH236450   4.813   2.803   0.439
 4964TIP3    H136451   4.752   2.874   0.417
 4964TIP3    H236452   4.883   2.811   0.374
 4965TIP3   OH236453   4.826   2.642   0.122
 4965TIP3    H136454   4.883   2.689   0.184
 4965TIP3    H236455   4.884   2.578   0.081
 4966TIP3   OH236456   5.538   2.762   1.238
 4966TIP3    H136457   5.467   2.827   1.238
 4966TIP3    H236458   5.609   2.805   1.190
 4967TIP3   OH236459   5.188   2.841   0.498
 4967TIP3    H136460   5.122   2.872   0.559
 4967TIP3    H236461   5.252   2.796   0.553
 4968TIP3   OH236462   5.138   2.633   1.424
 4968TIP3    H136463   5.153   2.701   1.489
 4968TIP3    H236464   5.065   2.666   1.371
 4969TIP3   OH236465   4.348   2.898   0.702
 4969TIP3    H136466   4.324   2.859   0.619
 4969TIP3    H236467   4.405   2.834   0.744
 4970TIP3   OH236468   4.529   3.267   0.972
 4970TIP3    H136469   4.518   3.251   0.879
 4970TIP3    H236470   4.592   3.201   1.001
 4971TIP3   OH236471   4.352   2.795   1.051
 4971TIP3    H136472   4.415   2.777   0.981
 4971TIP3    H236473   4.394   2.863   1.104
 4972TIP3   OH236474   4.995   3.346   1.166
 4972TIP3    H136475   4.945   3.409   1.218
 4972TIP3    H236476   4.965   3.261   1.197
 4973TIP3   OH236477   4.489   3.191   1.541
 4973TIP3    H136478   4.441   3.256   1.591
 4973TIP3    H236479   4.431   3.169   1.468
 4974TIP3   OH236480   5.043   2.765   0.279
 4974TIP3    H136481   5.091   2.794   0.356
 4974TIP3    H236482   5.092   2.801   0.205
 4975TIP3   OH236483   4.141   2.819   1.472
 4975TIP3    H136484   4.157   2.885   1.540
 4975TIP3    H236485   4.046   2.814   1.465
 4976TIP3   OH236486   4.827   3.430   0.631
 4976TIP3    H136487   4.915   3.452   0.661
 4976TIP3    H236488   4.793   3.511   0.592
 4977TIP3   OH236489   4.311   3.382   1.623
 4977TIP3    H136490   4.301   3.428   1.539
 4977TIP3    H236491   4.222   3.373   1.657
 4978TIP3   OH236492   5.393   1.935   0.218
 4978TIP3    H136493   5.317   1.950   0.275
 4978TIP3    H236494   5.439   2.019   0.217
 4979TIP3   OH236495   4.252   2.811   0.443
 4979TIP3    H136496   4.195   2.882   0.414
 4979TIP3    H236497   4.192   2.739   0.464
 4980TIP3   OH236498   5.532   3.378   0.136
 4980TIP3    H136499   5.557   3.470   0.141
 4980TIP3    H236500   5.614   3.330   0.128
 4981TIP3   OH236501   3.833   3.064   1.385
 4981TIP3    H136502   3.778   3.072   1.307
 4981TIP3    H236503   3.845   2.970   1.396
 4982TIP3   OH236504   3.806   3.361   1.065
 4982TIP3    H136505   3.882   3.367   1.123
 4982TIP3    H236506   3.755   3.440   1.084
 4983TIP3   OH236507   5.638   3.395   1.675
 4983TIP3    H136508   5.618   3.302   1.659
 4983TIP3    H236509   5.605   3.411   1.763
 4984TIP3   OH236510   4.802   3.686   0.494
 4984TIP3    H136511   4.778   3.710   0.405
 4984TIP3    H236512   4.778   3.763   0.546
 4985TIP3   OH236513   4.141   3.577   0.675
 4985TIP3    H136514   4.167   3.546   0.762
 4985TIP3    H236515   4.088   3.506   0.639
 4986TIP3   OH236516   5.094   3.629   0.154
 4986TIP3    H136517   5.166   3.571   0.132
 4986TIP3    H236518   5.094   3.633   0.249
 4987TIP3   OH236519   5.065   3.628   0.434
 4987TIP3    H136520   4.973   3.642   0.455
 4987TIP3    H236521   5.100   3.576   0.506
 4988TIP3   OH236522   5.339   2.543   1.676
 4988TIP3    H136523   5.290   2.624   1.661
 4988TIP3    H236524   5.283   2.474   1.638
 4989TIP3   OH236525   4.055   3.227   1.421
 4989TIP3    H136526   4.061   3.247   1.514
 4989TIP3    H236527   3.980   3.168   1.413
 4990TIP3   OH236528   4.320   2.027   1.072
 4990TIP3    H136529   4.284   2.054   0.987
 4990TIP3    H236530   4.286   2.091   1.134
 4991TIP3   OH236531   4.807   1.986   1.424
 4991TIP3    H136532   4.853   1.933   1.489
 4991TIP3    H236533   4.715   1.985   1.452
 4992TIP3   OH236534   5.119   2.380   1.534
 4992TIP3    H136535   5.039   2.367   1.584
 4992TIP3    H236536   5.109   2.466   1.494
 4993TIP3   OH236537   5.212   2.882   0.095
 4993TIP3    H136538   5.291   2.881   0.041
 4993TIP3    H236539   5.234   2.940   0.168
 4994TIP3   OH236540   4.773   2.192   0.103
 4994TIP3    H136541   4.712   2.212   0.174
 4994TIP3    H236542   4.795   2.100   0.117
 4995TIP3   OH236543   4.323   2.550   1.174
 4995TIP3    H136544   4.264   2.557   1.249
 4995TIP3    H236545   4.330   2.640   1.140
 4996TIP3   OH236546   4.333   2.529   0.676
 4996TIP3    H136547   4.238   2.522   0.676
 4996TIP3    H236548   4.359   2.510   0.586
 4997TIP3   OH236549   4.874   2.559   0.546
 4997TIP3    H136550   4.849   2.646   0.515
 4997TIP3    H236551   4.943   2.532   0.486
 4998TIP3   OH236552   4.776   2.607   1.653
 4998TIP3    H136553   4.740   2.543   1.715
 4998TIP3    H236554   4.814   2.675   1.709
 4999TIP3   OH236555   4.974   2.503   0.803
 4999TIP3    H136556   4.923   2.548   0.735
 4999TIP3    H236557   5.018   2.432   0.756
 5000TIP3   OH236558   4.104   2.544   1.346
 5000TIP3    H136559   4.122   2.592   1.427
 5000TIP3    H236560   4.059   2.465   1.375
 5001TIP3   OH236561   4.427   2.305   0.071
 5001TIP3    H136562   4.415   2.258   0.153
 5001TIP3    H236563   4.401   2.395   0.090
 5002TIP3   OH236564   3.780   2.276   0.739
 5002TIP3    H136565   3.836   2.285   0.816
 5002TIP3    H236566   3.798   2.353   0.686
 5003TIP3   OH236567   3.822   2.343   0.256
 5003TIP3    H136568   3.895   2.381   0.208
 5003TIP3    H236569   3.766   2.418   0.278
 5004TIP3   OH236570   4.914   2.668   1.260
 5004TIP3    H136571   4.949   2.607   1.196
 5004TIP3    H236572   4.851   2.617   1.312
 5005TIP3   OH236573   4.632   2.252   0.757
 5005TIP3    H136574   4.545   2.258   0.797
 5005TIP3    H236575   4.689   2.222   0.828
 5006TIP3   OH236576   4.070   2.449   0.649
 5006TIP3    H136577   3.994   2.474   0.595
 5006TIP3    H236578   4.090   2.360   0.623
 5007TIP3   OH236579   4.396   2.453   0.418
 5007TIP3    H136580   4.489   2.453   0.437
 5007TIP3    H236581   4.388   2.500   0.335
 5008TIP3   OH236582   5.032   2.209   1.079
 5008TIP3    H136583   5.004   2.206   1.171
 5008TIP3    H236584   4.958   2.173   1.031
 5009TIP3   OH236585   4.336   2.553   0.163
 5009TIP3    H136586   4.243   2.564   0.143
 5009TIP3    H236587   4.380   2.616   0.108
 5010TIP3   OH236588   5.358   3.695   1.709
 5010TIP3    H136589   5.364   3.740   1.625
 5010TIP3    H236590   5.424   3.737   1.764
 5011TIP3   OH236591   4.144   2.999   1.678
 5011TIP3    H136592   4.213   3.011   1.743
 5011TIP3    H236593   4.063   3.013   1.725
 5012TIP3   OH236594   4.701   2.574   0.964
 5012TIP3    H136595   4.782   2.526   0.944
 5012TIP3    H236596   4.665   2.530   1.041
 5013TIP3   OH236597   4.179   2.186   0.608
 5013TIP3    H136598   4.129   2.109   0.635
 5013TIP3    H236599   4.217   2.161   0.524
 5014TIP3   OH236600   4.586   2.449   1.191
 5014TIP3    H136601   4.505   2.501   1.196
 5014TIP3    H236602   4.638   2.480   1.265
 5015TIP3   OH236603   4.650   3.011   0.359
 5015TIP3    H136604   4.576   2.972   0.313
 5015TIP3    H236605   4.612   3.048   0.439
 5016TIP3   OH236606   5.353   2.964   1.197
 5016TIP3    H136607   5.412   3.023   1.150
 5016TIP3    H236608   5.278   2.954   1.138
 5017TIP3   OH236609   5.034   2.260   0.224
 5017TIP3    H136610   4.958   2.264   0.165
 5017TIP3    H236611   5.047   2.351   0.252
 5018TIP3   OH236612   4.757   3.121   1.505
 5018TIP3    H136613   4.764   3.077   1.589
 5018TIP3    H236614   4.669   3.159   1.504
 5019TIP3   OH236615   5.083   2.499   0.361
 5019TIP3    H136616   5.168   2.488   0.403
 5019TIP3    H236617   5.084   2.588   0.326
 5020TIP3   OH236618   4.152   2.927   0.903
 5020TIP3    H136619   4.219   2.933   0.835
 5020TIP3    H236620   4.194   2.878   0.974
 5021TIP3   OH236621   4.861   3.141   0.231
 5021TIP3    H136622   4.826   3.227   0.254
 5021TIP3    H236623   4.799   3.079   0.270
 5022TIP3   OH236624   3.864   2.788   1.436
 5022TIP3    H136625   3.833   2.742   1.514
 5022TIP3    H236626   3.799   2.766   1.368
 5023TIP3   OH236627   4.565   2.784   1.619
 5023TIP3    H136628   4.486   2.732   1.605
 5023TIP3    H236629   4.635   2.720   1.632
 5024TIP3   OH236630   5.074   3.283   1.493
 5024TIP3    H136631   4.978   3.282   1.495
 5024TIP3    H236632   5.099   3.348   1.558
 5025TIP3   OH236633   5.518   2.558   0.319
 5025TIP3    H136634   5.456   2.541   0.248
 5025TIP3    H236635   5.548   2.647   0.304
 5026TIP3   OH236636   5.597   3.120   1.608
 5026TIP3    H136637   5.510   3.127   1.567
 5026TIP3    H236638   5.657   3.108   1.535
 5027TIP3   OH236639   5.408   3.403   0.402
 5027TIP3    H136640   5.354   3.337   0.447
 5027TIP3    H236641   5.429   3.363   0.317
 5028TIP3   OH236642   5.142   2.906   1.013
 5028TIP3    H136643   5.047   2.898   1.021
 5028TIP3    H236644   5.168   2.824   0.971
 5029TIP3   OH236645   4.415   3.325   0.698
 5029TIP3    H136646   4.430   3.411   0.658
 5029TIP3    H236647   4.341   3.339   0.757
 5030TIP3   OH236648   3.976   2.784   0.181
 5030TIP3    H136649   4.015   2.855   0.232
 5030TIP3    H236650   3.882   2.797   0.190
 5031TIP3   OH236651   4.501   3.095   0.572
 5031TIP3    H136652   4.482   3.180   0.610
 5031TIP3    H236653   4.451   3.033   0.625
 5032TIP3   OH236654   4.612   3.536   1.285
 5032TIP3    H136655   4.682   3.582   1.237
 5032TIP3    H236656   4.633   3.551   1.377
 5033TIP3   OH236657   4.403   3.590   0.587
 5033TIP3    H136658   4.311   3.599   0.612
 5033TIP3    H236659   4.446   3.666   0.625
 5034TIP3   OH236660   4.902   3.105   1.275
 5034TIP3    H136661   4.847   3.109   1.353
 5034TIP3    H236662   4.977   3.050   1.301
 5035TIP3   OH236663   5.139   3.196   0.151
 5035TIP3    H136664   5.191   3.151   0.217
 5035TIP3    H236665   5.048   3.185   0.181
 5036TIP3   OH236666   5.616   3.645   0.168
 5036TIP3    H136667   5.677   3.719   0.171
 5036TIP3    H236668   5.530   3.685   0.184
 5037TIP3   OH236669   3.973   2.301   1.413
 5037TIP3    H136670   3.881   2.329   1.412
 5037TIP3    H236671   3.991   2.284   1.505
 5038TIP3   OH236672   5.294   3.026   0.317
 5038TIP3    H136673   5.246   2.982   0.387
 5038TIP3    H236674   5.384   3.031   0.348
 5039TIP3   OH236675   3.997   3.454   1.256
 5039TIP3    H136676   4.023   3.378   1.308
 5039TIP3    H236677   3.997   3.526   1.318
 5040TIP3   OH236678   4.429   3.273   0.254
 5040TIP3    H136679   4.491   3.220   0.305
 5040TIP3    H236680   4.449   3.364   0.278
 5041TIP3   OH236681   4.078   2.996   0.330
 5041TIP3    H136682   4.006   3.038   0.378
 5041TIP3    H236683   4.120   3.068   0.283
 5042TIP3   OH236684   4.952   2.207   1.339
 5042TIP3    H136685   4.989   2.244   1.419
 5042TIP3    H236686   4.898   2.134   1.369
 5043TIP3   OH236687   4.983   2.160   0.477
 5043TIP3    H136688   4.996   2.200   0.391
 5043TIP3    H236689   5.024   2.220   0.539
 5044TIP3   OH236690   4.736   3.368   0.300
 5044TIP3    H136691   4.663   3.416   0.340
 5044TIP3    H236692   4.774   3.431   0.238
 5045TIP3   OH236693   4.649   2.404   0.522
 5045TIP3    H136694   4.725   2.461   0.531
 5045TIP3    H236695   4.640   2.362   0.608
 5046TIP3   OH236696   4.763   2.488   1.407
 5046TIP3    H136697   4.763   2.532   1.492
 5046TIP3    H236698   4.792   2.399   1.426
 5047TIP3   OH236699   4.740   2.068   0.576
 5047TIP3    H136700   4.714   2.135   0.638
 5047TIP3    H236701   4.829   2.093   0.549
 5048TIP3   OH236702   4.505   3.520   0.343
 5048TIP3    H136703   4.499   3.600   0.292
 5048TIP3    H236704   4.471   3.544   0.430
 5049TIP3   OH236705   4.343   2.199   0.320
 5049TIP3    H136706   4.340   2.286   0.362
 5049TIP3    H236707   4.433   2.169   0.335
 5050TIP3   OH236708   5.318   2.214   1.446
 5050TIP3    H136709   5.251   2.272   1.482
 5050TIP3    H236710   5.286   2.191   1.360
 5051TIP3   OH236711   5.211   2.652   0.896
 5051TIP3    H136712   5.125   2.611   0.882
 5051TIP3    H236713   5.255   2.593   0.956
 5052TIP3   OH236714   4.169   3.211   0.176
 5052TIP3    H136715   4.234   3.261   0.225
 5052TIP3    H236716   4.221   3.156   0.117
 5053TIP3   OH236717   3.974   2.524   0.098
 5053TIP3    H136718   3.984   2.614   0.128
 5053TIP3    H236719   3.906   2.528   0.030
 5054TIP3   OH236720   5.340   3.597   1.060
 5054TIP3    H136721   5.329   3.670   0.999
 5054TIP3    H236722   5.431   3.603   1.089
 5055TIP3   OH236723   3.988   1.969   0.959
 5055TIP3    H136724   4.012   1.960   0.866
 5055TIP3    H236725   4.011   1.885   0.998
 5056TIP3   OH236726   3.943   3.391   0.570
 5056TIP3    H136727   3.899   3.423   0.649
 5056TIP3    H236728   3.926   3.459   0.505
 5057TIP3   OH236729   3.894   3.682   1.712
 5057TIP3    H136730   3.961   3.666   1.779
 5057TIP3    H236731   3.857   3.595   1.695
 5058TIP3   OH236732   4.352   3.574   1.939
 5058TIP3    H136733   4.433   3.593   1.987
 5058TIP3    H236734   4.369   3.489   1.897
 5059TIP3   OH236735   4.852   3.521   0.104
 5059TIP3    H136736   4.836   3.518   0.009
 5059TIP3    H236737   4.943   3.550   0.112
 5060TIP3   OH236738   5.264   3.435   0.062
 5060TIP3    H136739   5.220   3.355   0.092
 5060TIP3    H236740   5.357   3.417   0.073
 5061TIP3   OH236741   3.900   3.017   1.813
 5061TIP3    H136742   3.866   2.953   1.876
 5061TIP3    H236743   3.823   3.047   1.766
 5062TIP3   OH236744   4.333   3.034   0.050
 5062TIP3    H136745   4.371   2.992   0.127
 5062TIP3    H236746   4.361   2.979   8.476
 5063TIP3   OH236747   4.608   3.026   1.739
 5063TIP3    H136748   4.561   3.089   1.684
 5063TIP3    H236749   4.584   2.941   1.703
 5064TIP3   OH236750   5.137   3.015   1.491
 5064TIP3    H136751   5.229   3.035   1.474
 5064TIP3    H236752   5.096   3.100   1.504
 5065TIP3   OH236753   3.940   2.625   1.815
 5065TIP3    H136754   4.035   2.625   1.807
 5065TIP3    H236755   3.921   2.695   1.878
 5066TIP3   OH236756   4.440   2.870   0.245
 5066TIP3    H136757   4.383   2.845   0.317
 5066TIP3    H236758   4.478   2.787   0.215
 5067TIP3   OH236759   4.364   2.650   1.469
 5067TIP3    H136760   4.295   2.716   1.475
 5067TIP3    H236761   4.428   2.687   1.408
 5068TIP3   OH236762   4.561   2.681   0.040
 5068TIP3    H136763   4.561   2.606   8.480
 5068TIP3    H236764   4.650   2.681   0.077
 5069TIP3   OH236765   4.860   2.815   1.809
 5069TIP3    H136766   4.948   2.838   1.838
 5069TIP3    H236767   4.808   2.894   1.822
 5070TIP3   OH236768   5.471   2.979   0.001
 5070TIP3    H136769   5.439   3.009   8.416
 5070TIP3    H236770   5.478   3.059   0.054
 5071TIP3   OH236771   4.440   2.414   1.587
 5071TIP3    H136772   4.444   2.346   1.520
 5071TIP3    H236773   4.413   2.493   1.539
 5072TIP3   OH236774   4.453   2.240   1.345
 5072TIP3    H136775   4.504   2.297   1.286
 5072TIP3    H236776   4.365   2.241   1.308
 5073TIP3   OH236777   4.565   2.755   1.314
 5073TIP3    H136778   4.630   2.781   1.379
 5073TIP3    H236779   4.535   2.838   1.277
 5074TIP3   OH236780   5.221   2.797   1.633
 5074TIP3    H136781   5.176   2.873   1.595
 5074TIP3    H236782   5.311   2.827   1.647
 5075TIP3   OH236783   4.230   2.514   1.768
 5075TIP3    H136784   4.179   2.433   1.766
 5075TIP3    H236785   4.310   2.493   1.720
 5076TIP3   OH236786   4.518   1.970   1.399
 5076TIP3    H136787   4.495   2.062   1.384
 5076TIP3    H236788   4.444   1.921   1.363
 5077TIP3   OH236789   4.653   2.389   1.765
 5077TIP3    H136790   4.644   2.303   1.807
 5077TIP3    H236791   4.572   2.400   1.716
 5078TIP3   OH236792   4.882   2.289   1.645
 5078TIP3    H136793   4.805   2.334   1.680
 5078TIP3    H236794   4.881   2.203   1.688
 5079TIP3   OH236795   4.115   2.260   1.740
 5079TIP3    H136796   4.101   2.183   1.685
 5079TIP3    H236797   4.170   2.230   1.812
 5080TIP3   OH236798   4.599   1.928   1.660
 5080TIP3    H136799   4.602   1.834   1.677
 5080TIP3    H236800   4.553   1.935   1.576
 5081TIP3   OH236801   4.647   2.128   1.843
 5081TIP3    H136802   4.629   2.057   1.782
 5081TIP3    H236803   4.588   2.112   1.917
 5082TIP3   OH236804   4.518   3.730   0.163
 5082TIP3    H136805   4.609   3.750   0.185
 5082TIP3    H236806   4.479   3.814   0.141
 5083TIP3   OH236807   3.897   3.246   0.125
 5083TIP3    H136808   3.990   3.245   0.148
 5083TIP3    H236809   3.896   3.242   0.029
 5084TIP3   OH236810   3.787   3.721   0.661
 5084TIP3    H136811   3.725   3.692   0.594
 5084TIP3    H236812   3.802   3.644   0.715
 5085TIP3   OH236813   3.856   3.502   0.818
 5085TIP3    H136814   3.819   3.432   0.871
 5085TIP3    H236815   3.909   3.554   0.878
 5086TIP3   OH236816   5.597   3.610   1.168
 5086TIP3    H136817   5.588   3.581   1.259
 5086TIP3    H236818   5.630   3.700   1.176
 5087TIP3   OH236819   5.560   3.529   1.433
 5087TIP3    H136820   5.487   3.474   1.407
 5087TIP3    H236821   5.592   3.489   1.514
 5088TIP3   OH236822   5.403   3.183   1.891
 5088TIP3    H136823   5.313   3.194   1.923
 5088TIP3    H236824   5.455   3.243   1.945
 5089TIP3   OH236825   5.556   2.990   0.413
 5089TIP3    H136826   5.624   3.056   0.422
 5089TIP3    H236827   5.566   2.934   0.490
 5090TIP3   OH236828   5.606   2.801   0.614
 5090TIP3    H136829   5.522   2.768   0.646
 5090TIP3    H236830   5.658   2.817   0.692
 5091TIP3   OH236831   5.584   3.105   1.132
 5091TIP3    H136832   5.644   3.042   1.093
 5091TIP3    H236833   5.613   3.190   1.099
 5092TIP3   OH236834   5.350   3.368   1.337
 5092TIP3    H136835   5.265   3.385   1.377
 5092TIP3    H236836   5.331   3.355   1.244
 5093TIP3   OH236837   5.592   2.808   0.213
 5093TIP3    H136838   5.543   2.847   0.141
 5093TIP3    H236839   5.581   2.869   0.286
 5094TIP3   OH236840   5.373   2.517   0.088
 5094TIP3    H136841   5.446   2.531   0.027
 5094TIP3    H236842   5.349   2.426   0.076
 5095TIP3   OH236843   5.353   2.681   0.661
 5095TIP3    H136844   5.345   2.590   0.633
 5095TIP3    H236845   5.310   2.684   0.746
 5096TIP3   OH236846   3.849   2.877   1.069
 5096TIP3    H136847   3.864   2.865   0.975
 5096TIP3    H236848   3.932   2.852   1.109
 5097TIP3   OH236849   5.484   2.866   1.667
 5097TIP3    H136850   5.541   2.799   1.627
 5097TIP3    H236851   5.529   2.949   1.649
 5098TIP3   OH236852   5.595   2.611   1.585
 5098TIP3    H136853   5.515   2.579   1.627
 5098TIP3    H236854   5.663   2.602   1.652
 5099TIP3   OH236855   5.315   2.257   0.061
 5099TIP3    H136856   5.393   2.204   0.081
 5099TIP3    H236857   5.243   2.209   0.102
 5100TIP3   OH236858   5.334   2.431   0.493
 5100TIP3    H136859   5.363   2.340   0.494
 5100TIP3    H236860   5.401   2.478   0.444
 5101TIP3   OH236861   5.359   2.464   1.046
 5101TIP3    H136862   5.452   2.475   1.029
 5101TIP3    H236863   5.348   2.483   1.139
 5102TIP3   OH236864   5.379   2.544   1.310
 5102TIP3    H136865   5.299   2.575   1.351
 5102TIP3    H236866   5.432   2.623   1.299
 5103TIP3   OH236867   5.688   1.965   1.846
 5103TIP3    H136868   5.725   1.889   1.802
 5103TIP3    H236869   5.760   2.002   1.897
 5104TIP3   OH236870   5.404   2.159   0.498
 5104TIP3    H136871   5.421   2.125   0.585
 5104TIP3    H236872   5.336   2.102   0.463
 5105TIP3   OH236873   3.938   2.237   0.970
 5105TIP3    H136874   3.982   2.153   0.961
 5105TIP3    H236875   4.007   2.299   0.993
 5106TIP3   OH236876   3.743   2.508   1.051
 5106TIP3    H136877   3.818   2.527   0.994
 5106TIP3    H236878   3.740   2.582   1.111
 5107TIP3   OH236879   5.554   2.149   1.690
 5107TIP3    H136880   5.488   2.184   1.750
 5107TIP3    H236881   5.601   2.083   1.742
 5108TIP3   OH236882   5.557   2.149   0.153
 5108TIP3    H136883   5.625   2.082   0.164
 5108TIP3    H236884   5.597   2.229   0.188
 5109TIP3   OH236885   3.795   2.118   0.418
 5109TIP3    H136886   3.712   2.133   0.464
 5109TIP3    H236887   3.815   2.202   0.378
 5110TIP3   OH236888   5.274   3.669   0.668
 5110TIP3    H136889   5.354   3.675   0.615
 5110TIP3    H236890   5.294   3.717   0.748
 5111TIP3   OH236891   3.822   2.044   1.298
 5111TIP3    H136892   3.756   2.005   1.356
 5111TIP3    H236893   3.828   2.135   1.326
 5112TIP3   OH236894   4.036   3.345   1.678
 5112TIP3    H136895   3.951   3.384   1.656
 5112TIP3    H236896   4.028   3.320   1.770
 5113TIP3   OH236897   4.351   3.464   1.345
 5113TIP3    H136898   4.314   3.550   1.324
 5113TIP3    H236899   4.446   3.475   1.332
 5114TIP3   OH236900   5.446   1.923   1.465
 5114TIP3    H136901   5.364   1.907   1.420
 5114TIP3    H236902   5.496   1.842   1.454
 5115TIP3   OH236903   4.034   3.759   1.359
 5115TIP3    H136904   3.955   3.795   1.318
 5115TIP3    H236905   4.038   3.802   1.444
 5116TIP3   OH236906   4.295   3.728   1.279
 5116TIP3    H136907   4.204   3.739   1.308
 5116TIP3    H236908   4.301   3.779   1.199
 5117TIP3   OH236909   4.776   3.707   1.137
 5117TIP3    H136910   4.703   3.752   1.095
 5117TIP3    H236911   4.797   3.762   1.213
 5118TIP3   OH236912   5.282   3.750   1.295
 5118TIP3    H136913   5.278   3.838   1.258
 5118TIP3    H236914   5.278   3.692   1.220
 5119TIP3   OH236915   4.020   3.613   1.017
 5119TIP3    H136916   3.999   3.575   1.102
 5119TIP3    H236917   4.100   3.568   0.989
 5120TIP3   OH236918   4.236   3.474   0.912
 5120TIP3    H136919   4.220   3.384   0.943
 5120TIP3    H236920   4.316   3.500   0.957
 5121TIP3   OH236921   4.481   3.530   1.036
 5121TIP3    H136922   4.505   3.440   1.010
 5121TIP3    H236923   4.509   3.536   1.127
 5122TIP3   OH236924   4.808   2.097   0.915
 5122TIP3    H136925   4.751   2.026   0.943
 5122TIP3    H236926   4.882   2.054   0.872
 5123TIP3   OH236927   5.305   1.939   0.908
 5123TIP3    H136928   5.367   1.996   0.862
 5123TIP3    H236929   5.221   1.984   0.900
 5124TIP3   OH236930   5.488   2.050   0.736
 5124TIP3    H136931   5.550   1.981   0.712
 5124TIP3    H236932   5.543   2.127   0.753
 5125TIP3   OH236933   4.047   1.950   0.684
 5125TIP3    H136934   3.955   1.935   0.659
 5125TIP3    H236935   4.089   1.865   0.670
 5126TIP3   OH236936   3.918   1.943   0.242
 5126TIP3    H136937   3.992   1.999   0.218
 5126TIP3    H236938   3.869   1.995   0.306
 5127TIP3   OH236939   4.524   1.924   0.701
 5127TIP3    H136940   4.595   1.974   0.660
 5127TIP3    H236941   4.546   1.923   0.794
 5128TIP3   OH236942   5.030   1.963   0.813
 5128TIP3    H136943   5.078   1.933   0.736
 5128TIP3    H236944   5.005   1.883   0.860
 5129TIP3   OH236945   5.197   1.991   0.408
 5129TIP3    H136946   5.122   2.047   0.429
 5129TIP3    H236947   5.168   1.903   0.428
 5130TIP3   OH236948   3.908   3.579   0.376
 5130TIP3    H136949   3.841   3.579   0.308
 5130TIP3    H236950   3.932   3.672   0.386
 5131TIP3   OH236951   4.139   2.083   0.163
 5131TIP3    H136952   4.189   2.063   0.084
 5131TIP3    H236953   4.202   2.126   0.221
 5132TIP3   OH236954   4.623   2.192   0.349
 5132TIP3    H136955   4.658   2.125   0.407
 5132TIP3    H236956   4.634   2.274   0.397
 5133TIP3   OH236957   4.784   3.760   0.225
 5133TIP3    H136958   4.851   3.823   0.199
 5133TIP3    H236959   4.811   3.677   0.184
 5134TIP3   OH236960   5.486   3.653   0.479
 5134TIP3    H136961   5.460   3.563   0.457
 5134TIP3    H236962   5.458   3.705   0.403
 5135TIP3   OH236963   4.083   1.997   1.653
 5135TIP3    H136964   4.012   1.978   1.714
 5135TIP3    H236965   4.163   1.984   1.704
 5136TIP3   OH236966   4.127   3.625   0.008
 5136TIP3    H136967   4.077   3.705   0.025
 5136TIP3    H236968   4.142   3.587   0.094
 5137TIP3   OH236969   6.839   2.880   0.651
 5137TIP3    H136970   6.839   2.974   0.672
 5137TIP3    H236971   6.773   2.871   0.583
 5138TIP3   OH236972   6.701   2.822   1.044
 5138TIP3    H136973   6.721   2.785   1.130
 5138TIP3    H236974   6.653   2.753   0.999
 5139TIP3   OH236975   5.951   2.768   1.214
 5139TIP3    H136976   5.949   2.680   1.252
 5139TIP3    H236977   6.002   2.820   1.276
 5140TIP3   OH236978   7.093   3.079   0.854
 5140TIP3    H136979   7.049   3.014   0.908
 5140TIP3    H236980   7.103   3.155   0.911
 5141TIP3   OH236981   6.135   3.194   1.008
 5141TIP3    H136982   6.084   3.118   0.979
 5141TIP3    H236983   6.135   3.187   1.104
 5142TIP3   OH236984   5.737   2.570   0.516
 5142TIP3    H136985   5.714   2.653   0.557
 5142TIP3    H236986   5.658   2.545   0.468
 5143TIP3   OH236987   5.801   2.813   0.818
 5143TIP3    H136988   5.825   2.723   0.842
 5143TIP3    H236989   5.880   2.864   0.836
 5144TIP3   OH236990   6.862   3.596   0.975
 5144TIP3    H136991   6.870   3.531   0.906
 5144TIP3    H236992   6.769   3.593   1.000
 5145TIP3   OH236993   6.581   3.074   1.083
 5145TIP3    H136994   6.613   2.989   1.050
 5145TIP3    H236995   6.649   3.103   1.144
 5146TIP3   OH236996   6.899   2.488   1.084
 5146TIP3    H136997   6.895   2.397   1.113
 5146TIP3    H236998   6.856   2.488   0.999
 5147TIP3   OH236999   6.225   2.312   0.815
 5147TIP3    H137000   6.229   2.396   0.771
 5147TIP3    H237001   6.170   2.258   0.758
 5148TIP3   OH237002   7.015   2.334   0.690
 5148TIP3    H137003   7.026   2.298   0.778
 5148TIP3    H237004   7.054   2.268   0.632
 5149TIP3   OH237005   5.867   2.556   0.892
 5149TIP3    H137006   5.929   2.515   0.953
 5149TIP3    H237007   5.887   2.516   0.808
 5150TIP3   OH237008   6.371   2.702   0.831
 5150TIP3    H137009   6.447   2.658   0.870
 5150TIP3    H237010   6.327   2.633   0.781
 5151TIP3   OH237011   6.099   2.215   1.233
 5151TIP3    H137012   6.067   2.280   1.172
 5151TIP3    H237013   6.039   2.219   1.307
 5152TIP3   OH237014   6.823   3.158   0.554
 5152TIP3    H137015   6.811   3.156   0.459
 5152TIP3    H237016   6.763   3.227   0.584
 5153TIP3   OH237017   6.356   2.986   1.217
 5153TIP3    H137018   6.299   3.057   1.248
 5153TIP3    H237019   6.431   3.031   1.179
 5154TIP3   OH237020   7.068   2.196   0.920
 5154TIP3    H137021   6.988   2.193   0.973
 5154TIP3    H237022   7.129   2.249   0.972
 5155TIP3   OH237023   6.056   2.390   1.020
 5155TIP3    H137024   6.108   2.451   1.073
 5155TIP3    H237025   6.118   2.355   0.956
 5156TIP3   OH237026   6.182   3.196   1.290
 5156TIP3    H137027   6.197   3.290   1.298
 5156TIP3    H237028   6.101   3.181   1.339
 5157TIP3   OH237029   5.771   3.169   0.401
 5157TIP3    H137030   5.757   3.222   0.322
 5157TIP3    H237031   5.793   3.233   0.469
 5158TIP3   OH237032   7.096   3.296   1.014
 5158TIP3    H137033   7.030   3.306   1.082
 5158TIP3    H237034   7.152   3.374   1.023
 5159TIP3   OH237035   7.145   2.120   1.221
 5159TIP3    H137036   7.147   2.155   1.310
 5159TIP3    H237037   7.173   2.193   1.166
 5160TIP3   OH237038   6.440   1.910   0.968
 5160TIP3    H137039   6.421   1.817   0.975
 5160TIP3    H237040   6.362   1.953   1.002
 5161TIP3   OH237041   6.919   3.442   0.750
 5161TIP3    H137042   6.965   3.361   0.728
 5161TIP3    H237043   6.986   3.510   0.745
 5162TIP3   OH237044   7.078   3.244   0.638
 5162TIP3    H137045   7.004   3.201   0.594
 5162TIP3    H237046   7.103   3.182   0.707
 5163TIP3   OH237047   7.199   3.167   1.454
 5163TIP3    H137048   7.265   3.108   1.419
 5163TIP3    H237049   7.235   3.197   1.538
 5164TIP3   OH237050   6.704   2.831   0.414
 5164TIP3    H137051   6.639   2.897   0.391
 5164TIP3    H237052   6.770   2.837   0.344
 5165TIP3   OH237053   6.726   2.643   0.124
 5165TIP3    H137054   6.789   2.696   0.172
 5165TIP3    H237055   6.779   2.576   0.081
 5166TIP3   OH237056   7.059   2.826   0.498
 5166TIP3    H137057   6.986   2.854   0.553
 5166TIP3    H237058   7.117   2.779   0.558
 5167TIP3   OH237059   7.001   2.671   1.420
 5167TIP3    H137060   7.004   2.755   1.466
 5167TIP3    H237061   6.923   2.676   1.365
 5168TIP3   OH237062   6.226   2.895   0.701
 5168TIP3    H137063   6.206   2.853   0.617
 5168TIP3    H237064   6.282   2.831   0.746
 5169TIP3   OH237065   6.406   3.263   0.962
 5169TIP3    H137066   6.321   3.221   0.974
 5169TIP3    H237067   6.470   3.199   0.994
 5170TIP3   OH237068   6.235   2.799   1.055
 5170TIP3    H137069   6.298   2.778   0.985
 5170TIP3    H237070   6.282   2.860   1.112
 5171TIP3   OH237071   6.906   3.363   1.202
 5171TIP3    H137072   6.895   3.382   1.296
 5171TIP3    H237073   6.860   3.281   1.189
 5172TIP3   OH237074   6.351   3.218   1.540
 5172TIP3    H137075   6.292   3.276   1.589
 5172TIP3    H237076   6.296   3.184   1.469
 5173TIP3   OH237077   6.934   2.788   0.251
 5173TIP3    H137078   6.981   2.800   0.334
 5173TIP3    H237079   6.989   2.833   0.187
 5174TIP3   OH237080   6.048   2.851   1.480
 5174TIP3    H137081   6.061   2.918   1.547
 5174TIP3    H237082   5.954   2.836   1.478
 5175TIP3   OH237083   6.687   3.417   0.608
 5175TIP3    H137084   6.763   3.424   0.666
 5175TIP3    H237085   6.639   3.499   0.623
 5176TIP3   OH237086   6.166   3.399   1.630
 5176TIP3    H137087   6.143   3.436   1.545
 5176TIP3    H237088   6.081   3.382   1.672
 5177TIP3   OH237089   6.136   2.803   0.432
 5177TIP3    H137090   6.076   2.871   0.402
 5177TIP3    H237091   6.078   2.733   0.465
 5178TIP3   OH237092   5.732   3.058   1.376
 5178TIP3    H137093   5.672   3.062   1.302
 5178TIP3    H237094   5.740   2.964   1.396
 5179TIP3   OH237095   5.690   3.365   1.068
 5179TIP3    H137096   5.764   3.369   1.129
 5179TIP3    H237097   5.636   3.441   1.090
 5180TIP3   OH237098   6.584   3.358   1.492
 5180TIP3    H137099   6.585   3.425   1.560
 5180TIP3    H237100   6.507   3.305   1.510
 5181TIP3   OH237101   6.692   3.706   0.489
 5181TIP3    H137102   6.680   3.737   0.400
 5181TIP3    H237103   6.664   3.779   0.544
 5182TIP3   OH237104   6.026   3.573   0.684
 5182TIP3    H137105   6.052   3.539   0.770
 5182TIP3    H237106   5.973   3.503   0.646
 5183TIP3   OH237107   6.945   3.588   0.165
 5183TIP3    H137108   7.022   3.543   0.131
 5183TIP3    H237109   6.963   3.599   0.259
 5184TIP3   OH237110   6.945   3.610   0.443
 5184TIP3    H137111   6.859   3.634   0.475
 5184TIP3    H237112   6.992   3.578   0.521
 5185TIP3   OH237113   7.221   2.609   1.653
 5185TIP3    H137114   7.234   2.594   1.559
 5185TIP3    H237115   7.277   2.543   1.695
 5186TIP3   OH237116   5.953   3.206   1.440
 5186TIP3    H137117   5.970   3.187   1.532
 5186TIP3    H237118   5.874   3.156   1.419
 5187TIP3   OH237119   6.199   2.019   1.062
 5187TIP3    H137120   6.118   2.006   1.013
 5187TIP3    H237121   6.181   2.092   1.120
 5188TIP3   OH237122   6.692   1.989   1.412
 5188TIP3    H137123   6.740   1.942   1.481
 5188TIP3    H237124   6.601   1.983   1.439
 5189TIP3   OH237125   6.982   2.381   1.482
 5189TIP3    H137126   6.929   2.362   1.559
 5189TIP3    H237127   6.987   2.476   1.478
 5190TIP3   OH237128   7.097   2.901   0.058
 5190TIP3    H137129   7.135   2.912   8.471
 5190TIP3    H237130   7.120   2.982   0.105
 5191TIP3   OH237131   6.655   2.169   0.119
 5191TIP3    H137132   6.586   2.192   0.181
 5191TIP3    H237133   6.617   2.188   0.033
 5192TIP3   OH237134   6.216   2.550   1.172
 5192TIP3    H137135   6.164   2.557   1.251
 5192TIP3    H237136   6.218   2.640   1.137
 5193TIP3   OH237137   6.213   2.541   0.664
 5193TIP3    H137138   6.118   2.528   0.665
 5193TIP3    H237139   6.240   2.514   0.576
 5194TIP3   OH237140   6.803   2.588   0.530
 5194TIP3    H137141   6.778   2.608   0.620
 5194TIP3    H237142   6.767   2.660   0.478
 5195TIP3   OH237143   6.677   2.592   1.674
 5195TIP3    H137144   6.628   2.518   1.710
 5195TIP3    H237145   6.755   2.598   1.728
 5196TIP3   OH237146   6.832   2.517   0.816
 5196TIP3    H137147   6.893   2.590   0.819
 5196TIP3    H237148   6.880   2.447   0.771
 5197TIP3   OH237149   5.992   2.522   1.350
 5197TIP3    H137150   6.051   2.553   1.419
 5197TIP3    H237151   5.958   2.439   1.384
 5198TIP3   OH237152   6.349   2.284   0.075
 5198TIP3    H137153   6.317   2.241   0.155
 5198TIP3    H237154   6.341   2.377   0.093
 5199TIP3   OH237155   5.679   2.242   0.738
 5199TIP3    H137156   5.728   2.252   0.820
 5199TIP3    H237157   5.743   2.208   0.675
 5200TIP3   OH237158   5.702   2.361   0.261
 5200TIP3    H137159   5.773   2.413   0.224
 5200TIP3    H237160   5.637   2.427   0.287
 5201TIP3   OH237161   6.781   2.667   1.255
 5201TIP3    H137162   6.821   2.600   1.201
 5201TIP3    H237163   6.720   2.620   1.312
 5202TIP3   OH237164   6.502   2.304   0.761
 5202TIP3    H137165   6.413   2.301   0.797
 5202TIP3    H237166   6.552   2.243   0.815
 5203TIP3   OH237167   5.954   2.453   0.645
 5203TIP3    H137168   5.877   2.480   0.595
 5203TIP3    H237169   5.968   2.362   0.621
 5204TIP3   OH237170   6.287   2.447   0.414
 5204TIP3    H137171   6.380   2.445   0.437
 5204TIP3    H237172   6.284   2.489   0.328
 5205TIP3   OH237173   6.834   2.219   1.059
 5205TIP3    H137174   6.816   2.213   1.153
 5205TIP3    H237175   6.756   2.183   1.017
 5206TIP3   OH237176   6.250   2.534   0.150
 5206TIP3    H137177   6.169   2.580   0.126
 5206TIP3    H237178   6.320   2.590   0.117
 5207TIP3   OH237179   7.255   3.814   1.677
 5207TIP3    H137180   7.239   3.897   1.632
 5207TIP3    H237181   7.189   3.810   1.745
 5208TIP3   OH237182   6.034   3.040   1.687
 5208TIP3    H137183   6.102   3.057   1.752
 5208TIP3    H237184   5.953   3.034   1.738
 5209TIP3   OH237185   6.582   2.579   0.958
 5209TIP3    H137186   6.648   2.527   0.912
 5209TIP3    H237187   6.555   2.524   1.032
 5210TIP3   OH237188   6.070   2.184   0.619
 5210TIP3    H137189   6.009   2.114   0.643
 5210TIP3    H237190   6.142   2.138   0.574
 5211TIP3   OH237191   6.480   2.450   1.190
 5211TIP3    H137192   6.397   2.498   1.193
 5211TIP3    H237193   6.527   2.479   1.268
 5212TIP3   OH237194   6.516   3.036   0.349
 5212TIP3    H137195   6.450   2.981   0.308
 5212TIP3    H237196   6.480   3.054   0.436
 5213TIP3   OH237197   7.209   2.969   1.175
 5213TIP3    H137198   7.273   2.944   1.109
 5213TIP3    H237199   7.124   2.958   1.132
 5214TIP3   OH237200   6.897   2.266   0.201
 5214TIP3    H137201   6.816   2.232   0.163
 5214TIP3    H237202   6.918   2.342   0.147
 5215TIP3   OH237203   6.736   3.067   1.539
 5215TIP3    H137204   6.734   3.007   1.614
 5215TIP3    H237205   6.674   3.137   1.563
 5216TIP3   OH237206   7.064   2.520   0.292
 5216TIP3    H137207   7.114   2.466   0.230
 5216TIP3    H237208   7.026   2.589   0.238
 5217TIP3   OH237209   6.039   2.933   0.908
 5217TIP3    H137210   6.101   2.932   0.835
 5217TIP3    H237211   6.081   2.881   0.976
 5218TIP3   OH237212   6.751   3.166   0.276
 5218TIP3    H137213   6.723   3.257   0.287
 5218TIP3    H237214   6.672   3.114   0.293
 5219TIP3   OH237215   5.774   2.805   1.490
 5219TIP3    H137216   5.794   2.783   1.581
 5219TIP3    H237217   5.709   2.740   1.464
 5220TIP3   OH237218   6.486   2.783   1.617
 5220TIP3    H137219   6.417   2.747   1.673
 5220TIP3    H237220   6.563   2.730   1.636
 5221TIP3   OH237221   6.861   3.377   1.472
 5221TIP3    H137222   6.767   3.363   1.465
 5221TIP3    H237223   6.881   3.363   1.565
 5222TIP3   OH237224   6.973   2.901   1.030
 5222TIP3    H137225   6.878   2.890   1.030
 5222TIP3    H237226   7.008   2.816   1.004
 5223TIP3   OH237227   6.271   3.331   0.638
 5223TIP3    H137228   6.284   3.424   0.616
 5223TIP3    H237229   6.231   3.333   0.725
 5224TIP3   OH237230   5.865   2.744   0.194
 5224TIP3    H137231   5.907   2.821   0.232
 5224TIP3    H237232   5.771   2.762   0.198
 5225TIP3   OH237233   6.381   3.090   0.575
 5225TIP3    H137234   6.351   3.176   0.602
 5225TIP3    H237235   6.333   3.029   0.632
 5226TIP3   OH237236   6.484   3.501   1.273
 5226TIP3    H137237   6.542   3.577   1.259
 5226TIP3    H237238   6.530   3.449   1.339
 5227TIP3   OH237239   6.279   3.602   0.577
 5227TIP3    H137240   6.190   3.609   0.611
 5227TIP3    H237241   6.326   3.673   0.620
 5228TIP3   OH237242   6.794   3.104   1.262
 5228TIP3    H137243   6.766   3.096   1.353
 5228TIP3    H237244   6.863   3.039   1.252
 5229TIP3   OH237245   7.031   3.188   0.141
 5229TIP3    H137246   7.081   3.151   0.214
 5229TIP3    H237247   6.940   3.187   0.171
 5230TIP3   OH237248   7.099   3.519   1.438
 5230TIP3    H137249   7.023   3.463   1.454
 5230TIP3    H237250   7.062   3.608   1.434
 5231TIP3   OH237251   5.930   2.246   1.452
 5231TIP3    H137252   5.862   2.291   1.503
 5231TIP3    H237253   5.946   2.165   1.500
 5232TIP3   OH237254   7.159   3.042   0.334
 5232TIP3    H137255   7.134   2.978   0.401
 5232TIP3    H237256   7.241   3.080   0.366
 5233TIP3   OH237257   5.880   3.440   1.263
 5233TIP3    H137258   5.910   3.369   1.320
 5233TIP3    H237259   5.868   3.514   1.323
 5234TIP3   OH237260   6.382   3.276   0.259
 5234TIP3    H137261   6.421   3.195   0.289
 5234TIP3    H237262   6.346   3.317   0.338
 5235TIP3   OH237263   5.959   2.983   0.312
 5235TIP3    H137264   5.889   3.027   0.361
 5235TIP3    H237265   6.003   3.054   0.265
 5236TIP3   OH237266   6.795   2.233   1.328
 5236TIP3    H137267   6.864   2.265   1.387
 5236TIP3    H237268   6.765   2.152   1.369
 5237TIP3   OH237269   6.856   2.189   0.461
 5237TIP3    H137270   6.870   2.219   0.371
 5237TIP3    H237271   6.935   2.139   0.482
 5238TIP3   OH237272   6.655   3.417   0.338
 5238TIP3    H137273   6.649   3.411   0.434
 5238TIP3    H237274   6.719   3.486   0.322
 5239TIP3   OH237275   6.547   2.406   0.507
 5239TIP3    H137276   6.634   2.447   0.509
 5239TIP3    H237277   6.534   2.375   0.597
 5240TIP3   OH237278   6.646   2.489   1.414
 5240TIP3    H137279   6.653   2.523   1.503
 5240TIP3    H237280   6.681   2.400   1.421
 5241TIP3   OH237281   6.642   2.073   0.590
 5241TIP3    H137282   6.654   2.096   0.682
 5241TIP3    H237283   6.716   2.114   0.546
 5242TIP3   OH237284   6.351   3.567   0.317
 5242TIP3    H137285   6.351   3.656   0.282
 5242TIP3    H237286   6.324   3.577   0.408
 5243TIP3   OH237287   6.229   2.191   0.309
 5243TIP3    H137288   6.213   2.274   0.355
 5243TIP3    H237289   6.315   2.163   0.340
 5244TIP3   OH237290   7.216   2.234   1.470
 5244TIP3    H137291   7.134   2.284   1.478
 5244TIP3    H237292   7.276   2.278   1.530
 5245TIP3   OH237293   7.081   2.653   0.964
 5245TIP3    H137294   7.026   2.597   1.019
 5245TIP3    H237295   7.168   2.645   1.002
 5246TIP3   OH237296   6.060   3.196   0.159
 5246TIP3    H137297   6.098   3.267   0.211
 5246TIP3    H237298   6.135   3.158   0.112
 5247TIP3   OH237299   5.873   2.495   0.078
 5247TIP3    H137300   5.889   2.578   0.122
 5247TIP3    H237301   5.801   2.513   0.017
 5248TIP3   OH237302   7.216   3.540   1.066
 5248TIP3    H137303   7.278   3.566   0.999
 5248TIP3    H237304   7.269   3.500   1.135
 5249TIP3   OH237305   5.945   1.982   0.957
 5249TIP3    H137306   5.931   1.973   0.863
 5249TIP3    H237307   5.909   1.902   0.995
 5250TIP3   OH237308   5.830   3.389   0.568
 5250TIP3    H137309   5.783   3.420   0.645
 5250TIP3    H237310   5.814   3.456   0.501
 5251TIP3   OH237311   5.815   3.662   1.674
 5251TIP3    H137312   5.862   3.639   1.755
 5251TIP3    H237313   5.738   3.606   1.674
 5252TIP3   OH237314   6.693   3.549   0.081
 5252TIP3    H137315   6.691   3.556   8.486
 5252TIP3    H237316   6.786   3.551   0.103
 5253TIP3   OH237317   6.897   3.389   1.738
 5253TIP3    H137318   6.850   3.319   1.782
 5253TIP3    H237319   6.966   3.414   1.799
 5254TIP3   OH237320   7.142   3.436   0.052
 5254TIP3    H137321   7.114   3.349   0.081
 5254TIP3    H237322   7.211   3.418   8.487
 5255TIP3   OH237323   5.807   3.019   1.848
 5255TIP3    H137324   5.804   2.938   1.899
 5255TIP3    H237325   5.716   3.033   1.820
 5256TIP3   OH237326   6.264   3.059   0.032
 5256TIP3    H137327   6.292   3.006   0.107
 5256TIP3    H237328   6.263   2.997   8.459
 5257TIP3   OH237329   6.462   3.043   1.729
 5257TIP3    H137330   6.417   3.097   1.664
 5257TIP3    H237331   6.472   2.958   1.687
 5258TIP3   OH237332   6.997   2.967   1.499
 5258TIP3    H137333   7.055   3.040   1.476
 5258TIP3    H237334   6.913   3.009   1.516
 5259TIP3   OH237335   5.828   2.695   1.739
 5259TIP3    H137336   5.918   2.665   1.750
 5259TIP3    H237337   5.803   2.728   1.825
 5260TIP3   OH237338   6.325   2.877   0.234
 5260TIP3    H137339   6.268   2.840   0.302
 5260TIP3    H237340   6.365   2.801   0.193
 5261TIP3   OH237341   6.222   2.633   1.461
 5261TIP3    H137342   6.172   2.713   1.481
 5261TIP3    H237343   6.302   2.666   1.419
 5262TIP3   OH237344   6.459   2.687   0.069
 5262TIP3    H137345   6.468   2.705   8.475
 5262TIP3    H237346   6.548   2.670   0.099
 5263TIP3   OH237347   6.781   2.914   1.777
 5263TIP3    H137348   6.864   2.866   1.776
 5263TIP3    H237349   6.723   2.861   1.831
 5264TIP3   OH237350   6.314   2.391   1.575
 5264TIP3    H137351   6.328   2.333   1.501
 5264TIP3    H237352   6.286   2.474   1.535
 5265TIP3   OH237353   6.354   2.235   1.339
 5265TIP3    H137354   6.404   2.291   1.280
 5265TIP3    H237355   6.266   2.232   1.299
 5266TIP3   OH237356   6.440   2.750   1.342
 5266TIP3    H137357   6.477   2.772   1.427
 5266TIP3    H237358   6.419   2.835   1.302
 5267TIP3   OH237359   6.889   2.577   1.849
 5267TIP3    H137360   6.869   2.529   1.929
 5267TIP3    H237361   6.984   2.575   1.842
 5268TIP3   OH237362   7.061   2.826   1.729
 5268TIP3    H137363   7.047   2.875   1.648
 5268TIP3    H237364   7.114   2.750   1.703
 5269TIP3   OH237365   6.176   2.425   1.821
 5269TIP3    H137366   6.093   2.379   1.810
 5269TIP3    H237367   6.223   2.409   1.739
 5270TIP3   OH237368   6.410   1.965   1.404
 5270TIP3    H137369   6.392   2.058   1.390
 5270TIP3    H237370   6.334   1.921   1.366
 5271TIP3   OH237371   6.544   2.361   1.734
 5271TIP3    H137372   6.514   2.325   1.818
 5271TIP3    H237373   6.465   2.366   1.681
 5272TIP3   OH237374   6.815   2.299   1.682
 5272TIP3    H137375   6.723   2.307   1.704
 5272TIP3    H237376   6.860   2.301   1.766
 5273TIP3   OH237377   6.972   2.280   1.924
 5273TIP3    H137378   6.990   2.188   1.940
 5273TIP3    H237379   6.920   2.308   1.999
 5274TIP3   OH237380   5.948   2.252   1.808
 5274TIP3    H137381   5.975   2.170   1.768
 5274TIP3    H237382   5.947   2.235   1.902
 5275TIP3   OH237383   6.397   1.856   1.659
 5275TIP3    H137384   6.465   1.790   1.670
 5275TIP3    H237385   6.408   1.888   1.570
 5276TIP3   OH237386   6.509   2.050   1.829
 5276TIP3    H137387   6.442   1.999   1.783
 5276TIP3    H237388   6.459   2.118   1.875
 5277TIP3   OH237389   6.410   3.792   0.172
 5277TIP3    H137390   6.501   3.805   0.199
 5277TIP3    H237391   6.405   3.827   0.083
 5278TIP3   OH237392   5.783   3.248   0.108
 5278TIP3    H137393   5.876   3.236   0.128
 5278TIP3    H237394   5.778   3.237   0.013
 5279TIP3   OH237395   5.681   3.723   0.655
 5279TIP3    H137396   5.614   3.697   0.592
 5279TIP3    H237397   5.690   3.647   0.713
 5280TIP3   OH237398   5.740   3.502   0.815
 5280TIP3    H137399   5.699   3.435   0.869
 5280TIP3    H237400   5.795   3.551   0.875
 5281TIP3   OH237401   7.283   3.385   1.287
 5281TIP3    H137402   7.230   3.439   1.345
 5281TIP3    H237403   7.263   3.295   1.312
 5282TIP3   OH237404   7.126   2.628   0.691
 5282TIP3    H137405   7.205   2.573   0.697
 5282TIP3    H237406   7.112   2.659   0.780
 5283TIP3   OH237407   5.735   2.876   1.082
 5283TIP3    H137408   5.749   2.859   0.988
 5283TIP3    H237409   5.816   2.846   1.124
 5284TIP3   OH237410   7.180   2.368   0.076
 5284TIP3    H137411   7.266   2.381   0.036
 5284TIP3    H237412   7.171   2.273   0.083
 5285TIP3   OH237413   7.252   2.425   0.521
 5285TIP3    H137414   7.287   2.363   0.585
 5285TIP3    H237415   7.301   2.407   0.441
 5286TIP3   OH237416   7.249   2.336   1.069
 5286TIP3    H137417   0.030   2.303   1.039
 5286TIP3    H237418   7.266   2.428   1.092
 5287TIP3   OH237419   7.266   2.608   1.373
 5287TIP3    H137420   7.172   2.626   1.373
 5287TIP3    H237421   7.288   2.597   1.280
 5288TIP3   OH237422   5.751   2.344   1.635
 5288TIP3    H137423   5.817   2.338   1.704
 5288TIP3    H237424   5.676   2.296   1.670
 5289TIP3   OH237425   7.144   2.125   0.559
 5289TIP3    H137426   7.204   2.084   0.622
 5289TIP3    H237427   7.118   2.054   0.501
 5290TIP3   OH237428   5.826   2.235   0.970
 5290TIP3    H137429   5.864   2.147   0.980
 5290TIP3    H237430   5.896   2.294   0.996
 5291TIP3   OH237431   5.629   2.524   1.050
 5291TIP3    H137432   5.707   2.538   0.996
 5291TIP3    H237433   5.630   2.596   1.113
 5292TIP3   OH237434   5.691   2.150   0.446
 5292TIP3    H137435   5.600   2.148   0.475
 5292TIP3    H237436   5.699   2.232   0.397
 5293TIP3   OH237437   7.120   3.619   0.734
 5293TIP3    H137438   7.198   3.569   0.755
 5293TIP3    H237439   7.134   3.704   0.778
 5294TIP3   OH237440   5.671   2.033   1.292
 5294TIP3    H137441   5.641   1.953   1.250
 5294TIP3    H237442   5.654   2.102   1.227
 5295TIP3   OH237443   5.914   3.356   1.732
 5295TIP3    H137444   5.824   3.373   1.703
 5295TIP3    H237445   5.904   3.325   1.822
 5296TIP3   OH237446   6.218   3.464   1.335
 5296TIP3    H137447   6.184   3.552   1.319
 5296TIP3    H237448   6.313   3.473   1.323
 5297TIP3   OH237449   6.622   3.568   1.670
 5297TIP3    H137450   6.648   3.532   1.755
 5297TIP3    H237451   6.699   3.616   1.640
 5298TIP3   OH237452   6.869   3.670   1.596
 5298TIP3    H137453   6.892   3.579   1.614
 5298TIP3    H237454   6.909   3.719   1.668
 5299TIP3   OH237455   5.914   3.770   1.352
 5299TIP3    H137456   5.835   3.804   1.311
 5299TIP3    H237457   5.913   3.807   1.441
 5300TIP3   OH237458   6.175   3.733   1.281
 5300TIP3    H137459   6.085   3.746   1.309
 5300TIP3    H237460   6.183   3.785   1.201
 5301TIP3   OH237461   6.621   3.731   1.188
 5301TIP3    H137462   6.562   3.765   1.121
 5301TIP3    H237463   6.623   3.799   1.255
 5302TIP3   OH237464   6.850   3.647   1.314
 5302TIP3    H137465   6.768   3.678   1.275
 5302TIP3    H237466   6.844   3.674   1.406
 5303TIP3   OH237467   7.129   3.759   1.265
 5303TIP3    H137468   7.112   3.848   1.236
 5303TIP3    H237469   7.207   3.765   1.320
 5304TIP3   OH237470   5.907   3.609   1.013
 5304TIP3    H137471   5.880   3.578   1.100
 5304TIP3    H237472   5.985   3.557   0.993
 5305TIP3   OH237473   6.125   3.460   0.918
 5305TIP3    H137474   6.120   3.370   0.951
 5305TIP3    H237475   6.206   3.494   0.955
 5306TIP3   OH237476   6.380   3.529   1.017
 5306TIP3    H137477   6.401   3.443   0.983
 5306TIP3    H237478   6.401   3.525   1.110
 5307TIP3   OH237479   6.641   2.091   0.881
 5307TIP3    H137480   6.581   2.026   0.918
 5307TIP3    H237481   6.721   2.042   0.861
 5308TIP3   OH237482   7.199   1.949   0.898
 5308TIP3    H137483   7.286   1.988   0.892
 5308TIP3    H237484   7.141   2.023   0.915
 5309TIP3   OH237485   5.916   1.965   0.679
 5309TIP3    H137486   5.826   1.940   0.658
 5309TIP3    H237487   5.965   1.883   0.677
 5310TIP3   OH237488   5.768   1.993   0.233
 5310TIP3    H137489   5.862   2.009   0.224
 5310TIP3    H237490   5.747   2.026   0.321
 5311TIP3   OH237491   6.404   1.942   0.681
 5311TIP3    H137492   6.479   1.994   0.651
 5311TIP3    H237493   6.414   1.938   0.776
 5312TIP3   OH237494   6.856   1.947   0.799
 5312TIP3    H137495   6.947   1.941   0.768
 5312TIP3    H237496   6.843   1.867   0.849
 5313TIP3   OH237497   7.042   1.944   0.389
 5313TIP3    H137498   7.042   1.935   0.294
 5313TIP3    H237499   7.013   1.859   0.421
 5314TIP3   OH237500   5.800   3.575   0.368
 5314TIP3    H137501   5.727   3.578   0.306
 5314TIP3    H237502   5.805   3.663   0.403
 5315TIP3   OH237503   6.030   2.097   0.133
 5315TIP3    H137504   6.036   2.002   0.120
 5315TIP3    H237505   6.096   2.116   0.200
 5316TIP3   OH237506   6.498   2.173   0.366
 5316TIP3    H137507   6.539   2.112   0.427
 5316TIP3    H237508   6.516   2.259   0.403
 5317TIP3   OH237509   6.681   3.796   0.227
 5317TIP3    H137510   6.714   3.878   0.192
 5317TIP3    H237511   6.715   3.729   0.166
 5318TIP3   OH237512   5.937   2.002   1.613
 5318TIP3    H137513   5.877   1.935   1.646
 5318TIP3    H237514   6.022   1.979   1.652
 5319TIP3   OH237515   6.141   1.896   1.750
 5319TIP3    H137516   6.233   1.882   1.728
 5319TIP3    H237517   6.117   1.819   1.802
 5320TIP3   OH237518   6.026   3.659   0.041
 5320TIP3    H137519   6.032   3.750   0.068
 5320TIP3    H237520   5.974   3.616   0.109
 5321TIP3   OH237521   0.017   3.548   1.622
 5321TIP3    H137522   7.241   3.523   1.575
 5321TIP3    H237523   0.003   3.640   1.645
 5322TIP3   OH237524   1.197   4.794   0.654
 5322TIP3    H137525   1.181   4.888   0.652
 5322TIP3    H237526   1.124   4.756   0.605
 5323TIP3   OH237527   1.004   4.702   1.041
 5323TIP3    H137528   1.047   4.671   1.121
 5323TIP3    H237529   0.978   4.622   0.995
 5324TIP3   OH237530   0.304   4.643   1.177
 5324TIP3    H137531   0.303   4.570   1.238
 5324TIP3    H237532   0.397   4.661   1.163
 5325TIP3   OH237533   1.438   5.035   0.884
 5325TIP3    H137534   1.385   4.975   0.936
 5325TIP3    H237535   1.476   5.096   0.948
 5326TIP3   OH237536   0.413   5.107   0.989
 5326TIP3    H137537   0.392   5.017   0.963
 5326TIP3    H237538   0.506   5.105   1.009
 5327TIP3   OH237539   0.132   4.542   0.545
 5327TIP3    H137540   0.167   4.604   0.608
 5327TIP3    H237541   0.037   4.543   0.559
 5328TIP3   OH237542   0.218   4.678   0.761
 5328TIP3    H137543   0.203   4.614   0.830
 5328TIP3    H237544   0.271   4.746   0.802
 5329TIP3   OH237545   1.200   5.482   0.925
 5329TIP3    H137546   1.230   5.426   0.854
 5329TIP3    H237547   1.188   5.422   1.000
 5330TIP3   OH237548   0.903   4.960   1.066
 5330TIP3    H137549   0.936   4.875   1.037
 5330TIP3    H237550   0.975   4.998   1.117
 5331TIP3   OH237551   1.797   4.116   1.180
 5331TIP3    H137552   1.817   4.169   1.258
 5331TIP3    H237553   1.825   4.170   1.107
 5332TIP3   OH237554   1.233   4.396   1.061
 5332TIP3    H137555   1.262   4.308   1.085
 5332TIP3    H237556   1.203   4.387   0.970
 5333TIP3   OH237557   0.570   4.182   0.823
 5333TIP3    H137558   0.577   4.266   0.778
 5333TIP3    H237559   0.535   4.122   0.756
 5334TIP3   OH237560   1.357   4.224   0.656
 5334TIP3    H137561   1.400   4.195   0.737
 5334TIP3    H237562   1.426   4.269   0.607
 5335TIP3   OH237563   0.215   4.438   0.906
 5335TIP3    H137564   0.287   4.403   0.959
 5335TIP3    H237565   0.234   4.407   0.817
 5336TIP3   OH237566   0.694   4.577   0.849
 5336TIP3    H137567   0.777   4.539   0.876
 5336TIP3    H237568   0.655   4.510   0.792
 5337TIP3   OH237569   1.850   4.264   1.409
 5337TIP3    H137570   1.783   4.328   1.383
 5337TIP3    H237571   1.846   4.264   1.505
 5338TIP3   OH237572   0.431   4.111   1.241
 5338TIP3    H137573   0.409   4.179   1.177
 5338TIP3    H237574   0.368   4.123   1.312
 5339TIP3   OH237575   1.157   5.053   0.557
 5339TIP3    H137576   1.143   5.052   0.463
 5339TIP3    H237577   1.109   5.130   0.587
 5340TIP3   OH237578   0.700   4.867   1.227
 5340TIP3    H137579   0.648   4.941   1.260
 5340TIP3    H237580   0.772   4.908   1.180
 5341TIP3   OH237581   1.465   4.164   0.899
 5341TIP3    H137582   1.399   4.145   0.966
 5341TIP3    H237583   1.525   4.225   0.941
 5342TIP3   OH237584   0.415   4.284   1.024
 5342TIP3    H137585   0.470   4.342   1.078
 5342TIP3    H237586   0.476   4.246   0.961
 5343TIP3   OH237587   0.549   5.083   1.316
 5343TIP3    H137588   0.565   5.177   1.319
 5343TIP3    H237589   0.455   5.075   1.328
 5344TIP3   OH237590   0.105   5.049   0.386
 5344TIP3    H137591   0.115   5.094   0.302
 5344TIP3    H237592   0.133   5.114   0.451
 5345TIP3   OH237593   1.490   5.233   1.079
 5345TIP3    H137594   1.395   5.233   1.089
 5345TIP3    H237595   1.512   5.325   1.062
 5346TIP3   OH237596   1.542   4.003   1.226
 5346TIP3    H137597   1.480   4.066   1.188
 5346TIP3    H237598   1.628   4.037   1.200
 5347TIP3   OH237599   0.785   3.794   0.978
 5347TIP3    H137600   0.765   3.701   0.990
 5347TIP3    H237601   0.711   3.840   1.017
 5348TIP3   OH237602   1.310   5.360   0.698
 5348TIP3    H137603   1.354   5.277   0.681
 5348TIP3    H237604   1.381   5.424   0.701
 5349TIP3   OH237605   1.422   5.117   0.622
 5349TIP3    H137606   1.336   5.081   0.601
 5349TIP3    H237607   1.442   5.082   0.709
 5350TIP3   OH237608   1.605   5.001   1.452
 5350TIP3    H137609   1.643   4.918   1.425
 5350TIP3    H237610   1.641   5.065   1.391
 5351TIP3   OH237611   1.045   4.697   0.438
 5351TIP3    H137612   0.982   4.765   0.413
 5351TIP3    H237613   1.112   4.701   0.370
 5352TIP3   OH237614   1.060   4.513   0.130
 5352TIP3    H137615   1.119   4.563   0.187
 5352TIP3    H237616   1.118   4.451   0.085
 5353TIP3   OH237617   1.851   4.592   1.153
 5353TIP3    H137618   1.807   4.625   1.232
 5353TIP3    H237619   1.889   4.670   1.113
 5354TIP3   OH237620   1.413   4.729   0.502
 5354TIP3    H137621   1.346   4.755   0.565
 5354TIP3    H237622   1.478   4.681   0.553
 5355TIP3   OH237623   1.371   4.536   1.463
 5355TIP3    H137624   1.377   4.597   1.537
 5355TIP3    H237625   1.321   4.584   1.397
 5356TIP3   OH237626   0.566   4.779   0.702
 5356TIP3    H137627   0.543   4.740   0.618
 5356TIP3    H237628   0.620   4.712   0.745
 5357TIP3   OH237629   0.697   5.129   0.970
 5357TIP3    H137630   0.709   5.138   0.875
 5357TIP3    H237631   0.771   5.075   0.999
 5358TIP3   OH237632   0.566   4.689   1.070
 5358TIP3    H137633   0.622   4.666   0.996
 5358TIP3    H237634   0.618   4.751   1.122
 5359TIP3   OH237635   1.220   5.243   1.122
 5359TIP3    H137636   1.211   5.309   1.192
 5359TIP3    H237637   1.184   5.163   1.160
 5360TIP3   OH237638   0.720   5.101   1.542
 5360TIP3    H137639   0.650   5.139   1.594
 5360TIP3    H237640   0.678   5.076   1.460
 5361TIP3   OH237641   1.274   4.650   0.279
 5361TIP3    H137642   1.320   4.679   0.357
 5361TIP3    H237643   1.324   4.687   0.206
 5362TIP3   OH237644   0.402   4.706   1.553
 5362TIP3    H137645   0.410   4.791   1.595
 5362TIP3    H237646   0.311   4.701   1.525
 5363TIP3   OH237647   1.054   5.306   0.611
 5363TIP3    H137648   1.136   5.329   0.654
 5363TIP3    H237649   1.024   5.388   0.571
 5364TIP3   OH237650   0.464   5.209   1.604
 5364TIP3    H137651   0.496   5.273   1.541
 5364TIP3    H237652   0.401   5.257   1.657
 5365TIP3   OH237653   1.629   3.802   0.239
 5365TIP3    H137654   1.552   3.827   0.288
 5365TIP3    H237655   1.678   3.883   0.226
 5366TIP3   OH237656   0.478   4.686   0.441
 5366TIP3    H137657   0.426   4.759   0.407
 5366TIP3    H237658   0.414   4.615   0.451
 5367TIP3   OH237659   1.757   5.253   0.135
 5367TIP3    H137660   1.781   5.346   0.138
 5367TIP3    H237661   1.839   5.207   0.121
 5368TIP3   OH237662   0.115   4.894   1.364
 5368TIP3    H137663   0.044   4.881   1.301
 5368TIP3    H237664   0.132   4.806   1.399
 5369TIP3   OH237665   0.131   5.201   0.965
 5369TIP3    H137666   0.217   5.170   0.994
 5369TIP3    H237667   0.071   5.175   1.034
 5370TIP3   OH237668   1.883   5.312   1.645
 5370TIP3    H137669   1.870   5.217   1.642
 5370TIP3    H237670   1.796   5.348   1.665
 5371TIP3   OH237671   0.954   5.242   1.497
 5371TIP3    H137672   0.949   5.323   1.548
 5371TIP3    H237673   0.875   5.193   1.521
 5372TIP3   OH237674   1.026   5.566   0.482
 5372TIP3    H137675   1.016   5.595   0.391
 5372TIP3    H237676   1.004   5.643   0.534
 5373TIP3   OH237677   0.385   5.449   0.665
 5373TIP3    H137678   0.402   5.418   0.754
 5373TIP3    H237679   0.329   5.382   0.627
 5374TIP3   OH237680   1.318   5.521   0.157
 5374TIP3    H137681   1.387   5.461   0.129
 5374TIP3    H237682   1.322   5.520   0.253
 5375TIP3   OH237683   1.297   5.522   0.436
 5375TIP3    H137684   1.204   5.524   0.459
 5375TIP3    H237685   1.339   5.477   0.509
 5376TIP3   OH237686   1.612   4.409   1.633
 5376TIP3    H137687   1.554   4.472   1.590
 5376TIP3    H237688   1.596   4.326   1.588
 5377TIP3   OH237689   0.277   5.119   1.382
 5377TIP3    H137690   0.285   5.129   1.476
 5377TIP3    H237691   0.218   5.044   1.371
 5378TIP3   OH237692   0.545   3.913   1.075
 5378TIP3    H137693   0.469   3.907   1.018
 5378TIP3    H237694   0.526   3.987   1.133
 5379TIP3   OH237695   1.043   3.865   1.419
 5379TIP3    H137696   1.090   3.822   1.490
 5379TIP3    H237697   0.952   3.865   1.447
 5380TIP3   OH237698   1.319   4.265   1.477
 5380TIP3    H137699   1.253   4.250   1.545
 5380TIP3    H237700   1.329   4.360   1.475
 5381TIP3   OH237701   1.442   4.773   0.096
 5381TIP3    H137702   1.517   4.780   0.038
 5381TIP3    H237703   1.463   4.829   0.170
 5382TIP3   OH237704   1.010   4.118   0.101
 5382TIP3    H137705   0.920   4.150   0.110
 5382TIP3    H237706   1.017   4.090   0.010
 5383TIP3   OH237707   0.584   4.437   1.179
 5383TIP3    H137708   0.567   4.455   1.272
 5383TIP3    H237709   0.582   4.523   1.137
 5384TIP3   OH237710   0.550   4.409   0.674
 5384TIP3    H137711   0.455   4.398   0.667
 5384TIP3    H237712   0.583   4.394   0.586
 5385TIP3   OH237713   1.101   4.445   0.533
 5385TIP3    H137714   1.080   4.535   0.506
 5385TIP3    H237715   1.175   4.420   0.478
 5386TIP3   OH237716   1.007   4.459   1.688
 5386TIP3    H137717   0.965   4.378   1.716
 5386TIP3    H237718   1.090   4.461   1.736
 5387TIP3   OH237719   1.153   4.365   0.797
 5387TIP3    H137720   1.124   4.416   0.722
 5387TIP3    H237721   1.223   4.310   0.763
 5388TIP3   OH237722   0.325   4.422   1.344
 5388TIP3    H137723   0.395   4.451   1.403
 5388TIP3    H237724   0.294   4.340   1.383
 5389TIP3   OH237725   0.727   4.184   0.071
 5389TIP3    H137726   0.682   4.131   0.136
 5389TIP3    H237727   0.701   4.274   0.091
 5390TIP3   OH237728   0.068   4.184   0.711
 5390TIP3    H137729   0.096   4.167   0.801
 5390TIP3    H237730   0.020   4.106   0.685
 5391TIP3   OH237731   0.075   4.266   0.277
 5391TIP3    H137732   0.153   4.315   0.247
 5391TIP3    H237733   0.025   4.251   0.197
 5392TIP3   OH237734   1.108   4.553   1.252
 5392TIP3    H137735   1.159   4.500   1.191
 5392TIP3    H237736   1.071   4.489   1.313
 5393TIP3   OH237737   0.846   4.166   0.761
 5393TIP3    H137738   0.766   4.170   0.814
 5393TIP3    H237739   0.907   4.114   0.813
 5394TIP3   OH237740   0.284   4.336   0.641
 5394TIP3    H137741   0.242   4.406   0.590
 5394TIP3    H237742   0.214   4.273   0.658
 5395TIP3   OH237743   0.626   4.328   0.422
 5395TIP3    H137744   0.719   4.330   0.443
 5395TIP3    H237745   0.619   4.371   0.337
 5396TIP3   OH237746   1.273   4.110   1.084
 5396TIP3    H137747   1.231   4.111   1.171
 5396TIP3    H237748   1.213   4.059   1.030
 5397TIP3   OH237749   0.583   4.402   0.162
 5397TIP3    H137750   0.489   4.415   0.149
 5397TIP3    H237751   0.624   4.473   0.114
 5398TIP3   OH237752   1.638   5.686   1.765
 5398TIP3    H137753   1.665   5.701   1.675
 5398TIP3    H237754   1.720   5.690   1.815
 5399TIP3   OH237755   0.382   4.959   1.700
 5399TIP3    H137756   0.411   5.041   1.659
 5399TIP3    H237757   0.288   4.970   1.712
 5400TIP3   OH237758   0.921   4.446   0.947
 5400TIP3    H137759   0.995   4.408   0.900
 5400TIP3    H237760   0.908   4.389   1.023
 5401TIP3   OH237761   0.459   4.048   0.599
 5401TIP3    H137762   0.395   3.982   0.624
 5401TIP3    H237763   0.406   4.121   0.565
 5402TIP3   OH237764   0.833   4.311   1.190
 5402TIP3    H137765   0.756   4.368   1.190
 5402TIP3    H237766   0.884   4.341   1.265
 5403TIP3   OH237767   0.874   4.897   0.355
 5403TIP3    H137768   0.800   4.859   0.306
 5403TIP3    H237769   0.834   4.929   0.436
 5404TIP3   OH237770   1.569   4.818   1.135
 5404TIP3    H137771   1.633   4.886   1.113
 5404TIP3    H237772   1.603   4.779   1.216
 5405TIP3   OH237773   1.266   4.145   0.215
 5405TIP3    H137774   1.181   4.141   0.171
 5405TIP3    H237775   1.278   4.238   0.237
 5406TIP3   OH237776   1.023   4.912   1.483
 5406TIP3    H137777   1.064   4.873   1.561
 5406TIP3    H237778   1.008   5.003   1.507
 5407TIP3   OH237779   1.317   4.383   0.359
 5407TIP3    H137780   1.404   4.371   0.398
 5407TIP3    H237781   1.319   4.472   0.323
 5408TIP3   OH237782   0.390   4.838   0.908
 5408TIP3    H137783   0.450   4.834   0.833
 5408TIP3    H237784   0.434   4.788   0.976
 5409TIP3   OH237785   1.097   5.043   0.274
 5409TIP3    H137786   1.053   5.127   0.283
 5409TIP3    H237787   1.029   4.978   0.294
 5410TIP3   OH237788   0.129   4.658   1.503
 5410TIP3    H137789   0.115   4.645   1.597
 5410TIP3    H237790   0.077   4.589   1.462
 5411TIP3   OH237791   0.807   4.644   1.655
 5411TIP3    H137792   0.809   4.654   1.560
 5411TIP3    H237793   0.879   4.584   1.674
 5412TIP3   OH237794   1.234   5.211   1.506
 5412TIP3    H137795   1.139   5.223   1.494
 5412TIP3    H237796   1.248   5.229   1.599
 5413TIP3   OH237797   1.768   4.439   0.309
 5413TIP3    H137798   1.702   4.421   0.242
 5413TIP3    H237799   1.794   4.529   0.294
 5414TIP3   OH237800   1.851   5.039   1.629
 5414TIP3    H137801   1.758   5.016   1.634
 5414TIP3    H237802   1.878   5.009   1.542
 5415TIP3   OH237803   1.635   5.291   0.393
 5415TIP3    H137804   1.587   5.219   0.433
 5415TIP3    H237805   1.664   5.256   0.308
 5416TIP3   OH237806   1.302   4.853   1.058
 5416TIP3    H137807   1.267   4.779   1.008
 5416TIP3    H237808   1.391   4.825   1.081
 5417TIP3   OH237809   0.659   5.207   0.699
 5417TIP3    H137810   0.693   5.289   0.663
 5417TIP3    H237811   0.564   5.216   0.695
 5418TIP3   OH237812   0.196   4.669   0.175
 5418TIP3    H137813   0.244   4.736   0.224
 5418TIP3    H237814   0.104   4.689   0.190
 5419TIP3   OH237815   0.732   4.968   0.576
 5419TIP3    H137816   0.722   5.054   0.618
 5419TIP3    H237817   0.678   4.909   0.629
 5420TIP3   OH237818   0.839   5.380   1.278
 5420TIP3    H137819   0.895   5.454   1.257
 5420TIP3    H237820   0.893   5.325   1.335
 5421TIP3   OH237821   0.648   5.472   0.586
 5421TIP3    H137822   0.556   5.476   0.610
 5421TIP3    H237823   0.687   5.551   0.625
 5422TIP3   OH237824   1.127   4.998   1.224
 5422TIP3    H137825   1.115   4.958   1.310
 5422TIP3    H237826   1.194   4.944   1.181
 5423TIP3   OH237827   1.361   5.087   0.151
 5423TIP3    H137828   1.418   5.040   0.212
 5423TIP3    H237829   1.273   5.078   0.188
 5424TIP3   OH237830   1.414   5.431   1.488
 5424TIP3    H137831   1.347   5.366   1.467
 5424TIP3    H237832   1.417   5.488   1.411
 5425TIP3   OH237833   1.833   5.518   0.173
 5425TIP3    H137834   1.899   5.586   0.161
 5425TIP3    H237835   1.752   5.566   0.190
 5426TIP3   OH237836   0.256   4.173   1.456
 5426TIP3    H137837   0.179   4.206   1.503
 5426TIP3    H237838   0.289   4.102   1.512
 5427TIP3   OH237839   1.522   4.913   0.319
 5427TIP3    H137840   1.475   4.869   0.390
 5427TIP3    H237841   1.613   4.915   0.348
 5428TIP3   OH237842   0.224   5.367   1.253
 5428TIP3    H137843   0.241   5.282   1.293
 5428TIP3    H237844   0.245   5.430   1.321
 5429TIP3   OH237845   0.652   5.171   0.277
 5429TIP3    H137846   0.734   5.128   0.303
 5429TIP3    H237847   0.669   5.264   0.291
 5430TIP3   OH237848   0.312   4.874   0.320
 5430TIP3    H137849   0.239   4.919   0.363
 5430TIP3    H237850   0.360   4.944   0.275
 5431TIP3   OH237851   1.148   4.105   1.323
 5431TIP3    H137852   1.205   4.146   1.387
 5431TIP3    H237853   1.112   4.028   1.367
 5432TIP3   OH237854   1.227   4.060   0.474
 5432TIP3    H137855   1.239   4.098   0.387
 5432TIP3    H237856   1.266   4.124   0.533
 5433TIP3   OH237857   0.941   5.263   0.300
 5433TIP3    H137858   0.873   5.320   0.337
 5433TIP3    H237859   0.988   5.319   0.238
 5434TIP3   OH237860   0.879   4.287   0.519
 5434TIP3    H137861   0.956   4.344   0.519
 5434TIP3    H237862   0.873   4.256   0.610
 5435TIP3   OH237863   0.990   4.366   1.419
 5435TIP3    H137864   0.992   4.406   1.506
 5435TIP3    H237865   1.030   4.280   1.431
 5436TIP3   OH237866   1.025   3.930   0.598
 5436TIP3    H137867   1.034   3.962   0.688
 5436TIP3    H237868   1.097   3.971   0.550
 5437TIP3   OH237869   0.718   5.432   0.325
 5437TIP3    H137870   0.726   5.518   0.283
 5437TIP3    H237871   0.695   5.452   0.415
 5438TIP3   OH237872   0.587   4.082   0.296
 5438TIP3    H137873   0.564   4.168   0.331
 5438TIP3    H237874   0.679   4.071   0.319
 5439TIP3   OH237875   1.570   4.163   1.507
 5439TIP3    H137876   1.480   4.188   1.489
 5439TIP3    H237877   1.593   4.102   1.437
 5440TIP3   OH237878   1.453   4.504   0.890
 5440TIP3    H137879   1.371   4.511   0.939
 5440TIP3    H237880   1.513   4.460   0.950
 5441TIP3   OH237881   0.418   5.084   0.171
 5441TIP3    H137882   0.485   5.129   0.223
 5441TIP3    H237883   0.468   5.034   0.106
 5442TIP3   OH237884   0.306   4.419   0.144
 5442TIP3    H137885   0.267   4.507   0.148
 5442TIP3    H237886   0.257   4.375   0.075
 5443TIP3   OH237887   1.570   5.499   1.062
 5443TIP3    H137888   1.560   5.568   0.996
 5443TIP3    H237889   1.664   5.497   1.080
 5444TIP3   OH237890   0.304   3.884   0.943
 5444TIP3    H137891   0.309   3.866   0.849
 5444TIP3    H237892   0.276   3.801   0.982
 5445TIP3   OH237893   0.187   5.275   0.550
 5445TIP3    H137894   0.130   5.295   0.624
 5445TIP3    H237895   0.164   5.341   0.484
 5446TIP3   OH237896   0.217   5.550   1.712
 5446TIP3    H137897   0.285   5.504   1.762
 5446TIP3    H237898   0.145   5.487   1.706
 5447TIP3   OH237899   0.539   5.475   1.858
 5447TIP3    H137900   0.603   5.531   1.902
 5447TIP3    H237901   0.573   5.386   1.870
 5448TIP3   OH237902   1.069   5.410   0.111
 5448TIP3    H137903   1.049   5.366   0.029
 5448TIP3    H237904   1.162   5.431   0.105
 5449TIP3   OH237905   1.262   5.248   1.779
 5449TIP3    H137906   1.220   5.166   1.804
 5449TIP3    H237907   1.331   5.260   1.845
 5450TIP3   OH237908   1.483   5.325   0.062
 5450TIP3    H137909   1.441   5.243   0.089
 5450TIP3    H237910   1.576   5.307   0.067
 5451TIP3   OH237911   0.106   4.940   1.738
 5451TIP3    H137912   0.108   4.845   1.748
 5451TIP3    H237913   0.032   4.955   1.678
 5452TIP3   OH237914   0.583   4.923   0.025
 5452TIP3    H137915   0.619   4.880   0.103
 5452TIP3    H237916   0.595   4.859   8.455
 5453TIP3   OH237917   0.722   4.897   1.730
 5453TIP3    H137918   0.745   4.955   1.658
 5453TIP3    H237919   0.759   4.812   1.705
 5454TIP3   OH237920   1.345   4.950   1.518
 5454TIP3    H137921   1.436   4.969   1.495
 5454TIP3    H237922   1.300   5.034   1.508
 5455TIP3   OH237923   0.161   4.666   1.783
 5455TIP3    H137924   0.253   4.641   1.784
 5455TIP3    H237925   0.132   4.659   1.874
 5456TIP3   OH237926   0.666   4.758   0.233
 5456TIP3    H137927   0.615   4.721   0.305
 5456TIP3    H237928   0.707   4.683   0.191
 5457TIP3   OH237929   0.573   4.520   1.446
 5457TIP3    H137930   0.522   4.586   1.491
 5457TIP3    H237931   0.658   4.561   1.431
 5458TIP3   OH237932   0.793   4.566   0.070
 5458TIP3    H137933   0.805   4.583   8.476
 5458TIP3    H237934   0.881   4.545   0.102
 5459TIP3   OH237935   1.122   4.790   1.727
 5459TIP3    H137936   1.215   4.771   1.712
 5459TIP3    H237937   1.087   4.708   1.762
 5460TIP3   OH237938   1.699   4.881   0.004
 5460TIP3    H137939   1.675   4.921   8.421
 5460TIP3    H237940   1.713   4.954   0.063
 5461TIP3   OH237941   0.639   4.270   1.570
 5461TIP3    H137942   0.658   4.215   1.494
 5461TIP3    H237943   0.618   4.356   1.533
 5462TIP3   OH237944   0.690   4.116   1.338
 5462TIP3    H137945   0.745   4.167   1.279
 5462TIP3    H237946   0.602   4.120   1.299
 5463TIP3   OH237947   0.807   4.657   1.377
 5463TIP3    H137948   0.901   4.660   1.359
 5463TIP3    H237949   0.772   4.735   1.333
 5464TIP3   OH237950   1.230   4.469   1.846
 5464TIP3    H137951   1.212   4.452   1.939
 5464TIP3    H237952   1.313   4.516   1.846
 5465TIP3   OH237953   1.389   4.725   1.667
 5465TIP3    H137954   1.379   4.806   1.618
 5465TIP3    H237955   1.477   4.729   1.704
 5466TIP3   OH237956   0.759   3.856   1.409
 5466TIP3    H137957   0.741   3.947   1.389
 5466TIP3    H237958   0.688   3.807   1.368
 5467TIP3   OH237959   0.858   4.228   1.728
 5467TIP3    H137960   0.846   4.144   1.774
 5467TIP3    H237961   0.778   4.238   1.677
 5468TIP3   OH237962   1.111   4.178   1.629
 5468TIP3    H137963   1.020   4.186   1.660
 5468TIP3    H237964   1.159   4.144   1.704
 5469TIP3   OH237965   1.236   4.070   1.842
 5469TIP3    H137966   1.268   3.985   1.814
 5469TIP3    H237967   1.207   4.057   1.932
 5470TIP3   OH237968   0.299   4.162   1.776
 5470TIP3    H137969   0.321   4.083   1.727
 5470TIP3    H237970   0.360   4.163   1.849
 5471TIP3   OH237971   0.743   3.760   1.667
 5471TIP3    H137972   0.810   3.691   1.668
 5471TIP3    H237973   0.749   3.797   1.579
 5472TIP3   OH237974   0.821   3.982   1.841
 5472TIP3    H137975   0.788   3.898   1.807
 5472TIP3    H237976   0.865   3.959   1.923
 5473TIP3   OH237977   0.773   5.646   0.156
 5473TIP3    H137978   0.861   5.669   0.185
 5473TIP3    H237979   0.771   5.669   0.064
 5474TIP3   OH237980   0.152   5.137   0.124
 5474TIP3    H137981   0.246   5.134   0.142
 5474TIP3    H237982   0.142   5.094   0.039
 5475TIP3   OH237983   0.076   5.664   0.675
 5475TIP3    H137984   0.017   5.664   0.600
 5475TIP3    H237985   0.082   5.572   0.701
 5476TIP3   OH237986   0.088   5.412   0.798
 5476TIP3    H137987   0.084   5.324   0.837
 5476TIP3    H237988   0.138   5.463   0.861
 5477TIP3   OH237989   1.836   5.506   1.138
 5477TIP3    H137990   1.828   5.489   1.232
 5477TIP3    H237991   1.892   5.584   1.133
 5478TIP3   OH237992   1.804   5.450   1.404
 5478TIP3    H137993   1.741   5.382   1.381
 5478TIP3    H237994   1.846   5.418   1.484
 5479TIP3   OH237995   1.788   4.873   0.409
 5479TIP3    H137996   1.855   4.941   0.418
 5479TIP3    H237997   1.798   4.818   0.487
 5480TIP3   OH237998   1.834   4.686   0.611
 5480TIP3    H137999   1.751   4.655   0.646
 5480TIP3    H238000   1.889   4.701   0.688
 5481TIP3   OH238001   1.800   4.999   1.124
 5481TIP3    H138002   1.863   4.937   1.088
 5481TIP3    H238003   1.827   5.084   1.088
 5482TIP3   OH238004   1.624   5.259   1.324
 5482TIP3    H138005   1.549   5.270   1.382
 5482TIP3    H238006   1.585   5.238   1.239
 5483TIP3   OH238007   1.830   4.698   0.204
 5483TIP3    H138008   1.771   4.735   0.138
 5483TIP3    H238009   1.819   4.754   0.281
 5484TIP3   OH238010   1.604   4.400   0.090
 5484TIP3    H138011   1.672   4.414   0.024
 5484TIP3    H238012   1.582   4.307   0.083
 5485TIP3   OH238013   1.579   4.564   0.654
 5485TIP3    H138014   1.577   4.475   0.620
 5485TIP3    H238015   1.537   4.558   0.740
 5486TIP3   OH238016   0.105   4.771   1.047
 5486TIP3    H138017   0.144   4.826   0.978
 5486TIP3    H238018   0.180   4.739   1.097
 5487TIP3   OH238019   1.664   4.711   1.713
 5487TIP3    H138020   1.738   4.657   1.741
 5487TIP3    H238021   1.679   4.726   1.620
 5488TIP3   OH238022   1.862   4.489   1.705
 5488TIP3    H138023   1.771   4.477   1.679
 5488TIP3    H238024   1.897   4.401   1.715
 5489TIP3   OH238025   1.551   4.138   0.076
 5489TIP3    H138026   1.624   4.081   0.102
 5489TIP3    H238027   1.475   4.098   0.117
 5490TIP3   OH238028   1.569   4.320   0.486
 5490TIP3    H138029   1.594   4.228   0.493
 5490TIP3    H238030   1.641   4.362   0.439
 5491TIP3   OH238031   1.599   4.345   1.064
 5491TIP3    H138032   1.692   4.344   1.043
 5491TIP3    H238033   1.595   4.378   1.154
 5492TIP3   OH238034   1.607   4.439   1.327
 5492TIP3    H138035   1.519   4.456   1.363
 5492TIP3    H238036   1.655   4.520   1.344
 5493TIP3   OH238037   0.062   4.247   1.677
 5493TIP3    H138038   0.152   4.234   1.707
 5493TIP3    H238039   0.008   4.209   1.747
 5494TIP3   OH238040   1.860   3.868   1.806
 5494TIP3    H138041   1.855   3.825   1.892
 5494TIP3    H238042   1.924   3.816   1.757
 5495TIP3   OH238043   1.633   4.049   0.501
 5495TIP3    H138044   1.651   4.016   0.589
 5495TIP3    H238045   1.567   3.989   0.466
 5496TIP3   OH238046   0.187   4.132   0.961
 5496TIP3    H138047   0.223   4.043   0.965
 5496TIP3    H238048   0.260   4.189   0.987
 5497TIP3   OH238049   0.016   4.508   1.083
 5497TIP3    H138050   0.087   4.479   1.026
 5497TIP3    H238051   0.031   4.602   1.096
 5498TIP3   OH238052   1.788   4.015   0.173
 5498TIP3    H138053   1.857   3.949   0.181
 5498TIP3    H238054   1.831   4.098   0.190
 5499TIP3   OH238055   0.138   4.025   0.405
 5499TIP3    H138056   0.065   4.018   0.468
 5499TIP3    H238057   0.122   4.107   0.359
 5500TIP3   OH238058   1.494   5.556   0.668
 5500TIP3    H138059   1.572   5.555   0.613
 5500TIP3    H238060   1.520   5.604   0.746
 5501TIP3   OH238061   0.045   3.919   1.341
 5501TIP3    H138062   0.011   3.975   1.411
 5501TIP3    H238063   0.005   3.954   1.261
 5502TIP3   OH238064   0.223   5.248   1.744
 5502TIP3    H138065   0.129   5.250   1.727
 5502TIP3    H238066   0.231   5.203   1.828
 5503TIP3   OH238067   0.581   5.354   1.375
 5503TIP3    H138068   0.548   5.440   1.348
 5503TIP3    H238069   0.674   5.357   1.355
 5504TIP3   OH238070   0.959   5.484   1.637
 5504TIP3    H138071   0.968   5.443   1.723
 5504TIP3    H238072   1.043   5.527   1.622
 5505TIP3   OH238073   1.207   5.607   1.604
 5505TIP3    H138074   1.274   5.546   1.572
 5505TIP3    H238075   1.246   5.647   1.682
 5506TIP3   OH238076   1.688   3.819   1.449
 5506TIP3    H138077   1.614   3.822   1.388
 5506TIP3    H238078   1.722   3.730   1.441
 5507TIP3   OH238079   0.256   5.615   1.397
 5507TIP3    H138080   0.194   5.683   1.374
 5507TIP3    H238081   0.242   5.601   1.491
 5508TIP3   OH238082   0.519   5.612   1.291
 5508TIP3    H138083   0.428   5.623   1.318
 5508TIP3    H238084   0.527   5.666   1.212
 5509TIP3   OH238085   0.980   5.603   1.193
 5509TIP3    H138086   0.931   5.648   1.124
 5509TIP3    H238087   0.993   5.670   1.261
 5510TIP3   OH238088   1.212   5.473   1.268
 5510TIP3    H138089   1.133   5.520   1.242
 5510TIP3    H238090   1.280   5.540   1.269
 5511TIP3   OH238091   1.450   5.621   1.280
 5511TIP3    H138092   1.476   5.713   1.269
 5511TIP3    H238093   1.492   5.576   1.207
 5512TIP3   OH238094   0.236   5.501   1.019
 5512TIP3    H138095   0.228   5.463   1.107
 5512TIP3    H238096   0.312   5.457   0.980
 5513TIP3   OH238097   0.451   5.370   0.918
 5513TIP3    H138098   0.435   5.279   0.945
 5513TIP3    H238099   0.535   5.392   0.958
 5514TIP3   OH238100   0.704   5.404   1.035
 5514TIP3    H138101   0.715   5.314   1.006
 5514TIP3    H238102   0.742   5.406   1.122
 5515TIP3   OH238103   1.002   3.967   0.877
 5515TIP3    H138104   0.950   3.908   0.930
 5515TIP3    H238105   1.088   3.926   0.872
 5516TIP3   OH238106   1.529   3.823   0.906
 5516TIP3    H138107   1.595   3.874   0.861
 5516TIP3    H238108   1.462   3.887   0.932
 5517TIP3   OH238109   1.708   3.942   0.744
 5517TIP3    H138110   1.773   3.874   0.727
 5517TIP3    H238111   1.759   4.020   0.764
 5518TIP3   OH238112   0.315   3.827   0.674
 5518TIP3    H138113   0.226   3.819   0.641
 5518TIP3    H238114   0.352   3.739   0.666
 5519TIP3   OH238115   0.227   3.814   0.249
 5519TIP3    H138116   0.289   3.866   0.197
 5519TIP3    H238117   0.188   3.877   0.310
 5520TIP3   OH238118   0.771   3.854   0.698
 5520TIP3    H138119   0.860   3.880   0.673
 5520TIP3    H238120   0.776   3.840   0.793
 5521TIP3   OH238121   1.239   3.842   0.838
 5521TIP3    H138122   1.308   3.829   0.773
 5521TIP3    H238123   1.226   3.755   0.876
 5522TIP3   OH238124   1.428   3.880   0.409
 5522TIP3    H138125   1.357   3.941   0.428
 5522TIP3    H238126   1.390   3.793   0.425
 5523TIP3   OH238127   0.118   5.459   0.359
 5523TIP3    H138128   0.080   5.419   0.280
 5523TIP3    H238129   0.156   5.541   0.328
 5524TIP3   OH238130   0.396   3.980   0.115
 5524TIP3    H138131   0.410   4.032   0.035
 5524TIP3    H238132   0.458   4.016   0.178
 5525TIP3   OH238133   0.822   4.040   0.421
 5525TIP3    H138134   0.905   3.993   0.420
 5525TIP3    H238135   0.845   4.128   0.449
 5526TIP3   OH238136   1.046   5.661   0.213
 5526TIP3    H138137   1.138   5.686   0.209
 5526TIP3    H238138   1.042   5.574   0.174
 5527TIP3   OH238139   1.703   5.538   0.484
 5527TIP3    H138140   1.684   5.448   0.458
 5527TIP3    H238141   1.689   5.590   0.405
 5528TIP3   OH238142   0.343   3.942   1.607
 5528TIP3    H138143   0.303   3.880   1.545
 5528TIP3    H238144   0.433   3.913   1.616
 5529TIP3   OH238145   0.319   5.544   0.014
 5529TIP3    H138146   0.273   5.597   0.079
 5529TIP3    H238147   0.390   5.503   0.063
 5530TIP3   OH238148   1.323   3.809   1.836
 5530TIP3    H138149   1.292   3.829   1.924
 5530TIP3    H238150   1.414   3.781   1.848
 5531TIP3   OH238151   1.635   5.422   1.660
 5531TIP3    H138152   1.552   5.414   1.612
 5531TIP3    H238153   1.619   5.493   1.723
 5532TIP3   OH238154   3.057   4.789   0.623
 5532TIP3    H138155   3.052   4.883   0.607
 5532TIP3    H238156   3.022   4.778   0.711
 5533TIP3   OH238157   2.953   4.706   1.035
 5533TIP3    H138158   2.978   4.677   1.123
 5533TIP3    H238159   2.901   4.634   1.000
 5534TIP3   OH238160   2.185   4.686   1.202
 5534TIP3    H138161   2.170   4.594   1.224
 5534TIP3    H238162   2.225   4.724   1.280
 5535TIP3   OH238163   3.343   5.018   0.878
 5535TIP3    H138164   3.313   4.942   0.928
 5535TIP3    H238165   3.364   5.084   0.944
 5536TIP3   OH238166   2.327   5.104   0.966
 5536TIP3    H138167   2.284   5.018   0.961
 5536TIP3    H238168   2.412   5.085   1.005
 5537TIP3   OH238169   1.977   4.465   0.511
 5537TIP3    H138170   1.945   4.545   0.553
 5537TIP3    H238171   1.901   4.431   0.463
 5538TIP3   OH238172   2.042   4.694   0.802
 5538TIP3    H138173   2.057   4.606   0.836
 5538TIP3    H238174   2.123   4.741   0.823
 5539TIP3   OH238175   3.078   5.498   0.916
 5539TIP3    H138176   3.112   5.434   0.854
 5539TIP3    H238177   3.048   5.445   0.990
 5540TIP3   OH238178   2.819   4.956   1.073
 5540TIP3    H138179   2.855   4.873   1.041
 5540TIP3    H238180   2.883   4.987   1.137
 5541TIP3   OH238181   3.689   4.098   1.160
 5541TIP3    H138182   3.686   4.155   1.237
 5541TIP3    H238183   3.742   4.147   1.096
 5542TIP3   OH238184   3.103   4.387   1.055
 5542TIP3    H138185   3.115   4.295   1.081
 5542TIP3    H238186   3.097   4.383   0.959
 5543TIP3   OH238187   2.465   4.186   0.809
 5543TIP3    H138188   2.465   4.272   0.766
 5543TIP3    H238189   2.407   4.133   0.754
 5544TIP3   OH238190   3.235   4.195   0.641
 5544TIP3    H138191   3.267   4.169   0.727
 5544TIP3    H238192   3.309   4.241   0.600
 5545TIP3   OH238193   2.103   4.438   0.889
 5545TIP3    H138194   2.164   4.398   0.951
 5545TIP3    H238195   2.126   4.398   0.805
 5546TIP3   OH238196   2.609   4.582   0.825
 5546TIP3    H138197   2.685   4.540   0.865
 5546TIP3    H238198   2.563   4.511   0.780
 5547TIP3   OH238199   3.688   4.268   1.373
 5547TIP3    H138200   3.613   4.327   1.371
 5547TIP3    H238201   3.729   4.283   1.459
 5548TIP3   OH238202   2.323   4.105   1.240
 5548TIP3    H138203   2.296   4.167   1.173
 5548TIP3    H238204   2.255   4.110   1.307
 5549TIP3   OH238205   3.049   5.052   0.549
 5549TIP3    H138206   3.033   5.055   0.455
 5549TIP3    H238207   3.002   5.129   0.583
 5550TIP3   OH238208   2.585   4.877   1.203
 5550TIP3    H138209   2.532   4.945   1.244
 5550TIP3    H238210   2.658   4.924   1.163
 5551TIP3   OH238211   3.320   4.165   0.899
 5551TIP3    H138212   3.256   4.136   0.964
 5551TIP3    H238213   3.382   4.218   0.948
 5552TIP3   OH238214   2.300   4.275   1.019
 5552TIP3    H138215   2.349   4.335   1.075
 5552TIP3    H238216   2.365   4.240   0.958
 5553TIP3   OH238217   2.432   5.077   1.320
 5553TIP3    H138218   2.440   5.173   1.314
 5553TIP3    H238219   2.339   5.062   1.338
 5554TIP3   OH238220   2.001   5.055   0.399
 5554TIP3    H138221   1.993   5.105   0.318
 5554TIP3    H238222   2.023   5.120   0.466
 5555TIP3   OH238223   3.376   5.221   1.073
 5555TIP3    H138224   3.282   5.219   1.093
 5555TIP3    H238225   3.395   5.313   1.054
 5556TIP3   OH238226   3.438   3.972   1.176
 5556TIP3    H138227   3.413   4.017   1.256
 5556TIP3    H238228   3.523   4.010   1.153
 5557TIP3   OH238229   2.672   3.796   0.979
 5557TIP3    H138230   2.651   3.703   0.987
 5557TIP3    H238231   2.595   3.842   1.012
 5558TIP3   OH238232   3.201   5.363   0.702
 5558TIP3    H138233   3.245   5.280   0.683
 5558TIP3    H238234   3.270   5.429   0.701
 5559TIP3   OH238235   3.311   5.122   0.624
 5559TIP3    H138236   3.226   5.084   0.601
 5559TIP3    H238237   3.333   5.080   0.708
 5560TIP3   OH238238   3.499   5.005   1.436
 5560TIP3    H138239   3.488   4.946   1.361
 5560TIP3    H238240   3.508   5.092   1.398
 5561TIP3   OH238241   2.929   4.678   0.403
 5561TIP3    H138242   2.866   4.748   0.385
 5561TIP3    H238243   2.985   4.715   0.471
 5562TIP3   OH238244   2.930   4.538   0.162
 5562TIP3    H138245   2.929   4.586   0.245
 5562TIP3    H238246   3.023   4.526   0.143
 5563TIP3   OH238247   3.649   4.662   1.266
 5563TIP3    H138248   3.581   4.727   1.252
 5563TIP3    H238249   3.719   4.686   1.205
 5564TIP3   OH238250   3.297   4.729   0.496
 5564TIP3    H138251   3.222   4.751   0.551
 5564TIP3    H238252   3.359   4.687   0.555
 5565TIP3   OH238253   3.242   4.518   1.448
 5565TIP3    H138254   3.256   4.590   1.509
 5565TIP3    H238255   3.177   4.551   1.386
 5566TIP3   OH238256   2.461   4.779   0.705
 5566TIP3    H138257   2.436   4.738   0.623
 5566TIP3    H238258   2.518   4.715   0.748
 5567TIP3   OH238259   2.620   5.134   0.970
 5567TIP3    H138260   2.622   5.136   0.874
 5567TIP3    H238261   2.693   5.078   0.994
 5568TIP3   OH238262   2.472   4.672   1.057
 5568TIP3    H138263   2.534   4.657   0.985
 5568TIP3    H238264   2.512   4.743   1.108
 5569TIP3   OH238265   3.116   5.219   1.151
 5569TIP3    H138266   3.099   5.295   1.206
 5569TIP3    H238267   3.074   5.146   1.198
 5570TIP3   OH238268   2.594   5.097   1.552
 5570TIP3    H138269   2.533   5.157   1.595
 5570TIP3    H238270   2.547   5.067   1.474
 5571TIP3   OH238271   3.216   4.608   0.260
 5571TIP3    H138272   3.238   4.654   0.341
 5571TIP3    H238273   3.250   4.665   0.190
 5572TIP3   OH238274   2.265   4.728   1.479
 5572TIP3    H138275   2.264   4.807   1.534
 5572TIP3    H238276   2.180   4.688   1.495
 5573TIP3   OH238277   2.947   5.300   0.616
 5573TIP3    H138278   3.028   5.330   0.657
 5573TIP3    H238279   2.908   5.379   0.580
 5574TIP3   OH238280   2.394   5.278   1.609
 5574TIP3    H138281   2.392   5.310   1.519
 5574TIP3    H238282   2.302   5.257   1.629
 5575TIP3   OH238283   3.536   3.813   0.251
 5575TIP3    H138284   3.455   3.835   0.298
 5575TIP3    H238285   3.575   3.898   0.232
 5576TIP3   OH238286   2.361   4.683   0.436
 5576TIP3    H138287   2.309   4.756   0.405
 5576TIP3    H238288   2.298   4.622   0.475
 5577TIP3   OH238289   3.650   5.251   0.132
 5577TIP3    H138290   3.672   5.345   0.133
 5577TIP3    H238291   3.735   5.207   0.124
 5578TIP3   OH238292   1.921   4.955   1.370
 5578TIP3    H138293   1.883   4.983   1.287
 5578TIP3    H238294   1.879   4.870   1.388
 5579TIP3   OH238295   1.918   5.250   1.057
 5579TIP3    H138296   1.994   5.251   1.115
 5579TIP3    H238297   1.869   5.328   1.081
 5580TIP3   OH238298   3.748   5.308   1.635
 5580TIP3    H138299   3.745   5.213   1.623
 5580TIP3    H238300   3.661   5.331   1.666
 5581TIP3   OH238301   2.830   5.226   1.494
 5581TIP3    H138302   2.834   5.305   1.547
 5581TIP3    H238303   2.746   5.185   1.517
 5582TIP3   OH238304   2.919   5.574   0.494
 5582TIP3    H138305   2.901   5.596   0.403
 5582TIP3    H238306   2.889   5.651   0.543
 5583TIP3   OH238307   2.257   5.464   0.673
 5583TIP3    H138308   2.279   5.434   0.761
 5583TIP3    H238309   2.202   5.395   0.637
 5584TIP3   OH238310   3.210   5.517   0.147
 5584TIP3    H138311   3.281   5.456   0.124
 5584TIP3    H238312   3.210   5.519   0.243
 5585TIP3   OH238313   3.183   5.519   0.430
 5585TIP3    H138314   3.091   5.528   0.455
 5585TIP3    H238315   3.222   5.467   0.501
 5586TIP3   OH238316   3.468   4.363   1.643
 5586TIP3    H138317   3.386   4.413   1.648
 5586TIP3    H238318   3.482   4.330   1.731
 5587TIP3   OH238319   2.166   5.079   1.405
 5587TIP3    H138320   2.191   5.044   1.490
 5587TIP3    H238321   2.082   5.038   1.385
 5588TIP3   OH238322   2.436   3.911   1.071
 5588TIP3    H138323   2.356   3.897   1.019
 5588TIP3    H238324   2.412   3.982   1.131
 5589TIP3   OH238325   2.947   3.867   1.439
 5589TIP3    H138326   3.014   3.822   1.490
 5589TIP3    H238327   2.869   3.863   1.494
 5590TIP3   OH238328   3.198   4.246   1.475
 5590TIP3    H138329   3.149   4.245   1.557
 5590TIP3    H238330   3.221   4.338   1.462
 5591TIP3   OH238331   3.325   4.781   0.073
 5591TIP3    H138332   3.399   4.797   0.015
 5591TIP3    H238333   3.343   4.834   0.150
 5592TIP3   OH238334   2.892   4.100   0.155
 5592TIP3    H138335   2.813   4.149   0.136
 5592TIP3    H238336   2.876   4.013   0.119
 5593TIP3   OH238337   2.431   4.438   1.196
 5593TIP3    H138338   2.363   4.445   1.263
 5593TIP3    H238339   2.438   4.526   1.158
 5594TIP3   OH238340   2.448   4.417   0.662
 5594TIP3    H138341   2.353   4.408   0.666
 5594TIP3    H238342   2.470   4.394   0.571
 5595TIP3   OH238343   2.985   4.431   0.520
 5595TIP3    H138344   2.963   4.516   0.482
 5595TIP3    H238345   3.060   4.401   0.468
 5596TIP3   OH238346   2.872   4.448   1.650
 5596TIP3    H138347   2.833   4.370   1.690
 5596TIP3    H238348   2.966   4.436   1.662
 5597TIP3   OH238349   3.081   4.386   0.784
 5597TIP3    H138350   3.035   4.426   0.711
 5597TIP3    H238351   3.131   4.314   0.746
 5598TIP3   OH238352   2.195   4.430   1.351
 5598TIP3    H138353   2.138   4.485   1.405
 5598TIP3    H238354   2.174   4.341   1.378
 5599TIP3   OH238355   2.638   4.182   0.056
 5599TIP3    H138356   2.590   4.167   0.137
 5599TIP3    H238357   2.577   4.157   8.486
 5600TIP3   OH238358   1.875   4.153   0.756
 5600TIP3    H138359   1.947   4.150   0.820
 5600TIP3    H238360   1.917   4.137   0.672
 5601TIP3   OH238361   1.945   4.229   0.248
 5601TIP3    H138362   2.014   4.266   0.193
 5601TIP3    H238363   1.893   4.305   0.275
 5602TIP3   OH238364   3.035   4.557   1.258
 5602TIP3    H138365   3.069   4.499   1.190
 5602TIP3    H238366   2.968   4.505   1.302
 5603TIP3   OH238367   2.742   4.148   0.780
 5603TIP3    H138368   2.650   4.157   0.806
 5603TIP3    H238369   2.785   4.111   0.857
 5604TIP3   OH238370   2.187   4.342   0.641
 5604TIP3    H138371   2.111   4.374   0.592
 5604TIP3    H238372   2.189   4.248   0.624
 5605TIP3   OH238373   2.543   4.369   0.398
 5605TIP3    H138374   2.623   4.336   0.438
 5605TIP3    H238375   2.555   4.464   0.394
 5606TIP3   OH238376   3.100   4.110   1.065
 5606TIP3    H138377   3.078   4.105   1.158
 5606TIP3    H238378   3.026   4.068   1.021
 5607TIP3   OH238379   2.414   4.482   0.120
 5607TIP3    H138380   2.412   4.420   0.192
 5607TIP3    H238381   2.507   4.492   0.099
 5608TIP3   OH238382   3.498   5.644   1.743
 5608TIP3    H138383   3.520   5.686   1.660
 5608TIP3    H238384   3.571   5.665   1.801
 5609TIP3   OH238385   2.235   4.962   1.653
 5609TIP3    H138386   2.290   4.931   1.725
 5609TIP3    H238387   2.197   5.044   1.685
 5610TIP3   OH238388   2.817   4.461   0.959
 5610TIP3    H138389   2.899   4.414   0.945
 5610TIP3    H238390   2.775   4.414   1.031
 5611TIP3   OH238391   2.296   4.072   0.613
 5611TIP3    H138392   2.236   4.010   0.654
 5611TIP3    H238393   2.312   4.037   0.526
 5612TIP3   OH238394   2.689   4.334   1.172
 5612TIP3    H138395   2.606   4.379   1.189
 5612TIP3    H238396   2.745   4.359   1.245
 5613TIP3   OH238397   2.760   4.891   0.363
 5613TIP3    H138398   2.683   4.860   0.315
 5613TIP3    H238399   2.724   4.927   0.445
 5614TIP3   OH238400   3.465   4.858   1.207
 5614TIP3    H138401   3.528   4.911   1.158
 5614TIP3    H238402   3.394   4.842   1.145
 5615TIP3   OH238403   3.162   4.152   0.174
 5615TIP3    H138404   3.067   4.144   0.165
 5615TIP3    H238405   3.176   4.238   0.214
 5616TIP3   OH238406   2.900   4.930   1.518
 5616TIP3    H138407   2.927   4.897   1.603
 5616TIP3    H238408   2.862   5.016   1.538
 5617TIP3   OH238409   3.207   4.356   0.356
 5617TIP3    H138410   3.289   4.346   0.403
 5617TIP3    H238411   3.212   4.443   0.317
 5618TIP3   OH238412   2.270   4.814   0.910
 5618TIP3    H138413   2.340   4.813   0.844
 5618TIP3    H238414   2.306   4.765   0.984
 5619TIP3   OH238415   2.979   5.042   0.271
 5619TIP3    H138416   2.933   5.125   0.282
 5619TIP3    H238417   2.915   4.975   0.294
 5620TIP3   OH238418   2.016   4.596   1.496
 5620TIP3    H138419   1.975   4.564   1.576
 5620TIP3    H238420   1.945   4.636   1.447
 5621TIP3   OH238421   2.690   4.664   1.696
 5621TIP3    H138422   2.615   4.631   1.646
 5621TIP3    H238423   2.761   4.603   1.674
 5622TIP3   OH238424   3.112   5.208   1.483
 5622TIP3    H138425   3.017   5.211   1.475
 5622TIP3    H238426   3.129   5.219   1.577
 5623TIP3   OH238427   3.641   4.442   0.313
 5623TIP3    H138428   3.578   4.415   0.245
 5623TIP3    H238429   3.663   4.533   0.291
 5624TIP3   OH238430   3.720   5.036   1.598
 5624TIP3    H138431   3.629   5.027   1.568
 5624TIP3    H238432   3.773   5.005   1.524
 5625TIP3   OH238433   3.528   5.292   0.389
 5625TIP3    H138434   3.481   5.219   0.430
 5625TIP3    H238435   3.559   5.257   0.305
 5626TIP3   OH238436   3.259   4.791   1.022
 5626TIP3    H138437   3.165   4.780   1.035
 5626TIP3    H238438   3.288   4.707   0.985
 5627TIP3   OH238439   2.534   5.209   0.701
 5627TIP3    H138440   2.547   5.294   0.659
 5627TIP3    H238441   2.449   5.216   0.744
 5628TIP3   OH238442   2.102   4.676   0.145
 5628TIP3    H138443   2.146   4.735   0.206
 5628TIP3    H238444   2.009   4.690   0.161
 5629TIP3   OH238445   2.619   4.974   0.583
 5629TIP3    H138446   2.600   5.061   0.617
 5629TIP3    H238447   2.565   4.915   0.634
 5630TIP3   OH238448   2.721   5.382   1.281
 5630TIP3    H138449   2.779   5.456   1.264
 5630TIP3    H238450   2.771   5.326   1.340
 5631TIP3   OH238451   2.519   5.474   0.586
 5631TIP3    H138452   2.427   5.483   0.610
 5631TIP3    H238453   2.562   5.550   0.627
 5632TIP3   OH238454   3.017   4.977   1.272
 5632TIP3    H138455   2.967   4.962   1.352
 5632TIP3    H238456   3.104   4.943   1.291
 5633TIP3   OH238457   3.244   5.084   0.147
 5633TIP3    H138458   3.300   5.036   0.208
 5633TIP3    H238459   3.156   5.079   0.185
 5634TIP3   OH238460   3.310   5.410   1.468
 5634TIP3    H138461   3.231   5.357   1.454
 5634TIP3    H238462   3.303   5.481   1.404
 5635TIP3   OH238463   3.717   5.519   0.172
 5635TIP3    H138464   3.782   5.589   0.167
 5635TIP3    H238465   3.634   5.564   0.188
 5636TIP3   OH238466   2.114   4.144   1.426
 5636TIP3    H138467   2.025   4.174   1.411
 5636TIP3    H238468   2.104   4.055   1.460
 5637TIP3   OH238469   3.403   4.907   0.309
 5637TIP3    H138470   3.357   4.860   0.378
 5637TIP3    H238471   3.493   4.913   0.341
 5638TIP3   OH238472   2.108   5.335   1.255
 5638TIP3    H138473   2.134   5.257   1.305
 5638TIP3    H238474   2.105   5.405   1.321
 5639TIP3   OH238475   2.523   5.170   0.287
 5639TIP3    H138476   2.600   5.126   0.322
 5639TIP3    H238477   2.542   5.264   0.298
 5640TIP3   OH238478   2.197   4.874   0.316
 5640TIP3    H138479   2.126   4.916   0.364
 5640TIP3    H238480   2.241   4.946   0.270
 5641TIP3   OH238481   3.011   4.113   1.326
 5641TIP3    H138482   3.086   4.144   1.378
 5641TIP3    H238483   2.989   4.029   1.366
 5642TIP3   OH238484   3.112   4.052   0.431
 5642TIP3    H138485   3.138   4.108   0.357
 5642TIP3    H238486   3.138   4.102   0.509
 5643TIP3   OH238487   2.824   5.262   0.304
 5643TIP3    H138488   2.752   5.319   0.332
 5643TIP3    H238489   2.874   5.316   0.243
 5644TIP3   OH238490   2.761   4.270   0.534
 5644TIP3    H138491   2.839   4.325   0.529
 5644TIP3    H238492   2.756   4.244   0.626
 5645TIP3   OH238493   2.871   4.367   1.377
 5645TIP3    H138494   2.860   4.390   1.469
 5645TIP3    H238495   2.911   4.280   1.378
 5646TIP3   OH238496   2.918   3.972   0.639
 5646TIP3    H138497   2.887   4.046   0.691
 5646TIP3    H238498   2.992   3.938   0.689
 5647TIP3   OH238499   2.604   5.430   0.329
 5647TIP3    H138500   2.605   5.514   0.284
 5647TIP3    H238501   2.574   5.450   0.418
 5648TIP3   OH238502   2.489   4.114   0.283
 5648TIP3    H138503   2.485   4.196   0.332
 5648TIP3    H238504   2.554   4.061   0.329
 5649TIP3   OH238505   3.421   4.083   1.428
 5649TIP3    H138506   3.349   4.142   1.449
 5649TIP3    H238507   3.494   4.115   1.482
 5650TIP3   OH238508   3.328   4.540   0.908
 5650TIP3    H138509   3.242   4.498   0.906
 5650TIP3    H238510   3.382   4.482   0.961
 5651TIP3   OH238511   2.285   5.092   0.166
 5651TIP3    H138512   2.339   5.142   0.227
 5651TIP3    H238513   2.347   5.052   0.105
 5652TIP3   OH238514   2.070   4.418   0.063
 5652TIP3    H138515   2.057   4.496   0.117
 5652TIP3    H238516   1.988   4.408   0.014
 5653TIP3   OH238517   3.457   5.489   1.064
 5653TIP3    H138518   3.445   5.559   1.001
 5653TIP3    H238519   3.551   5.486   1.079
 5654TIP3   OH238520   2.189   3.868   0.960
 5654TIP3    H138521   2.171   3.863   0.866
 5654TIP3    H238522   2.156   3.785   0.995
 5655TIP3   OH238523   2.060   5.279   0.566
 5655TIP3    H138524   2.014   5.309   0.644
 5655TIP3    H238525   2.043   5.347   0.500
 5656TIP3   OH238526   2.011   5.573   1.672
 5656TIP3    H138527   1.989   5.611   1.757
 5656TIP3    H238528   1.970   5.486   1.673
 5657TIP3   OH238529   2.461   5.424   1.835
 5657TIP3    H138530   2.526   5.366   1.875
 5657TIP3    H238531   2.439   5.381   1.752
 5658TIP3   OH238532   2.964   5.399   0.116
 5658TIP3    H138533   2.940   5.361   0.032
 5658TIP3    H238534   3.056   5.425   0.105
 5659TIP3   OH238535   3.163   5.242   1.748
 5659TIP3    H138536   3.112   5.188   1.809
 5659TIP3    H238537   3.205   5.308   1.803
 5660TIP3   OH238538   3.378   5.319   0.059
 5660TIP3    H138539   3.333   5.238   0.084
 5660TIP3    H238540   3.471   5.298   0.068
 5661TIP3   OH238541   2.486   4.957   0.040
 5661TIP3    H138542   2.514   4.914   0.121
 5661TIP3    H238543   2.491   4.889   8.473
 5662TIP3   OH238544   2.649   4.938   1.777
 5662TIP3    H138545   2.634   4.980   1.692
 5662TIP3    H238546   2.669   4.847   1.755
 5663TIP3   OH238547   3.231   4.952   1.483
 5663TIP3    H138548   3.323   4.978   1.478
 5663TIP3    H238549   3.183   5.035   1.486
 5664TIP3   OH238550   2.548   4.763   0.235
 5664TIP3    H138551   2.487   4.735   0.303
 5664TIP3    H238552   2.576   4.682   0.193
 5665TIP3   OH238553   2.501   4.552   1.505
 5665TIP3    H138554   2.422   4.605   1.497
 5665TIP3    H238555   2.561   4.588   1.440
 5666TIP3   OH238556   2.675   4.555   0.056
 5666TIP3    H138557   2.688   4.507   8.474
 5666TIP3    H238558   2.760   4.555   0.099
 5667TIP3   OH238559   2.991   4.847   1.824
 5667TIP3    H138560   3.073   4.816   1.862
 5667TIP3    H238561   2.923   4.817   1.886
 5668TIP3   OH238562   3.594   4.883   8.499
 5668TIP3    H138563   3.577   4.913   8.409
 5668TIP3    H238564   3.601   4.963   0.050
 5669TIP3   OH238565   2.566   4.292   1.579
 5669TIP3    H138566   2.567   4.235   1.502
 5669TIP3    H238567   2.546   4.378   1.544
 5670TIP3   OH238568   2.577   4.127   1.345
 5670TIP3    H138569   2.626   4.176   1.279
 5670TIP3    H238570   2.488   4.122   1.311
 5671TIP3   OH238571   2.692   4.665   1.344
 5671TIP3    H138572   2.772   4.701   1.383
 5671TIP3    H238573   2.654   4.738   1.295
 5672TIP3   OH238574   3.298   4.722   1.621
 5672TIP3    H138575   3.261   4.801   1.581
 5672TIP3    H238576   3.392   4.737   1.620
 5673TIP3   OH238577   2.387   4.358   1.789
 5673TIP3    H138578   2.322   4.290   1.776
 5673TIP3    H238579   2.451   4.344   1.718
 5674TIP3   OH238580   2.625   3.848   1.404
 5674TIP3    H138581   2.610   3.941   1.389
 5674TIP3    H238582   2.549   3.804   1.366
 5675TIP3   OH238583   2.757   4.213   1.764
 5675TIP3    H138584   2.719   4.152   1.827
 5675TIP3    H238585   2.687   4.231   1.701
 5676TIP3   OH238586   3.036   4.213   1.699
 5676TIP3    H138587   2.946   4.189   1.717
 5676TIP3    H238588   3.088   4.156   1.755
 5677TIP3   OH238589   2.191   4.151   1.762
 5677TIP3    H138590   2.190   4.134   1.668
 5677TIP3    H238591   2.243   4.080   1.799
 5678TIP3   OH238592   2.761   3.800   1.640
 5678TIP3    H138593   2.773   3.707   1.657
 5678TIP3    H238594   2.695   3.803   1.571
 5679TIP3   OH238595   2.648   5.641   0.152
 5679TIP3    H138596   2.737   5.657   0.183
 5679TIP3    H238597   2.650   5.668   0.060
 5680TIP3   OH238598   2.011   5.130   0.097
 5680TIP3    H138599   2.104   5.131   0.120
 5680TIP3    H238600   2.010   5.135   0.001
 5681TIP3   OH238601   1.900   5.612   0.661
 5681TIP3    H138602   1.840   5.583   0.593
 5681TIP3    H238603   1.917   5.534   0.714
 5682TIP3   OH238604   1.972   5.392   0.815
 5682TIP3    H138605   1.934   5.320   0.866
 5682TIP3    H238606   2.023   5.443   0.879
 5683TIP3   OH238607   3.723   5.492   1.140
 5683TIP3    H138608   3.712   5.487   1.235
 5683TIP3    H238609   3.786   5.563   1.127
 5684TIP3   OH238610   3.664   5.455   1.408
 5684TIP3    H138611   3.606   5.385   1.377
 5684TIP3    H238612   3.714   5.416   1.480
 5685TIP3   OH238613   3.535   5.121   1.884
 5685TIP3    H138614   3.489   5.145   1.965
 5685TIP3    H238615   3.515   5.193   1.823
 5686TIP3   OH238616   3.665   4.878   0.416
 5686TIP3    H138617   3.734   4.944   0.423
 5686TIP3    H238618   3.679   4.821   0.492
 5687TIP3   OH238619   3.719   4.687   0.616
 5687TIP3    H138620   3.635   4.658   0.652
 5687TIP3    H238621   3.774   4.703   0.693
 5688TIP3   OH238622   3.697   4.983   1.127
 5688TIP3    H138623   3.756   4.916   1.090
 5688TIP3    H238624   3.730   5.066   1.091
 5689TIP3   OH238625   3.494   5.255   1.325
 5689TIP3    H138626   3.421   5.299   1.368
 5689TIP3    H238627   3.462   5.238   1.236
 5690TIP3   OH238628   3.692   4.700   0.211
 5690TIP3    H138629   3.648   4.746   0.139
 5690TIP3    H238630   3.683   4.759   0.286
 5691TIP3   OH238631   3.484   4.368   0.091
 5691TIP3    H138632   3.557   4.393   0.034
 5691TIP3    H238633   3.463   4.279   0.064
 5692TIP3   OH238634   3.460   4.574   0.667
 5692TIP3    H138635   3.461   4.482   0.642
 5692TIP3    H238636   3.421   4.575   0.755
 5693TIP3   OH238637   1.984   4.810   1.052
 5693TIP3    H138638   2.001   4.785   0.961
 5693TIP3    H238639   2.062   4.781   1.100
 5694TIP3   OH238640   3.573   4.752   1.623
 5694TIP3    H138641   3.618   4.668   1.624
 5694TIP3    H238642   3.616   4.802   1.553
 5695TIP3   OH238643   3.696   4.509   1.610
 5695TIP3    H138644   3.618   4.455   1.619
 5695TIP3    H238645   3.765   4.460   1.653
 5696TIP3   OH238646   3.410   4.107   0.035
 5696TIP3    H138647   3.492   4.074   0.071
 5696TIP3    H238648   3.348   4.099   0.108
 5697TIP3   OH238649   3.451   4.313   0.493
 5697TIP3    H138650   3.487   4.224   0.499
 5697TIP3    H238651   3.519   4.363   0.448
 5698TIP3   OH238652   3.475   4.349   1.045
 5698TIP3    H138653   3.569   4.355   1.029
 5698TIP3    H238654   3.465   4.367   1.138
 5699TIP3   OH238655   3.480   4.445   1.306
 5699TIP3    H138656   3.408   4.472   1.362
 5699TIP3    H238657   3.538   4.521   1.303
 5700TIP3   OH238658   1.922   4.215   1.705
 5700TIP3    H138659   2.014   4.198   1.725
 5700TIP3    H238660   1.879   4.130   1.715
 5701TIP3   OH238661   3.669   3.828   1.809
 5701TIP3    H138662   3.745   3.775   1.784
 5701TIP3    H238663   3.696   3.871   1.890
 5702TIP3   OH238664   3.528   4.045   0.505
 5702TIP3    H138665   3.551   4.011   0.591
 5702TIP3    H238666   3.460   3.986   0.473
 5703TIP3   OH238667   2.083   4.123   0.932
 5703TIP3    H138668   2.110   4.034   0.955
 5703TIP3    H238669   2.148   4.179   0.974
 5704TIP3   OH238670   1.872   4.350   1.038
 5704TIP3    H138671   1.940   4.363   0.973
 5704TIP3    H238672   1.867   4.433   1.086
 5705TIP3   OH238673   3.662   4.049   1.635
 5705TIP3    H138674   3.658   4.007   1.721
 5705TIP3    H238675   3.654   3.977   1.572
 5706TIP3   OH238676   3.662   4.037   0.145
 5706TIP3    H138677   3.733   3.974   0.131
 5706TIP3    H238678   3.706   4.116   0.175
 5707TIP3   OH238679   1.924   4.088   0.490
 5707TIP3    H138680   1.833   4.061   0.484
 5707TIP3    H238681   1.944   4.126   0.405
 5708TIP3   OH238682   3.384   5.557   0.668
 5708TIP3    H138683   3.462   5.557   0.612
 5708TIP3    H238684   3.412   5.603   0.747
 5709TIP3   OH238685   1.916   3.895   1.301
 5709TIP3    H138686   1.845   3.880   1.364
 5709TIP3    H238687   1.883   3.965   1.245
 5710TIP3   OH238688   2.141   5.221   1.717
 5710TIP3    H138689   2.055   5.248   1.686
 5710TIP3    H238690   2.156   5.274   1.795
 5711TIP3   OH238691   2.454   5.352   1.345
 5711TIP3    H138692   2.422   5.439   1.322
 5711TIP3    H238693   2.549   5.358   1.332
 5712TIP3   OH238694   2.856   5.457   1.637
 5712TIP3    H138695   2.862   5.427   1.728
 5712TIP3    H238696   2.933   5.513   1.626
 5713TIP3   OH238697   3.083   5.613   1.594
 5713TIP3    H138698   3.151   5.557   1.559
 5713TIP3    H238699   3.119   5.645   1.677
 5714TIP3   OH238700   3.599   3.835   1.465
 5714TIP3    H138701   3.518   3.861   1.421
 5714TIP3    H238702   3.604   3.741   1.451
 5715TIP3   OH238703   2.143   5.634   1.367
 5715TIP3    H138704   2.065   5.677   1.334
 5715TIP3    H238705   2.146   5.657   1.460
 5716TIP3   OH238706   2.403   5.615   1.279
 5716TIP3    H138707   2.313   5.625   1.309
 5716TIP3    H238708   2.407   5.664   1.197
 5717TIP3   OH238709   2.866   5.605   1.192
 5717TIP3    H138710   2.807   5.642   1.126
 5717TIP3    H238711   2.872   5.674   1.259
 5718TIP3   OH238712   3.095   5.470   1.263
 5718TIP3    H138713   3.015   5.517   1.240
 5718TIP3    H238714   3.163   5.537   1.260
 5719TIP3   OH238715   3.333   5.617   1.275
 5719TIP3    H138716   3.357   5.709   1.261
 5719TIP3    H238717   3.375   5.570   1.203
 5720TIP3   OH238718   2.130   5.503   1.024
 5720TIP3    H138719   2.111   5.460   1.107
 5720TIP3    H238720   2.209   5.460   0.992
 5721TIP3   OH238721   2.344   5.371   0.916
 5721TIP3    H138722   2.328   5.279   0.940
 5721TIP3    H238723   2.427   5.392   0.959
 5722TIP3   OH238724   2.598   5.406   1.032
 5722TIP3    H138725   2.611   5.316   1.003
 5722TIP3    H238726   2.629   5.407   1.123
 5723TIP3   OH238727   2.892   3.970   0.936
 5723TIP3    H138728   2.825   3.906   0.960
 5723TIP3    H238729   2.965   3.917   0.902
 5724TIP3   OH238730   3.405   3.840   0.898
 5724TIP3    H138731   3.476   3.882   0.850
 5724TIP3    H238732   3.395   3.893   0.977
 5725TIP3   OH238733   3.612   3.923   0.738
 5725TIP3    H138734   3.675   3.853   0.718
 5725TIP3    H238735   3.667   4.000   0.755
 5726TIP3   OH238736   2.140   3.860   0.689
 5726TIP3    H138737   2.053   3.839   0.656
 5726TIP3    H238738   2.195   3.787   0.660
 5727TIP3   OH238739   2.001   3.847   0.224
 5727TIP3    H138740   2.076   3.903   0.207
 5727TIP3    H238741   2.029   3.793   0.298
 5728TIP3   OH238742   2.685   3.828   0.681
 5728TIP3    H138743   2.767   3.879   0.683
 5728TIP3    H238744   2.658   3.823   0.772
 5729TIP3   OH238745   3.108   3.852   0.798
 5729TIP3    H138746   3.200   3.866   0.816
 5729TIP3    H238747   3.090   3.763   0.831
 5730TIP3   OH238748   3.324   3.879   0.409
 5730TIP3    H138749   3.251   3.940   0.420
 5730TIP3    H238750   3.287   3.794   0.432
 5731TIP3   OH238751   2.021   5.467   0.371
 5731TIP3    H138752   1.947   5.458   0.311
 5731TIP3    H238753   2.049   5.558   0.363
 5732TIP3   OH238754   2.301   3.976   0.107
 5732TIP3    H138755   2.295   3.881   0.119
 5732TIP3    H238756   2.351   4.007   0.183
 5733TIP3   OH238757   2.704   4.016   0.439
 5733TIP3    H138758   2.667   3.970   0.514
 5733TIP3    H238759   2.723   4.104   0.471
 5734TIP3   OH238760   2.914   5.644   0.225
 5734TIP3    H138761   2.992   5.694   0.198
 5734TIP3    H238762   2.928   5.557   0.186
 5735TIP3   OH238763   3.592   5.539   0.483
 5735TIP3    H138764   3.573   5.449   0.455
 5735TIP3    H238765   3.576   5.592   0.405
 5736TIP3   OH238766   2.159   3.892   1.594
 5736TIP3    H138767   2.107   3.821   1.632
 5736TIP3    H238768   2.235   3.900   1.652
 5737TIP3   OH238769   2.353   3.927   1.789
 5737TIP3    H138770   2.448   3.919   1.779
 5737TIP3    H238771   2.336   3.901   1.880
 5738TIP3   OH238772   2.230   5.526   8.495
 5738TIP3    H138773   2.167   5.594   0.016
 5738TIP3    H238774   2.257   5.490   0.080
 5739TIP3   OH238775   3.486   5.371   1.691
 5739TIP3    H138776   3.422   5.368   1.620
 5739TIP3    H238777   3.485   5.462   1.721
 5740TIP3   OH238778   4.992   4.797   0.607
 5740TIP3    H138779   4.965   4.887   0.622
 5740TIP3    H238780   4.912   4.751   0.582
 5741TIP3   OH238781   4.847   4.706   1.051
 5741TIP3    H138782   4.871   4.669   1.135
 5741TIP3    H238783   4.795   4.638   1.008
 5742TIP3   OH238784   4.057   4.638   1.218
 5742TIP3    H138785   4.060   4.553   1.262
 5742TIP3    H238786   4.112   4.695   1.273
 5743TIP3   OH238787   5.228   5.017   0.881
 5743TIP3    H138788   5.195   4.941   0.930
 5743TIP3    H238789   5.248   5.082   0.948
 5744TIP3   OH238790   4.209   5.105   0.972
 5744TIP3    H138791   4.172   5.017   0.961
 5744TIP3    H238792   4.298   5.089   1.005
 5745TIP3   OH238793   3.845   4.452   0.518
 5745TIP3    H138794   3.822   4.535   0.560
 5745TIP3    H238795   3.775   4.436   0.454
 5746TIP3   OH238796   3.914   4.700   0.821
 5746TIP3    H138797   3.941   4.610   0.843
 5746TIP3    H238798   3.992   4.753   0.838
 5747TIP3   OH238799   4.969   5.503   0.912
 5747TIP3    H138800   5.002   5.441   0.848
 5747TIP3    H238801   4.929   5.449   0.980
 5748TIP3   OH238802   4.703   4.958   1.073
 5748TIP3    H138803   4.739   4.875   1.041
 5748TIP3    H238804   4.769   4.991   1.134
 5749TIP3   OH238805   5.574   4.110   1.157
 5749TIP3    H138806   5.585   4.158   1.238
 5749TIP3    H238807   5.615   4.166   1.090
 5750TIP3   OH238808   5.005   4.383   1.072
 5750TIP3    H138809   5.018   4.291   1.092
 5750TIP3    H238810   4.980   4.384   0.979
 5751TIP3   OH238811   4.338   4.189   0.811
 5751TIP3    H138812   4.345   4.274   0.768
 5751TIP3    H238813   4.281   4.138   0.754
 5752TIP3   OH238814   5.130   4.211   0.650
 5752TIP3    H138815   5.170   4.181   0.732
 5752TIP3    H238816   5.201   4.252   0.602
 5753TIP3   OH238817   3.987   4.443   0.891
 5753TIP3    H138818   4.050   4.403   0.951
 5753TIP3    H238819   4.009   4.405   0.806
 5754TIP3   OH238820   4.484   4.589   0.841
 5754TIP3    H138821   4.563   4.549   0.876
 5754TIP3    H238822   4.443   4.519   0.790
 5755TIP3   OH238823   5.597   4.239   1.396
 5755TIP3    H138824   5.525   4.302   1.386
 5755TIP3    H238825   5.575   4.191   1.477
 5756TIP3   OH238826   4.210   4.103   1.235
 5756TIP3    H138827   4.179   4.167   1.171
 5756TIP3    H238828   4.145   4.106   1.306
 5757TIP3   OH238829   4.909   5.060   0.574
 5757TIP3    H138830   4.892   5.055   0.480
 5757TIP3    H238831   4.861   5.137   0.604
 5758TIP3   OH238832   4.474   4.877   1.210
 5758TIP3    H138833   4.420   4.946   1.248
 5758TIP3    H238834   4.546   4.923   1.168
 5759TIP3   OH238835   5.238   4.161   0.894
 5759TIP3    H138836   5.167   4.135   0.954
 5759TIP3    H238837   5.292   4.221   0.946
 5760TIP3   OH238838   4.177   4.278   1.019
 5760TIP3    H138839   4.231   4.337   1.073
 5760TIP3    H238840   4.238   4.241   0.956
 5761TIP3   OH238841   4.317   5.080   1.317
 5761TIP3    H138842   4.324   5.175   1.311
 5761TIP3    H238843   4.227   5.064   1.345
 5762TIP3   OH238844   3.879   5.057   0.406
 5762TIP3    H138845   3.878   5.100   0.321
 5762TIP3    H238846   3.905   5.126   0.467
 5763TIP3   OH238847   5.259   5.225   1.070
 5763TIP3    H138848   5.166   5.226   1.093
 5763TIP3    H238849   5.280   5.317   1.053
 5764TIP3   OH238850   5.312   4.005   1.196
 5764TIP3    H138851   5.250   4.076   1.185
 5764TIP3    H238852   5.398   4.044   1.177
 5765TIP3   OH238853   4.557   3.796   0.975
 5765TIP3    H138854   4.532   3.704   0.983
 5765TIP3    H238855   4.482   3.844   1.009
 5766TIP3   OH238856   5.086   5.357   0.700
 5766TIP3    H138857   5.125   5.271   0.683
 5766TIP3    H238858   5.161   5.417   0.703
 5767TIP3   OH238859   5.175   5.097   0.626
 5767TIP3    H138860   5.081   5.077   0.621
 5767TIP3    H238861   5.201   5.064   0.712
 5768TIP3   OH238862   5.359   5.013   1.429
 5768TIP3    H138863   5.358   4.947   1.358
 5768TIP3    H238864   5.377   5.095   1.384
 5769TIP3   OH238865   4.800   4.685   0.437
 5769TIP3    H138866   4.736   4.754   0.421
 5769TIP3    H238867   4.858   4.687   0.361
 5770TIP3   OH238868   4.828   4.513   0.118
 5770TIP3    H138869   4.889   4.560   0.176
 5770TIP3    H238870   4.882   4.446   0.076
 5771TIP3   OH238871   5.550   4.659   1.264
 5771TIP3    H138872   5.475   4.719   1.262
 5771TIP3    H238873   5.607   4.689   1.194
 5772TIP3   OH238874   5.215   4.697   0.493
 5772TIP3    H138875   5.143   4.737   0.542
 5772TIP3    H238876   5.262   4.644   0.557
 5773TIP3   OH238877   5.148   4.521   1.451
 5773TIP3    H138878   5.155   4.589   1.518
 5773TIP3    H238879   5.079   4.552   1.392
 5774TIP3   OH238880   4.340   4.781   0.702
 5774TIP3    H138881   4.318   4.739   0.619
 5774TIP3    H238882   4.395   4.717   0.747
 5775TIP3   OH238883   4.500   5.134   0.970
 5775TIP3    H138884   4.501   5.136   0.874
 5775TIP3    H238885   4.573   5.077   0.993
 5776TIP3   OH238886   4.342   4.686   1.062
 5776TIP3    H138887   4.403   4.661   0.992
 5776TIP3    H238888   4.391   4.749   1.114
 5777TIP3   OH238889   5.002   5.235   1.157
 5777TIP3    H138890   4.987   5.302   1.224
 5777TIP3    H238891   4.964   5.155   1.194
 5778TIP3   OH238892   4.478   5.102   1.546
 5778TIP3    H138893   4.416   5.157   1.594
 5778TIP3    H238894   4.429   5.074   1.469
 5779TIP3   OH238895   5.032   4.639   0.281
 5779TIP3    H138896   5.074   4.664   0.363
 5779TIP3    H238897   5.084   4.684   0.214
 5780TIP3   OH238898   4.165   4.727   1.472
 5780TIP3    H138899   4.176   4.800   1.533
 5780TIP3    H238900   4.072   4.705   1.479
 5781TIP3   OH238901   4.822   5.316   0.628
 5781TIP3    H138902   4.909   5.339   0.661
 5781TIP3    H238903   4.793   5.394   0.581
 5782TIP3   OH238904   4.281   5.283   1.618
 5782TIP3    H138905   4.280   5.314   1.528
 5782TIP3    H238906   4.189   5.271   1.641
 5783TIP3   OH238907   5.409   3.808   0.255
 5783TIP3    H138908   5.327   3.830   0.300
 5783TIP3    H238909   5.447   3.894   0.233
 5784TIP3   OH238910   4.250   4.690   0.438
 5784TIP3    H138911   4.193   4.760   0.407
 5784TIP3    H238912   4.190   4.616   0.454
 5785TIP3   OH238913   5.546   5.242   0.131
 5785TIP3    H138914   5.565   5.336   0.127
 5785TIP3    H238915   5.631   5.200   0.119
 5786TIP3   OH238916   3.842   4.932   1.376
 5786TIP3    H138917   3.791   4.930   1.295
 5786TIP3    H238918   3.857   4.840   1.397
 5787TIP3   OH238919   3.812   5.236   1.058
 5787TIP3    H138920   3.892   5.237   1.110
 5787TIP3    H238921   3.763   5.314   1.085
 5788TIP3   OH238922   5.642   5.313   1.650
 5788TIP3    H138923   5.625   5.220   1.633
 5788TIP3    H238924   5.557   5.348   1.676
 5789TIP3   OH238925   4.705   5.250   1.506
 5789TIP3    H138926   4.705   5.322   1.570
 5789TIP3    H238927   4.623   5.203   1.524
 5790TIP3   OH238928   4.805   5.569   0.491
 5790TIP3    H138929   4.787   5.584   0.398
 5790TIP3    H238930   4.779   5.650   0.534
 5791TIP3   OH238931   4.143   5.464   0.673
 5791TIP3    H138932   4.164   5.433   0.762
 5791TIP3    H238933   4.088   5.395   0.636
 5792TIP3   OH238934   5.089   5.529   0.154
 5792TIP3    H138935   5.159   5.470   0.127
 5792TIP3    H238936   5.093   5.528   0.250
 5793TIP3   OH238937   5.074   5.524   0.440
 5793TIP3    H138938   4.980   5.530   0.457
 5793TIP3    H238939   5.110   5.481   0.517
 5794TIP3   OH238940   5.361   4.420   1.663
 5794TIP3    H138941   5.284   4.470   1.639
 5794TIP3    H238942   5.354   4.338   1.615
 5795TIP3   OH238943   4.062   5.091   1.427
 5795TIP3    H138944   4.091   5.055   1.511
 5795TIP3    H238945   3.985   5.039   1.404
 5796TIP3   OH238946   4.317   3.907   1.068
 5796TIP3    H138947   4.238   3.899   1.014
 5796TIP3    H238948   4.296   3.978   1.129
 5797TIP3   OH238949   4.794   3.835   1.381
 5797TIP3    H138950   4.824   3.760   1.433
 5797TIP3    H238951   4.701   3.844   1.404
 5798TIP3   OH238952   5.063   4.251   1.471
 5798TIP3    H138953   5.009   4.236   1.549
 5798TIP3    H238954   5.079   4.346   1.472
 5799TIP3   OH238955   5.235   4.776   0.144
 5799TIP3    H138956   5.232   4.728   0.061
 5799TIP3    H238957   5.194   4.860   0.126
 5800TIP3   OH238958   4.799   4.099   0.139
 5800TIP3    H138959   4.731   4.092   0.206
 5800TIP3    H238960   4.752   4.107   0.057
 5801TIP3   OH238961   4.324   4.438   1.186
 5801TIP3    H138962   4.265   4.437   1.261
 5801TIP3    H238963   4.322   4.528   1.154
 5802TIP3   OH238964   4.330   4.425   0.672
 5802TIP3    H138965   4.235   4.418   0.672
 5802TIP3    H238966   4.356   4.402   0.582
 5803TIP3   OH238967   4.875   4.445   0.545
 5803TIP3    H138968   4.845   4.530   0.512
 5803TIP3    H238969   4.942   4.416   0.483
 5804TIP3   OH238970   4.804   4.483   1.673
 5804TIP3    H138971   4.751   4.414   1.712
 5804TIP3    H238972   4.886   4.482   1.722
 5805TIP3   OH238973   4.962   4.382   0.802
 5805TIP3    H138974   4.918   4.425   0.729
 5805TIP3    H238975   5.013   4.312   0.762
 5806TIP3   OH238976   4.119   4.407   1.374
 5806TIP3    H138977   4.142   4.439   1.462
 5806TIP3    H238978   4.082   4.321   1.390
 5807TIP3   OH238979   4.477   4.172   0.065
 5807TIP3    H138980   4.452   4.127   0.146
 5807TIP3    H238981   4.461   4.265   0.085
 5808TIP3   OH238982   3.793   4.123   0.744
 5808TIP3    H138983   3.833   4.136   0.830
 5808TIP3    H238984   3.865   4.137   0.682
 5809TIP3   OH238985   3.828   4.241   0.247
 5809TIP3    H138986   3.906   4.277   0.206
 5809TIP3    H238987   3.777   4.318   0.273
 5810TIP3   OH238988   4.926   4.553   1.271
 5810TIP3    H138989   4.960   4.493   1.204
 5810TIP3    H238990   4.865   4.500   1.322
 5811TIP3   OH238991   4.615   4.167   0.759
 5811TIP3    H138992   4.527   4.166   0.796
 5811TIP3    H238993   4.667   4.117   0.822
 5812TIP3   OH238994   4.068   4.344   0.645
 5812TIP3    H138995   3.993   4.369   0.591
 5812TIP3    H238996   4.087   4.254   0.618
 5813TIP3   OH238997   4.394   4.335   0.418
 5813TIP3    H138998   4.487   4.334   0.439
 5813TIP3    H238999   4.389   4.373   0.330
 5814TIP3   OH239000   5.027   4.105   1.060
 5814TIP3    H139001   4.992   4.092   1.149
 5814TIP3    H239002   4.967   4.056   1.004
 5815TIP3   OH239003   4.352   4.406   0.153
 5815TIP3    H139004   4.262   4.424   0.127
 5815TIP3    H239005   4.404   4.473   0.109
 5816TIP3   OH239006   4.142   4.942   1.655
 5816TIP3    H139007   4.207   4.944   1.726
 5816TIP3    H239008   4.058   4.933   1.700
 5817TIP3   OH239009   4.703   4.469   0.965
 5817TIP3    H139010   4.768   4.409   0.927
 5817TIP3    H239011   4.669   4.422   1.041
 5818TIP3   OH239012   4.167   4.077   0.613
 5818TIP3    H139013   4.119   3.998   0.639
 5818TIP3    H239014   4.223   4.048   0.541
 5819TIP3   OH239015   4.590   4.346   1.192
 5819TIP3    H139016   4.505   4.390   1.199
 5819TIP3    H239017   4.639   4.376   1.269
 5820TIP3   OH239018   4.639   4.897   0.363
 5820TIP3    H139019   4.566   4.858   0.314
 5820TIP3    H239020   4.599   4.930   0.443
 5821TIP3   OH239021   5.353   4.846   1.206
 5821TIP3    H139022   5.415   4.902   1.158
 5821TIP3    H239023   5.281   4.832   1.145
 5822TIP3   OH239024   5.063   4.136   0.216
 5822TIP3    H139025   4.977   4.123   0.176
 5822TIP3    H239026   5.062   4.226   0.247
 5823TIP3   OH239027   4.790   4.969   1.510
 5823TIP3    H139028   4.793   4.925   1.594
 5823TIP3    H239029   4.745   5.052   1.529
 5824TIP3   OH239030   5.082   4.373   0.361
 5824TIP3    H139031   5.169   4.365   0.401
 5824TIP3    H239032   5.082   4.460   0.320
 5825TIP3   OH239033   4.154   4.824   0.907
 5825TIP3    H139034   4.215   4.821   0.834
 5825TIP3    H239035   4.195   4.772   0.976
 5826TIP3   OH239036   4.865   5.035   0.290
 5826TIP3    H139037   4.826   5.122   0.295
 5826TIP3    H239038   4.793   4.975   0.309
 5827TIP3   OH239039   3.888   4.684   1.498
 5827TIP3    H139040   3.917   4.663   1.587
 5827TIP3    H239041   3.817   4.622   1.482
 5828TIP3   OH239042   4.587   4.662   1.687
 5828TIP3    H139043   4.520   4.614   1.639
 5828TIP3    H239044   4.667   4.609   1.676
 5829TIP3   OH239045   4.990   5.233   1.495
 5829TIP3    H139046   4.895   5.231   1.482
 5829TIP3    H239047   5.001   5.223   1.590
 5830TIP3   OH239048   5.532   4.453   0.315
 5830TIP3    H139049   5.471   4.429   0.245
 5830TIP3    H239050   5.560   4.542   0.293
 5831TIP3   OH239051   5.579   5.051   1.589
 5831TIP3    H139052   5.493   5.036   1.552
 5831TIP3    H239053   5.640   5.013   1.526
 5832TIP3   OH239054   5.416   5.273   0.370
 5832TIP3    H139055   5.326   5.292   0.343
 5832TIP3    H239056   5.463   5.261   0.287
 5833TIP3   OH239057   5.141   4.787   1.021
 5833TIP3    H139058   5.046   4.778   1.029
 5833TIP3    H239059   5.171   4.705   0.981
 5834TIP3   OH239060   4.419   5.211   0.702
 5834TIP3    H139061   4.436   5.295   0.660
 5834TIP3    H239062   4.329   5.217   0.733
 5835TIP3   OH239063   3.969   4.649   0.190
 5835TIP3    H139064   4.010   4.727   0.229
 5835TIP3    H239065   3.875   4.667   0.194
 5836TIP3   OH239066   4.501   4.975   0.582
 5836TIP3    H139067   4.482   5.061   0.621
 5836TIP3    H239068   4.447   4.914   0.631
 5837TIP3   OH239069   4.606   5.386   1.281
 5837TIP3    H139070   4.668   5.455   1.258
 5837TIP3    H239071   4.651   5.335   1.348
 5838TIP3   OH239072   4.404   5.474   0.584
 5838TIP3    H139073   4.312   5.482   0.608
 5838TIP3    H239074   4.446   5.552   0.622
 5839TIP3   OH239075   4.907   4.991   1.264
 5839TIP3    H139076   4.861   4.984   1.347
 5839TIP3    H239077   4.981   4.931   1.271
 5840TIP3   OH239078   5.112   5.019   0.150
 5840TIP3    H139079   5.165   5.048   0.224
 5840TIP3    H239080   5.022   5.028   0.179
 5841TIP3   OH239081   5.202   5.407   1.469
 5841TIP3    H139082   5.127   5.348   1.473
 5841TIP3    H239083   5.177   5.473   1.405
 5842TIP3   OH239084   5.597   5.507   0.165
 5842TIP3    H139085   5.659   5.561   0.115
 5842TIP3    H239086   5.528   5.568   0.192
 5843TIP3   OH239087   4.024   4.141   1.440
 5843TIP3    H139088   3.951   4.186   1.482
 5843TIP3    H239089   4.036   4.060   1.490
 5844TIP3   OH239090   5.289   5.023   0.389
 5844TIP3    H139091   5.239   5.039   0.469
 5844TIP3    H239092   5.359   5.087   0.391
 5845TIP3   OH239093   4.001   5.345   1.265
 5845TIP3    H139094   4.027   5.267   1.314
 5845TIP3    H239095   4.012   5.417   1.326
 5846TIP3   OH239096   4.426   5.172   0.260
 5846TIP3    H139097   4.495   5.122   0.304
 5846TIP3    H239098   4.446   5.263   0.280
 5847TIP3   OH239099   4.076   4.876   0.322
 5847TIP3    H139100   4.005   4.920   0.370
 5847TIP3    H239101   4.120   4.946   0.275
 5848TIP3   OH239102   4.921   4.076   1.305
 5848TIP3    H139103   4.966   4.122   1.376
 5848TIP3    H239104   4.880   4.001   1.348
 5849TIP3   OH239105   4.989   4.049   0.476
 5849TIP3    H139106   5.005   4.090   0.390
 5849TIP3    H239107   5.028   4.109   0.539
 5850TIP3   OH239108   4.724   5.264   0.312
 5850TIP3    H139109   4.651   5.320   0.340
 5850TIP3    H239110   4.769   5.315   0.245
 5851TIP3   OH239111   4.648   4.292   0.518
 5851TIP3    H139112   4.725   4.348   0.529
 5851TIP3    H239113   4.634   4.253   0.605
 5852TIP3   OH239114   4.764   4.383   1.416
 5852TIP3    H139115   4.770   4.421   1.503
 5852TIP3    H239116   4.783   4.290   1.428
 5853TIP3   OH239117   4.753   3.953   0.583
 5853TIP3    H139118   4.744   4.003   0.664
 5853TIP3    H239119   4.837   3.979   0.547
 5854TIP3   OH239120   4.499   5.427   0.331
 5854TIP3    H139121   4.496   5.510   0.284
 5854TIP3    H239122   4.466   5.447   0.418
 5855TIP3   OH239123   4.349   4.082   0.302
 5855TIP3    H139124   4.333   4.168   0.342
 5855TIP3    H239125   4.436   4.057   0.334
 5856TIP3   OH239126   5.326   4.190   1.513
 5856TIP3    H139127   5.233   4.201   1.491
 5856TIP3    H239128   5.344   4.098   1.496
 5857TIP3   OH239129   5.213   4.533   0.908
 5857TIP3    H139130   5.125   4.497   0.905
 5857TIP3    H239131   5.261   4.476   0.967
 5858TIP3   OH239132   4.178   5.093   0.175
 5858TIP3    H139133   4.247   5.139   0.222
 5858TIP3    H239134   4.225   5.037   0.112
 5859TIP3   OH239135   4.030   4.397   0.103
 5859TIP3    H139136   4.013   4.485   0.137
 5859TIP3    H239137   4.001   4.401   0.012
 5860TIP3   OH239138   5.343   5.492   1.070
 5860TIP3    H139139   5.331   5.561   1.005
 5860TIP3    H239140   5.437   5.486   1.083
 5861TIP3   OH239141   4.070   3.878   0.945
 5861TIP3    H139142   4.060   3.868   0.850
 5861TIP3    H239143   4.042   3.794   0.981
 5862TIP3   OH239144   3.948   5.284   0.566
 5862TIP3    H139145   3.898   5.313   0.642
 5862TIP3    H239146   3.930   5.350   0.499
 5863TIP3   OH239147   3.915   5.530   1.709
 5863TIP3    H139148   3.989   5.473   1.732
 5863TIP3    H239149   3.847   5.470   1.678
 5864TIP3   OH239150   4.348   5.398   1.862
 5864TIP3    H139151   4.421   5.348   1.898
 5864TIP3    H239152   4.330   5.357   1.778
 5865TIP3   OH239153   4.851   5.394   0.113
 5865TIP3    H139154   4.824   5.355   0.029
 5865TIP3    H239155   4.941   5.423   0.097
 5866TIP3   OH239156   5.017   5.210   1.763
 5866TIP3    H139157   4.954   5.151   1.803
 5866TIP3    H239158   5.088   5.216   1.826
 5867TIP3   OH239159   5.253   5.346   0.032
 5867TIP3    H139160   5.220   5.273   8.481
 5867TIP3    H239161   5.348   5.341   0.025
 5868TIP3   OH239162   3.900   4.925   1.783
 5868TIP3    H139163   3.874   4.839   1.815
 5868TIP3    H239164   3.823   4.958   1.737
 5869TIP3   OH239165   4.331   4.911   0.036
 5869TIP3    H139166   4.372   4.869   0.111
 5869TIP3    H239167   4.355   4.857   8.462
 5870TIP3   OH239168   4.558   4.937   1.755
 5870TIP3    H139169   4.534   4.978   1.672
 5870TIP3    H239170   4.573   4.845   1.733
 5871TIP3   OH239171   5.111   4.927   1.516
 5871TIP3    H139172   5.197   4.963   1.495
 5871TIP3    H239173   5.053   5.003   1.520
 5872TIP3   OH239174   3.987   4.600   1.740
 5872TIP3    H139175   4.056   4.534   1.733
 5872TIP3    H239176   3.971   4.608   1.834
 5873TIP3   OH239177   4.438   4.757   0.238
 5873TIP3    H139178   4.382   4.722   0.308
 5873TIP3    H239179   4.475   4.680   0.195
 5874TIP3   OH239180   4.384   4.546   1.493
 5874TIP3    H139181   4.311   4.608   1.490
 5874TIP3    H239182   4.446   4.578   1.428
 5875TIP3   OH239183   4.560   4.568   0.066
 5875TIP3    H139184   4.567   4.589   8.473
 5875TIP3    H239185   4.649   4.546   0.093
 5876TIP3   OH239186   5.510   4.893   8.499
 5876TIP3    H139187   5.455   4.891   8.421
 5876TIP3    H239188   5.529   4.985   0.014
 5877TIP3   OH239189   4.408   4.287   1.590
 5877TIP3    H139190   4.430   4.227   1.519
 5877TIP3    H239191   4.407   4.373   1.549
 5878TIP3   OH239192   4.462   4.131   1.345
 5878TIP3    H139193   4.512   4.186   1.284
 5878TIP3    H239194   4.374   4.128   1.307
 5879TIP3   OH239195   4.574   4.648   1.328
 5879TIP3    H139196   4.663   4.669   1.357
 5879TIP3    H239197   4.541   4.730   1.290
 5880TIP3   OH239198   5.032   4.449   1.842
 5880TIP3    H139199   5.071   4.371   1.880
 5880TIP3    H239200   5.101   4.515   1.848
 5881TIP3   OH239201   5.205   4.704   1.653
 5881TIP3    H139202   5.156   4.779   1.619
 5881TIP3    H239203   5.297   4.730   1.645
 5882TIP3   OH239204   4.179   4.396   1.721
 5882TIP3    H139205   4.130   4.319   1.749
 5882TIP3    H239206   4.263   4.361   1.691
 5883TIP3   OH239207   4.517   3.861   1.400
 5883TIP3    H139208   4.498   3.953   1.386
 5883TIP3    H239209   4.443   3.814   1.362
 5884TIP3   OH239210   4.653   4.276   1.757
 5884TIP3    H139211   4.665   4.236   1.843
 5884TIP3    H239212   4.562   4.258   1.734
 5885TIP3   OH239213   4.895   4.175   1.670
 5885TIP3    H139214   4.805   4.198   1.694
 5885TIP3    H239215   4.931   4.133   1.749
 5886TIP3   OH239216   4.045   4.158   1.773
 5886TIP3    H139217   4.045   4.076   1.724
 5886TIP3    H239218   4.075   4.133   1.860
 5887TIP3   OH239219   4.487   3.779   1.664
 5887TIP3    H139220   4.522   3.691   1.652
 5887TIP3    H239221   4.497   3.820   1.578
 5888TIP3   OH239222   4.603   3.979   1.829
 5888TIP3    H139223   4.559   3.905   1.785
 5888TIP3    H239224   4.533   4.022   1.878
 5889TIP3   OH239225   4.537   5.636   0.147
 5889TIP3    H139226   4.625   5.651   0.182
 5889TIP3    H239227   4.541   5.668   0.057
 5890TIP3   OH239228   3.904   5.119   0.123
 5890TIP3    H139229   3.997   5.129   0.145
 5890TIP3    H239230   3.903   5.064   0.046
 5891TIP3   OH239231   3.784   5.614   0.664
 5891TIP3    H139232   3.725   5.585   0.594
 5891TIP3    H239233   3.799   5.535   0.716
 5892TIP3   OH239234   3.853   5.391   0.816
 5892TIP3    H139235   3.817   5.317   0.864
 5892TIP3    H239236   3.903   5.441   0.881
 5893TIP3   OH239237   5.611   5.487   1.133
 5893TIP3    H139238   5.609   5.482   1.228
 5893TIP3    H239239   5.687   5.542   1.113
 5894TIP3   OH239240   5.573   5.444   1.404
 5894TIP3    H139241   5.512   5.377   1.374
 5894TIP3    H239242   5.614   5.406   1.482
 5895TIP3   OH239243   5.561   4.873   0.431
 5895TIP3    H139244   5.623   4.945   0.433
 5895TIP3    H239245   5.583   4.820   0.508
 5896TIP3   OH239246   5.605   4.682   0.624
 5896TIP3    H139247   5.525   4.644   0.662
 5896TIP3    H239248   5.662   4.696   0.700
 5897TIP3   OH239249   5.585   4.981   1.132
 5897TIP3    H139250   5.642   4.915   1.094
 5897TIP3    H239251   5.615   5.064   1.094
 5898TIP3   OH239252   5.386   5.263   1.317
 5898TIP3    H139253   5.315   5.305   1.366
 5898TIP3    H239254   5.349   5.246   1.231
 5899TIP3   OH239255   5.567   4.717   0.211
 5899TIP3    H139256   5.548   4.767   0.132
 5899TIP3    H239257   5.594   4.783   0.275
 5900TIP3   OH239258   5.377   4.404   0.094
 5900TIP3    H139259   5.447   4.418   0.030
 5900TIP3    H239260   5.352   4.312   0.082
 5901TIP3   OH239261   5.359   4.548   0.674
 5901TIP3    H139262   5.357   4.455   0.651
 5901TIP3    H239263   5.314   4.552   0.759
 5902TIP3   OH239264   3.844   4.751   1.086
 5902TIP3    H139265   3.859   4.735   0.993
 5902TIP3    H239266   3.923   4.717   1.129
 5903TIP3   OH239267   5.468   4.775   1.649
 5903TIP3    H139268   5.533   4.705   1.663
 5903TIP3    H239269   5.516   4.855   1.667
 5904TIP3   OH239270   5.616   4.532   1.661
 5904TIP3    H139271   5.524   4.507   1.667
 5904TIP3    H239272   5.664   4.450   1.667
 5905TIP3   OH239273   5.308   4.145   0.071
 5905TIP3    H139274   5.377   4.087   0.102
 5905TIP3    H239275   5.230   4.117   0.119
 5906TIP3   OH239276   5.339   4.313   0.487
 5906TIP3    H139277   5.368   4.222   0.488
 5906TIP3    H239278   5.410   4.360   0.442
 5907TIP3   OH239279   5.367   4.350   1.053
 5907TIP3    H139280   5.460   4.356   1.036
 5907TIP3    H239281   5.358   4.369   1.147
 5908TIP3   OH239282   5.392   4.433   1.316
 5908TIP3    H139283   5.314   4.457   1.366
 5908TIP3    H239284   5.443   4.514   1.312
 5909TIP3   OH239285   3.839   4.258   1.617
 5909TIP3    H139286   3.903   4.247   1.687
 5909TIP3    H239287   3.771   4.192   1.635
 5910TIP3   OH239288   5.573   3.833   1.822
 5910TIP3    H139289   5.617   3.766   1.874
 5910TIP3    H239290   5.588   3.915   1.869
 5911TIP3   OH239291   5.406   4.042   0.497
 5911TIP3    H139292   5.428   4.008   0.584
 5911TIP3    H239293   5.334   3.986   0.467
 5912TIP3   OH239294   3.944   4.126   0.972
 5912TIP3    H139295   3.981   4.038   0.980
 5912TIP3    H239296   4.016   4.184   0.998
 5913TIP3   OH239297   3.747   4.395   1.037
 5913TIP3    H139298   3.824   4.410   0.983
 5913TIP3    H239299   3.767   4.440   1.119
 5914TIP3   OH239300   5.584   4.068   1.625
 5914TIP3    H139301   5.540   4.072   1.710
 5914TIP3    H239302   5.584   3.975   1.603
 5915TIP3   OH239303   5.550   4.027   0.157
 5915TIP3    H139304   5.624   3.966   0.160
 5915TIP3    H239305   5.588   4.112   0.181
 5916TIP3   OH239306   3.806   4.017   0.415
 5916TIP3    H139307   3.721   4.027   0.459
 5916TIP3    H239308   3.821   4.102   0.373
 5917TIP3   OH239309   5.280   5.541   0.676
 5917TIP3    H139310   5.357   5.542   0.619
 5917TIP3    H239311   5.305   5.593   0.752
 5918TIP3   OH239312   3.795   3.864   1.263
 5918TIP3    H139313   3.742   3.859   1.342
 5918TIP3    H239314   3.770   3.947   1.222
 5919TIP3   OH239315   4.021   5.264   1.718
 5919TIP3    H139316   3.931   5.260   1.686
 5919TIP3    H239317   4.022   5.208   1.795
 5920TIP3   OH239318   4.340   5.355   1.349
 5920TIP3    H139319   4.309   5.443   1.326
 5920TIP3    H239320   4.434   5.359   1.334
 5921TIP3   OH239321   4.721   5.469   1.677
 5921TIP3    H139322   4.746   5.436   1.763
 5921TIP3    H239323   4.796   5.521   1.648
 5922TIP3   OH239324   4.933   5.604   1.559
 5922TIP3    H139325   4.977   5.544   1.499
 5922TIP3    H239326   5.003   5.633   1.619
 5923TIP3   OH239327   5.493   3.803   1.461
 5923TIP3    H139328   5.413   3.792   1.409
 5923TIP3    H239329   5.526   3.714   1.471
 5924TIP3   OH239330   4.037   5.649   1.378
 5924TIP3    H139331   3.957   5.686   1.340
 5924TIP3    H239332   4.046   5.692   1.463
 5925TIP3   OH239333   4.293   5.619   1.284
 5925TIP3    H139334   4.204   5.632   1.315
 5925TIP3    H239335   4.298   5.668   1.202
 5926TIP3   OH239336   4.758   5.603   1.180
 5926TIP3    H139337   4.696   5.634   1.114
 5926TIP3    H239338   4.760   5.673   1.245
 5927TIP3   OH239339   4.987   5.490   1.286
 5927TIP3    H139340   4.909   5.524   1.244
 5927TIP3    H239341   5.056   5.552   1.263
 5928TIP3   OH239342   5.227   5.633   1.279
 5928TIP3    H139343   5.252   5.724   1.261
 5928TIP3    H239344   5.269   5.583   1.209
 5929TIP3   OH239345   4.010   5.501   1.027
 5929TIP3    H139346   3.996   5.457   1.111
 5929TIP3    H239347   4.089   5.461   0.992
 5930TIP3   OH239348   4.225   5.371   0.919
 5930TIP3    H139349   4.210   5.279   0.943
 5930TIP3    H239350   4.310   5.392   0.959
 5931TIP3   OH239351   4.482   5.406   1.031
 5931TIP3    H139352   4.494   5.316   1.001
 5931TIP3    H239353   4.512   5.406   1.122
 5932TIP3   OH239354   4.771   3.977   0.880
 5932TIP3    H139355   4.720   3.910   0.925
 5932TIP3    H239356   4.855   3.934   0.860
 5933TIP3   OH239357   5.310   3.819   0.895
 5933TIP3    H139358   5.375   3.876   0.855
 5933TIP3    H239359   5.242   3.879   0.927
 5934TIP3   OH239360   5.502   3.927   0.729
 5934TIP3    H139361   5.567   3.859   0.714
 5934TIP3    H239362   5.553   4.006   0.746
 5935TIP3   OH239363   4.041   3.836   0.671
 5935TIP3    H139364   3.948   3.817   0.659
 5935TIP3    H239365   4.084   3.751   0.666
 5936TIP3   OH239366   3.894   3.864   0.203
 5936TIP3    H139367   3.981   3.899   0.185
 5936TIP3    H239368   3.868   3.907   0.285
 5937TIP3   OH239369   4.524   3.813   0.690
 5937TIP3    H139370   4.596   3.866   0.656
 5937TIP3    H239371   4.536   3.815   0.785
 5938TIP3   OH239372   5.015   3.868   0.817
 5938TIP3    H139373   5.074   3.848   0.744
 5938TIP3    H239374   4.998   3.783   0.858
 5939TIP3   OH239375   5.197   3.873   0.416
 5939TIP3    H139376   5.123   3.931   0.431
 5939TIP3    H239377   5.162   3.785   0.432
 5940TIP3   OH239378   3.906   5.469   0.370
 5940TIP3    H139379   3.831   5.456   0.311
 5940TIP3    H239380   3.928   5.561   0.361
 5941TIP3   OH239381   4.143   3.970   0.140
 5941TIP3    H139382   4.163   4.019   0.060
 5941TIP3    H239383   4.205   4.003   0.204
 5942TIP3   OH239384   4.619   4.069   0.362
 5942TIP3    H139385   4.657   4.005   0.423
 5942TIP3    H239386   4.630   4.153   0.406
 5943TIP3   OH239387   4.801   5.637   0.223
 5943TIP3    H139388   4.874   5.690   0.193
 5943TIP3    H239389   4.815   5.551   0.183
 5944TIP3   OH239390   5.483   5.522   0.488
 5944TIP3    H139391   5.473   5.433   0.454
 5944TIP3    H239392   5.471   5.578   0.412
 5945TIP3   OH239393   4.037   3.906   1.607
 5945TIP3    H139394   3.972   3.845   1.641
 5945TIP3    H239395   4.116   3.888   1.658
 5946TIP3   OH239396   4.240   3.838   1.778
 5946TIP3    H139397   4.329   3.814   1.751
 5946TIP3    H239398   4.207   3.761   1.823
 5947TIP3   OH239399   4.140   5.573   0.060
 5947TIP3    H139400   4.050   5.580   0.092
 5947TIP3    H239401   4.168   5.486   0.088
 5948TIP3   OH239402   5.395   5.436   1.667
 5948TIP3    H139403   5.329   5.414   1.602
 5948TIP3    H239404   5.381   5.529   1.686
 5949TIP3   OH239405   6.851   4.800   0.659
 5949TIP3    H139406   6.840   4.894   0.650
 5949TIP3    H239407   6.782   4.762   0.605
 5950TIP3   OH239408   6.705   4.711   1.046
 5950TIP3    H139409   6.730   4.667   1.128
 5950TIP3    H239410   6.660   4.643   0.996
 5951TIP3   OH239411   5.943   4.642   1.209
 5951TIP3    H139412   5.946   4.555   1.250
 5951TIP3    H239413   5.990   4.699   1.270
 5952TIP3   OH239414   7.106   5.019   0.896
 5952TIP3    H139415   7.059   4.949   0.940
 5952TIP3    H239416   7.130   5.080   0.966
 5953TIP3   OH239417   6.091   5.108   0.971
 5953TIP3    H139418   6.056   5.019   0.962
 5953TIP3    H239419   6.183   5.095   0.995
 5954TIP3   OH239420   5.734   4.451   0.522
 5954TIP3    H139421   5.708   4.532   0.566
 5954TIP3    H239422   5.665   4.436   0.457
 5955TIP3   OH239423   5.805   4.697   0.817
 5955TIP3    H139424   5.831   4.609   0.842
 5955TIP3    H239425   5.882   4.751   0.835
 5956TIP3   OH239426   6.802   5.515   0.939
 5956TIP3    H139427   6.828   5.439   0.888
 5956TIP3    H239428   6.766   5.478   1.020
 5957TIP3   OH239429   6.576   4.963   1.066
 5957TIP3    H139430   6.612   4.880   1.036
 5957TIP3    H239431   6.642   4.996   1.128
 5958TIP3   OH239432   6.902   4.381   1.058
 5958TIP3    H139433   6.903   4.289   1.082
 5958TIP3    H239434   6.869   4.383   0.968
 5959TIP3   OH239435   6.234   4.185   0.804
 5959TIP3    H139436   6.237   4.272   0.764
 5959TIP3    H239437   6.174   4.136   0.748
 5960TIP3   OH239438   6.994   4.211   0.645
 5960TIP3    H139439   7.031   4.166   0.721
 5960TIP3    H239440   7.070   4.235   0.592
 5961TIP3   OH239441   5.875   4.442   0.894
 5961TIP3    H139442   5.939   4.404   0.953
 5961TIP3    H239443   5.895   4.404   0.809
 5962TIP3   OH239444   6.369   4.590   0.838
 5962TIP3    H139445   6.448   4.548   0.872
 5962TIP3    H239446   6.327   4.522   0.786
 5963TIP3   OH239447   6.091   4.106   1.235
 5963TIP3    H139448   6.066   4.170   1.169
 5963TIP3    H239449   6.020   4.109   1.300
 5964TIP3   OH239450   6.829   5.056   0.557
 5964TIP3    H139451   6.814   5.052   0.462
 5964TIP3    H239452   6.768   5.123   0.588
 5965TIP3   OH239453   6.356   4.876   1.210
 5965TIP3    H139454   6.301   4.945   1.248
 5965TIP3    H239455   6.425   4.924   1.164
 5966TIP3   OH239456   7.078   4.106   0.882
 5966TIP3    H139457   7.001   4.100   0.939
 5966TIP3    H239458   7.140   4.159   0.932
 5967TIP3   OH239459   6.072   4.276   1.014
 5967TIP3    H139460   6.125   4.335   1.068
 5967TIP3    H239461   6.133   4.240   0.951
 5968TIP3   OH239462   6.201   5.079   1.319
 5968TIP3    H139463   6.210   5.174   1.314
 5968TIP3    H239464   6.111   5.065   1.347
 5969TIP3   OH239465   5.762   5.060   0.395
 5969TIP3    H139466   5.763   5.103   0.310
 5969TIP3    H239467   5.787   5.129   0.457
 5970TIP3   OH239468   7.152   5.222   1.091
 5970TIP3    H139469   7.058   5.222   1.106
 5970TIP3    H239470   7.174   5.315   1.077
 5971TIP3   OH239471   7.134   4.016   1.167
 5971TIP3    H139472   7.041   4.037   1.159
 5971TIP3    H239473   7.179   4.097   1.144
 5972TIP3   OH239474   6.441   3.801   0.980
 5972TIP3    H139475   6.416   3.709   0.982
 5972TIP3    H239476   6.364   3.848   1.011
 5973TIP3   OH239477   6.913   5.351   0.748
 5973TIP3    H139478   6.957   5.267   0.732
 5973TIP3    H239479   6.982   5.416   0.736
 5974TIP3   OH239480   7.075   5.148   0.656
 5974TIP3    H139481   7.004   5.099   0.615
 5974TIP3    H239482   7.100   5.096   0.732
 5975TIP3   OH239483   7.223   4.992   1.530
 5975TIP3    H139484   7.289   4.946   1.478
 5975TIP3    H239485   7.212   5.076   1.485
 5976TIP3   OH239486   6.712   4.702   0.435
 5976TIP3    H139487   6.646   4.767   0.412
 5976TIP3    H239488   6.775   4.705   0.363
 5977TIP3   OH239489   6.729   4.515   0.123
 5977TIP3    H139490   6.789   4.563   0.180
 5977TIP3    H239491   6.785   4.454   0.076
 5978TIP3   OH239492   7.063   4.739   0.498
 5978TIP3    H139493   6.996   4.769   0.559
 5978TIP3    H239494   7.117   4.678   0.550
 5979TIP3   OH239495   7.000   4.560   1.424
 5979TIP3    H139496   7.002   4.649   1.460
 5979TIP3    H239497   6.923   4.559   1.367
 5980TIP3   OH239498   6.224   4.783   0.701
 5980TIP3    H139499   6.203   4.743   0.617
 5980TIP3    H239500   6.281   4.719   0.745
 5981TIP3   OH239501   6.375   5.136   0.965
 5981TIP3    H139502   6.379   5.142   0.870
 5981TIP3    H239503   6.449   5.079   0.989
 5982TIP3   OH239504   6.230   4.682   1.061
 5982TIP3    H139505   6.290   4.661   0.990
 5982TIP3    H239506   6.276   4.748   1.113
 5983TIP3   OH239507   6.887   5.229   1.153
 5983TIP3    H139508   6.867   5.303   1.210
 5983TIP3    H239509   6.842   5.155   1.192
 5984TIP3   OH239510   6.358   5.097   1.551
 5984TIP3    H139511   6.296   5.153   1.598
 5984TIP3    H239512   6.311   5.069   1.473
 5985TIP3   OH239513   6.940   4.651   0.270
 5985TIP3    H139514   6.981   4.684   0.350
 5985TIP3    H239515   6.989   4.692   0.199
 5986TIP3   OH239516   6.033   4.716   1.474
 5986TIP3    H139517   6.049   4.788   1.535
 5986TIP3    H239518   5.939   4.699   1.480
 5987TIP3   OH239519   6.680   5.278   0.625
 5987TIP3    H139520   6.750   5.314   0.680
 5987TIP3    H239521   6.647   5.353   0.575
 5988TIP3   OH239522   6.153   5.263   1.628
 5988TIP3    H139523   6.146   5.304   1.541
 5988TIP3    H239524   6.062   5.253   1.656
 5989TIP3   OH239525   6.137   4.693   0.436
 5989TIP3    H139526   6.080   4.763   0.405
 5989TIP3    H239527   6.078   4.618   0.450
 5990TIP3   OH239528   5.726   4.942   1.382
 5990TIP3    H139529   5.671   4.945   1.303
 5990TIP3    H239530   5.734   4.849   1.401
 5991TIP3   OH239531   5.698   5.230   1.054
 5991TIP3    H139532   5.778   5.233   1.106
 5991TIP3    H239533   5.648   5.307   1.082
 5992TIP3   OH239534   6.595   5.227   1.503
 5992TIP3    H139535   6.587   5.309   1.552
 5992TIP3    H239536   6.513   5.181   1.520
 5993TIP3   OH239537   6.688   5.579   0.491
 5993TIP3    H139538   6.671   5.599   0.399
 5993TIP3    H239539   6.656   5.656   0.539
 5994TIP3   OH239540   6.027   5.464   0.670
 5994TIP3    H139541   6.047   5.433   0.759
 5994TIP3    H239542   5.971   5.395   0.633
 5995TIP3   OH239543   6.971   5.516   0.136
 5995TIP3    H139544   7.041   5.454   0.112
 5995TIP3    H239545   6.967   5.513   0.231
 5996TIP3   OH239546   6.939   5.492   0.416
 5996TIP3    H139547   6.850   5.508   0.447
 5996TIP3    H239548   6.976   5.432   0.480
 5997TIP3   OH239549   7.205   4.485   1.656
 5997TIP3    H139550   7.194   4.486   1.561
 5997TIP3    H239551   7.266   4.413   1.673
 5998TIP3   OH239552   5.949   5.094   1.435
 5998TIP3    H139553   5.983   5.051   1.513
 5998TIP3    H239554   5.869   5.046   1.414
 5999TIP3   OH239555   6.203   3.911   1.070
 5999TIP3    H139556   6.125   3.900   1.015
 5999TIP3    H239557   6.179   3.982   1.130
 6000TIP3   OH239558   6.674   3.868   1.432
 6000TIP3    H139559   6.705   3.850   1.521
 6000TIP3    H239560   6.579   3.875   1.440
 6001TIP3   OH239561   6.968   4.247   1.512
 6001TIP3    H139562   6.900   4.229   1.578
 6001TIP3    H239563   6.974   4.342   1.510
 6002TIP3   OH239564   7.098   4.778   0.083
 6002TIP3    H139565   7.147   4.806   0.006
 6002TIP3    H239566   7.131   4.835   0.153
 6003TIP3   OH239567   6.679   4.069   0.128
 6003TIP3    H139568   6.606   4.086   0.187
 6003TIP3    H239569   6.645   4.086   0.041
 6004TIP3   OH239570   6.214   4.435   1.185
 6004TIP3    H139571   6.151   4.435   1.257
 6004TIP3    H239572   6.213   4.525   1.152
 6005TIP3   OH239573   6.219   4.424   0.671
 6005TIP3    H139574   6.123   4.418   0.673
 6005TIP3    H239575   6.243   4.403   0.581
 6006TIP3   OH239576   6.756   4.451   0.537
 6006TIP3    H139577   6.738   4.541   0.508
 6006TIP3    H239578   6.829   4.423   0.482
 6007TIP3   OH239579   6.672   4.486   1.664
 6007TIP3    H139580   6.616   4.425   1.711
 6007TIP3    H239581   6.756   4.483   1.711
 6008TIP3   OH239582   6.818   4.371   0.799
 6008TIP3    H139583   6.787   4.431   0.731
 6008TIP3    H239584   6.875   4.310   0.753
 6009TIP3   OH239585   5.998   4.411   1.362
 6009TIP3    H139586   6.013   4.449   1.449
 6009TIP3    H239587   5.954   4.328   1.380
 6010TIP3   OH239588   6.373   4.174   0.080
 6010TIP3    H139589   6.365   4.126   0.163
 6010TIP3    H239590   6.351   4.264   0.102
 6011TIP3   OH239591   5.681   4.128   0.734
 6011TIP3    H139592   5.725   4.140   0.819
 6011TIP3    H239593   5.752   4.129   0.670
 6012TIP3   OH239594   5.707   4.240   0.251
 6012TIP3    H139595   5.782   4.277   0.204
 6012TIP3    H239596   5.655   4.316   0.276
 6013TIP3   OH239597   6.782   4.540   1.251
 6013TIP3    H139598   6.826   4.484   1.188
 6013TIP3    H239599   6.730   4.481   1.305
 6014TIP3   OH239600   6.510   4.149   0.757
 6014TIP3    H139601   6.420   4.157   0.790
 6014TIP3    H239602   6.559   4.116   0.832
 6015TIP3   OH239603   5.957   4.344   0.648
 6015TIP3    H139604   5.881   4.370   0.595
 6015TIP3    H239605   5.975   4.254   0.621
 6016TIP3   OH239606   6.281   4.336   0.417
 6016TIP3    H139607   6.374   4.335   0.439
 6016TIP3    H239608   6.278   4.377   0.330
 6017TIP3   OH239609   6.872   4.100   1.068
 6017TIP3    H139610   6.847   4.097   1.160
 6017TIP3    H239611   6.795   4.067   1.021
 6018TIP3   OH239612   6.252   4.414   0.153
 6018TIP3    H139613   6.166   4.437   0.117
 6018TIP3    H239614   6.313   4.475   0.113
 6019TIP3   OH239615   7.250   5.704   1.713
 6019TIP3    H139616   7.244   5.782   1.657
 6019TIP3    H239617   0.040   5.697   1.733
 6020TIP3   OH239618   6.041   4.935   1.654
 6020TIP3    H139619   6.108   4.938   1.723
 6020TIP3    H239620   5.958   4.928   1.701
 6021TIP3   OH239621   6.585   4.464   0.956
 6021TIP3    H139622   6.655   4.411   0.917
 6021TIP3    H239623   6.557   4.412   1.032
 6022TIP3   OH239624   6.055   4.079   0.606
 6022TIP3    H139625   6.011   3.998   0.632
 6022TIP3    H239626   6.098   4.058   0.523
 6023TIP3   OH239627   6.478   4.337   1.189
 6023TIP3    H139628   6.395   4.384   1.194
 6023TIP3    H239629   6.525   4.363   1.268
 6024TIP3   OH239630   6.533   4.896   0.361
 6024TIP3    H139631   6.460   4.859   0.311
 6024TIP3    H239632   6.494   4.929   0.442
 6025TIP3   OH239633   7.198   4.846   1.201
 6025TIP3    H139634   7.263   4.826   1.133
 6025TIP3    H239635   7.114   4.839   1.156
 6026TIP3   OH239636   6.934   4.149   0.217
 6026TIP3    H139637   6.851   4.134   0.173
 6026TIP3    H239638   6.929   4.240   0.246
 6027TIP3   OH239639   6.737   4.952   1.533
 6027TIP3    H139640   6.726   4.901   1.614
 6027TIP3    H239641   6.680   5.028   1.545
 6028TIP3   OH239642   6.970   4.387   0.363
 6028TIP3    H139643   7.055   4.373   0.404
 6028TIP3    H239644   6.975   4.474   0.325
 6029TIP3   OH239645   6.039   4.823   0.908
 6029TIP3    H139646   6.102   4.820   0.836
 6029TIP3    H239647   6.080   4.771   0.977
 6030TIP3   OH239648   6.754   5.047   0.283
 6030TIP3    H139649   6.711   5.132   0.293
 6030TIP3    H239650   6.686   4.983   0.301
 6031TIP3   OH239651   5.749   4.674   1.461
 6031TIP3    H139652   5.716   4.631   1.541
 6031TIP3    H239653   5.685   4.650   1.394
 6032TIP3   OH239654   6.462   4.672   1.673
 6032TIP3    H139655   6.396   4.623   1.625
 6032TIP3    H239656   6.541   4.619   1.666
 6033TIP3   OH239657   6.875   5.256   1.510
 6033TIP3    H139658   6.782   5.238   1.496
 6033TIP3    H239659   6.889   5.240   1.603
 6034TIP3   OH239660   6.979   4.801   1.027
 6034TIP3    H139661   6.884   4.788   1.021
 6034TIP3    H239662   7.016   4.727   0.978
 6035TIP3   OH239663   6.307   5.209   0.699
 6035TIP3    H139664   6.326   5.294   0.659
 6035TIP3    H239665   6.213   5.212   0.718
 6036TIP3   OH239666   5.851   4.646   0.196
 6036TIP3    H139667   5.894   4.723   0.232
 6036TIP3    H239668   5.759   4.670   0.188
 6037TIP3   OH239669   6.391   4.973   0.579
 6037TIP3    H139670   6.376   5.059   0.617
 6037TIP3    H239671   6.334   4.914   0.629
 6038TIP3   OH239672   6.489   5.381   1.281
 6038TIP3    H139673   6.546   5.455   1.262
 6038TIP3    H239674   6.541   5.325   1.338
 6039TIP3   OH239675   6.291   5.472   0.587
 6039TIP3    H139676   6.198   5.482   0.609
 6039TIP3    H239677   6.333   5.549   0.626
 6040TIP3   OH239678   6.780   4.990   1.257
 6040TIP3    H139679   6.762   4.978   1.350
 6040TIP3    H239680   6.852   4.930   1.238
 6041TIP3   OH239681   7.012   5.085   0.148
 6041TIP3    H139682   7.068   5.038   0.209
 6041TIP3    H239683   6.924   5.079   0.186
 6042TIP3   OH239684   7.084   5.426   1.474
 6042TIP3    H139685   7.008   5.368   1.467
 6042TIP3    H239686   7.074   5.489   1.403
 6043TIP3   OH239687   5.876   4.158   1.409
 6043TIP3    H139688   5.785   4.187   1.407
 6043TIP3    H239689   5.879   4.094   1.480
 6044TIP3   OH239690   7.170   4.920   0.311
 6044TIP3    H139691   7.137   4.868   0.385
 6044TIP3    H239692   7.249   4.963   0.346
 6045TIP3   OH239693   5.884   5.347   1.265
 6045TIP3    H139694   5.911   5.269   1.314
 6045TIP3    H239695   5.893   5.419   1.327
 6046TIP3   OH239696   6.300   5.171   0.280
 6046TIP3    H139697   6.374   5.124   0.319
 6046TIP3    H239698   6.320   5.264   0.293
 6047TIP3   OH239699   5.958   4.874   0.319
 6047TIP3    H139700   5.890   4.923   0.365
 6047TIP3    H239701   6.004   4.941   0.268
 6048TIP3   OH239702   6.824   4.086   1.331
 6048TIP3    H139703   6.869   4.134   1.399
 6048TIP3    H239704   6.773   4.020   1.378
 6049TIP3   OH239705   6.844   4.064   0.467
 6049TIP3    H139706   6.873   4.096   0.381
 6049TIP3    H239707   6.888   4.121   0.530
 6050TIP3   OH239708   6.603   5.271   0.313
 6050TIP3    H139709   6.526   5.324   0.335
 6050TIP3    H239710   6.647   5.320   0.244
 6051TIP3   OH239711   6.535   4.291   0.518
 6051TIP3    H139712   6.611   4.349   0.524
 6051TIP3    H239713   6.527   4.254   0.607
 6052TIP3   OH239714   6.646   4.367   1.416
 6052TIP3    H139715   6.647   4.418   1.497
 6052TIP3    H239716   6.663   4.277   1.444
 6053TIP3   OH239717   6.616   3.964   0.580
 6053TIP3    H139718   6.588   4.032   0.641
 6053TIP3    H239719   6.700   3.994   0.546
 6054TIP3   OH239720   6.377   5.430   0.330
 6054TIP3    H139721   6.375   5.513   0.283
 6054TIP3    H239722   6.346   5.451   0.418
 6055TIP3   OH239723   6.211   4.080   0.322
 6055TIP3    H139724   6.210   4.171   0.351
 6055TIP3    H239725   6.301   4.051   0.339
 6056TIP3   OH239726   7.210   4.092   1.506
 6056TIP3    H139727   7.125   4.134   1.496
 6056TIP3    H239728   7.261   4.155   1.557
 6057TIP3   OH239729   7.089   4.553   0.933
 6057TIP3    H139730   7.023   4.500   0.977
 6057TIP3    H239731   7.169   4.541   0.984
 6058TIP3   OH239732   6.066   5.082   0.167
 6058TIP3    H139733   6.125   5.132   0.224
 6058TIP3    H239734   6.125   5.037   0.106
 6059TIP3   OH239735   5.890   4.392   0.101
 6059TIP3    H139736   5.884   4.480   0.139
 6059TIP3    H239737   5.862   4.404   0.010
 6060TIP3   OH239738   7.244   5.489   1.079
 6060TIP3    H139739   7.239   5.557   1.012
 6060TIP3    H239740   0.034   5.468   1.084
 6061TIP3   OH239741   5.963   3.874   0.943
 6061TIP3    H139742   5.951   3.867   0.848
 6061TIP3    H239743   5.931   3.790   0.977
 6062TIP3   OH239744   5.829   5.281   0.561
 6062TIP3    H139745   5.781   5.312   0.638
 6062TIP3    H239746   5.813   5.348   0.495
 6063TIP3   OH239747   5.764   5.556   1.764
 6063TIP3    H139748   5.777   5.525   1.853
 6063TIP3    H239749   5.728   5.481   1.717
 6064TIP3   OH239750   6.726   5.399   0.110
 6064TIP3    H139751   6.699   5.359   0.027
 6064TIP3    H239752   6.817   5.426   0.095
 6065TIP3   OH239753   6.963   5.221   1.782
 6065TIP3    H139754   6.901   5.156   1.813
 6065TIP3    H239755   7.041   5.171   1.760
 6066TIP3   OH239756   7.135   5.317   0.049
 6066TIP3    H139757   7.092   5.239   0.085
 6066TIP3    H239758   7.222   5.287   0.025
 6067TIP3   OH239759   5.808   4.929   1.804
 6067TIP3    H139760   5.821   4.834   1.805
 6067TIP3    H239761   5.745   4.946   1.874
 6068TIP3   OH239762   6.243   4.925   0.029
 6068TIP3    H139763   6.280   4.881   0.105
 6068TIP3    H239764   6.256   4.864   8.457
 6069TIP3   OH239765   6.451   4.937   1.758
 6069TIP3    H139766   6.422   4.983   1.679
 6069TIP3    H239767   6.461   4.846   1.730
 6070TIP3   OH239768   6.994   4.828   1.514
 6070TIP3    H139769   7.064   4.892   1.507
 6070TIP3    H239770   6.914   4.880   1.517
 6071TIP3   OH239771   5.858   4.654   1.790
 6071TIP3    H139772   5.939   4.604   1.802
 6071TIP3    H239773   5.794   4.589   1.759
 6072TIP3   OH239774   6.328   4.760   0.234
 6072TIP3    H139775   6.273   4.726   0.305
 6072TIP3    H239776   6.368   4.683   0.195
 6073TIP3   OH239777   6.268   4.549   1.486
 6073TIP3    H139778   6.193   4.609   1.484
 6073TIP3    H239779   6.328   4.584   1.421
 6074TIP3   OH239780   6.461   4.569   0.068
 6074TIP3    H139781   6.471   4.590   8.475
 6074TIP3    H239782   6.550   4.548   0.097
 6075TIP3   OH239783   6.783   4.801   1.786
 6075TIP3    H139784   6.870   4.761   1.783
 6075TIP3    H239785   6.733   4.746   1.846
 6076TIP3   OH239786   6.314   4.293   1.573
 6076TIP3    H139787   6.321   4.232   1.499
 6076TIP3    H239788   6.297   4.378   1.532
 6077TIP3   OH239789   6.347   4.124   1.337
 6077TIP3    H139790   6.394   4.181   1.277
 6077TIP3    H239791   6.257   4.124   1.304
 6078TIP3   OH239792   6.462   4.647   1.321
 6078TIP3    H139793   6.553   4.666   1.343
 6078TIP3    H239794   6.428   4.729   1.285
 6079TIP3   OH239795   6.899   4.454   1.821
 6079TIP3    H139796   6.933   4.405   1.896
 6079TIP3    H239797   6.967   4.518   1.802
 6080TIP3   OH239798   7.049   4.697   1.752
 6080TIP3    H139799   7.036   4.746   1.671
 6080TIP3    H239800   7.117   4.633   1.730
 6081TIP3   OH239801   6.102   4.393   1.737
 6081TIP3    H139802   6.050   4.313   1.747
 6081TIP3    H239803   6.184   4.363   1.699
 6082TIP3   OH239804   6.399   3.857   1.402
 6082TIP3    H139805   6.379   3.949   1.389
 6082TIP3    H239806   6.324   3.810   1.364
 6083TIP3   OH239807   6.518   4.285   1.756
 6083TIP3    H139808   6.487   4.242   1.836
 6083TIP3    H239809   6.442   4.285   1.698
 6084TIP3   OH239810   6.734   4.155   1.644
 6084TIP3    H139811   6.673   4.217   1.684
 6084TIP3    H239812   6.707   4.070   1.677
 6085TIP3   OH239813   5.961   4.156   1.760
 6085TIP3    H139814   5.936   4.074   1.718
 6085TIP3    H239815   6.009   4.130   1.838
 6086TIP3   OH239816   6.407   3.748   1.656
 6086TIP3    H139817   6.477   3.683   1.650
 6086TIP3    H239818   6.398   3.783   1.568
 6087TIP3   OH239819   6.562   3.961   1.756
 6087TIP3    H139820   6.499   3.892   1.741
 6087TIP3    H239821   6.523   4.016   1.824
 6088TIP3   OH239822   6.414   5.639   0.150
 6088TIP3    H139823   6.503   5.655   0.181
 6088TIP3    H239824   6.416   5.664   0.058
 6089TIP3   OH239825   5.794   5.120   0.101
 6089TIP3    H139826   5.887   5.116   0.122
 6089TIP3    H239827   5.791   5.110   0.006
 6090TIP3   OH239828   5.670   5.614   0.667
 6090TIP3    H139829   5.615   5.584   0.595
 6090TIP3    H239830   5.688   5.535   0.718
 6091TIP3   OH239831   5.741   5.389   0.815
 6091TIP3    H139832   5.706   5.314   0.862
 6091TIP3    H239833   5.790   5.438   0.881
 6092TIP3   OH239834   7.225   5.207   1.365
 6092TIP3    H139835   7.190   5.292   1.392
 6092TIP3    H239836   7.209   5.204   1.271
 6093TIP3   OH239837   7.174   4.546   0.661
 6093TIP3    H139838   7.162   4.452   0.649
 6093TIP3    H239839   7.146   4.563   0.750
 6094TIP3   OH239840   5.730   4.752   1.077
 6094TIP3    H139841   5.745   4.738   0.984
 6094TIP3    H239842   5.810   4.721   1.120
 6095TIP3   OH239843   7.178   4.183   0.081
 6095TIP3    H139844   7.200   4.101   0.036
 6095TIP3    H239845   7.100   4.162   0.132
 6096TIP3   OH239846   7.218   4.298   0.504
 6096TIP3    H139847   7.279   4.269   0.572
 6096TIP3    H239848   7.270   4.297   0.423
 6097TIP3   OH239849   7.252   4.236   1.053
 6097TIP3    H139850   0.037   4.207   1.028
 6097TIP3    H239851   7.263   4.328   1.076
 6098TIP3   OH239852   7.258   4.482   1.371
 6098TIP3    H139853   7.166   4.506   1.369
 6098TIP3    H239854   7.284   4.479   1.279
 6099TIP3   OH239855   5.740   4.295   1.682
 6099TIP3    H139856   5.821   4.259   1.718
 6099TIP3    H239857   5.684   4.219   1.667
 6100TIP3   OH239858   7.245   3.972   0.597
 6100TIP3    H139859   7.286   3.888   0.617
 6100TIP3    H239860   7.169   3.950   0.544
 6101TIP3   OH239861   5.841   4.126   0.955
 6101TIP3    H139862   5.874   4.037   0.970
 6101TIP3    H239863   5.912   4.183   0.985
 6102TIP3   OH239864   5.640   4.388   1.045
 6102TIP3    H139865   5.714   4.403   0.986
 6102TIP3    H239866   5.656   4.446   1.119
 6103TIP3   OH239867   5.695   4.019   0.423
 6103TIP3    H139868   5.608   4.024   0.463
 6103TIP3    H239869   5.706   4.104   0.380
 6104TIP3   OH239870   7.131   5.505   0.706
 6104TIP3    H139871   7.192   5.431   0.703
 6104TIP3    H239872   7.172   5.566   0.769
 6105TIP3   OH239873   5.670   3.866   1.255
 6105TIP3    H139874   5.612   3.861   1.331
 6105TIP3    H239875   5.645   3.947   1.211
 6106TIP3   OH239876   5.875   5.207   1.776
 6106TIP3    H139877   5.799   5.246   1.734
 6106TIP3    H239878   5.857   5.113   1.778
 6107TIP3   OH239879   6.223   5.354   1.352
 6107TIP3    H139880   6.194   5.442   1.329
 6107TIP3    H239881   6.318   5.355   1.338
 6108TIP3   OH239882   6.604   5.469   1.640
 6108TIP3    H139883   6.619   5.427   1.725
 6108TIP3    H239884   6.686   5.514   1.622
 6109TIP3   OH239885   6.846   5.596   1.603
 6109TIP3    H139886   6.906   5.541   1.553
 6109TIP3    H239887   6.892   5.614   1.685
 6110TIP3   OH239888   5.924   5.640   1.374
 6110TIP3    H139889   5.847   5.684   1.337
 6110TIP3    H239890   5.930   5.675   1.463
 6111TIP3   OH239891   6.183   5.619   1.284
 6111TIP3    H139892   6.092   5.630   1.313
 6111TIP3    H239893   6.186   5.666   1.200
 6112TIP3   OH239894   6.628   5.607   1.189
 6112TIP3    H139895   6.572   5.643   1.120
 6112TIP3    H239896   6.637   5.679   1.252
 6113TIP3   OH239897   6.850   5.473   1.273
 6113TIP3    H139898   6.773   5.525   1.248
 6113TIP3    H239899   6.924   5.534   1.265
 6114TIP3   OH239900   7.086   5.614   1.267
 6114TIP3    H139901   7.115   5.705   1.261
 6114TIP3    H239902   7.143   5.567   1.207
 6115TIP3   OH239903   5.892   5.502   1.031
 6115TIP3    H139904   5.885   5.456   1.115
 6115TIP3    H239905   5.971   5.465   0.991
 6116TIP3   OH239906   6.106   5.375   0.919
 6116TIP3    H139907   6.092   5.283   0.941
 6116TIP3    H239908   6.191   5.396   0.957
 6117TIP3   OH239909   6.363   5.407   1.031
 6117TIP3    H139910   6.374   5.317   1.000
 6117TIP3    H239911   6.394   5.406   1.121
 6118TIP3   OH239912   6.659   3.982   0.926
 6118TIP3    H139913   6.590   3.920   0.950
 6118TIP3    H239914   6.723   3.930   0.877
 6119TIP3   OH239915   7.169   3.844   0.883
 6119TIP3    H139916   7.220   3.852   0.963
 6119TIP3    H239917   7.137   3.932   0.866
 6120TIP3   OH239918   5.933   3.835   0.667
 6120TIP3    H139919   5.840   3.818   0.657
 6120TIP3    H239920   5.974   3.749   0.668
 6121TIP3   OH239921   5.780   3.869   0.208
 6121TIP3    H139922   5.870   3.897   0.190
 6121TIP3    H239923   5.758   3.909   0.292
 6122TIP3   OH239924   6.414   3.805   0.695
 6122TIP3    H139925   6.480   3.863   0.657
 6122TIP3    H239926   6.424   3.817   0.790
 6123TIP3   OH239927   6.853   3.829   0.806
 6123TIP3    H139928   6.930   3.844   0.751
 6123TIP3    H239929   6.877   3.756   0.863
 6124TIP3   OH239930   7.044   3.871   0.448
 6124TIP3    H139931   6.965   3.925   0.441
 6124TIP3    H239932   7.014   3.782   0.428
 6125TIP3   OH239933   5.787   5.464   0.364
 6125TIP3    H139934   5.714   5.453   0.303
 6125TIP3    H239935   5.816   5.554   0.352
 6126TIP3   OH239936   6.037   3.948   0.136
 6126TIP3    H139937   6.046   4.008   0.063
 6126TIP3    H239938   6.093   3.984   0.204
 6127TIP3   OH239939   6.492   4.078   0.350
 6127TIP3    H139940   6.528   4.010   0.406
 6127TIP3    H239941   6.509   4.160   0.396
 6128TIP3   OH239942   6.681   5.644   0.222
 6128TIP3    H139943   6.748   5.699   0.182
 6128TIP3    H239944   6.694   5.557   0.183
 6129TIP3   OH239945   5.911   3.915   1.607
 6129TIP3    H139946   5.848   3.847   1.630
 6129TIP3    H239947   5.988   3.895   1.661
 6130TIP3   OH239948   6.092   3.824   1.797
 6130TIP3    H139949   6.170   3.782   1.760
 6130TIP3    H239950   6.046   3.753   1.842
 6131TIP3   OH239951   6.000   5.534   0.012
 6131TIP3    H139952   5.954   5.610   0.047
 6131TIP3    H239953   6.022   5.482   0.090
 6132TIP3   OH239954   7.012   3.716   1.825
 6132TIP3    H139955   6.985   3.749   1.910
 6132TIP3    H239956   7.049   3.629   1.844
 6133TIP3   OH239957   7.259   5.423   1.693
 6133TIP3    H139958   7.202   5.399   1.620
 6133TIP3    H239959   7.243   5.517   1.706
 6134TIP3   OH239960   1.198   6.672   0.657
 6134TIP3    H139961   1.190   6.767   0.649
 6134TIP3    H239962   1.123   6.637   0.609
 6135TIP3   OH239963   1.076   6.589   1.051
 6135TIP3    H139964   1.098   6.552   1.136
 6135TIP3    H239965   1.028   6.520   1.006
 6136TIP3   OH239966   0.318   6.524   1.167
 6136TIP3    H139967   0.317   6.462   1.240
 6136TIP3    H239968   0.410   6.541   1.150
 6137TIP3   OH239969   1.459   6.896   0.871
 6137TIP3    H139970   1.423   6.820   0.916
 6137TIP3    H239971   1.483   6.956   0.941
 6138TIP3   OH239972   0.409   6.974   0.991
 6138TIP3    H139973   0.377   6.887   0.968
 6138TIP3    H239974   0.504   6.964   0.998
 6139TIP3   OH239975   0.120   6.393   0.534
 6139TIP3    H139976   0.160   6.442   0.607
 6139TIP3    H239977   0.027   6.393   0.553
 6140TIP3   OH239978   0.197   6.528   0.768
 6140TIP3    H139979   0.112   6.560   0.798
 6140TIP3    H239980   0.261   6.588   0.805
 6141TIP3   OH239981   0.927   6.835   1.071
 6141TIP3    H139982   0.962   6.752   1.038
 6141TIP3    H239983   0.996   6.869   1.128
 6142TIP3   OH239984   1.800   5.986   1.166
 6142TIP3    H139985   1.816   6.048   1.237
 6142TIP3    H239986   1.849   6.020   1.092
 6143TIP3   OH239987   1.227   6.262   1.074
 6143TIP3    H139988   1.246   6.169   1.091
 6143TIP3    H239989   1.214   6.267   0.980
 6144TIP3   OH239990   0.561   6.070   0.806
 6144TIP3    H139991   0.575   6.157   0.769
 6144TIP3    H239992   0.521   6.020   0.734
 6145TIP3   OH239993   1.361   6.099   0.651
 6145TIP3    H139994   1.403   6.067   0.731
 6145TIP3    H239995   1.431   6.141   0.602
 6146TIP3   OH239996   0.169   6.284   0.906
 6146TIP3    H139997   0.254   6.254   0.937
 6146TIP3    H239998   0.189   6.362   0.853
 6147TIP3   OH239999   0.713   6.468   0.854
 6147TIP3    H140000   0.794   6.430   0.886
 6147TIP3    H240001   0.674   6.399   0.799
 6148TIP3   OH240002   1.841   6.141   1.391
 6148TIP3    H140003   1.766   6.199   1.377
 6148TIP3    H240004   1.826   6.102   1.476
 6149TIP3   OH240005   0.435   5.999   1.235
 6149TIP3    H140006   0.408   6.056   1.164
 6149TIP3    H240007   0.375   6.020   1.307
 6150TIP3   OH240008   1.178   6.930   0.558
 6150TIP3    H140009   1.151   6.931   0.466
 6150TIP3    H240010   1.135   7.007   0.596
 6151TIP3   OH240011   0.707   6.750   1.223
 6151TIP3    H140012   0.656   6.819   1.264
 6151TIP3    H240013   0.777   6.795   1.175
 6152TIP3   OH240014   1.470   6.041   0.895
 6152TIP3    H140015   1.400   6.022   0.958
 6152TIP3    H240016   1.526   6.103   0.940
 6153TIP3   OH240017   0.395   6.157   1.009
 6153TIP3    H140018   0.451   6.216   1.060
 6153TIP3    H240019   0.454   6.120   0.944
 6154TIP3   OH240020   0.563   6.956   1.343
 6154TIP3    H140021   0.567   7.047   1.315
 6154TIP3    H240022   0.473   6.944   1.373
 6155TIP3   OH240023   0.097   6.934   0.373
 6155TIP3    H140024   0.106   6.978   0.289
 6155TIP3    H240025   0.129   6.997   0.437
 6156TIP3   OH240026   1.493   7.108   1.056
 6156TIP3    H140027   1.403   7.113   1.089
 6156TIP3    H240028   1.500   7.181   0.995
 6157TIP3   OH240029   1.547   5.885   1.249
 6157TIP3    H140030   1.483   5.945   1.210
 6157TIP3    H240031   1.631   5.914   1.213
 6158TIP3   OH240032   0.794   5.678   0.979
 6158TIP3    H140033   0.771   5.586   0.986
 6158TIP3    H240034   0.721   5.725   1.020
 6159TIP3   OH240035   1.360   7.259   0.670
 6159TIP3    H140036   1.385   7.171   0.644
 6159TIP3    H240037   1.419   7.281   0.742
 6160TIP3   OH240038   1.441   7.002   0.617
 6160TIP3    H140039   1.359   6.963   0.589
 6160TIP3    H240040   1.461   6.960   0.701
 6161TIP3   OH240041   1.602   6.898   1.430
 6161TIP3    H140042   1.597   6.839   1.355
 6161TIP3    H240043   1.610   6.986   1.392
 6162TIP3   OH240044   1.044   6.586   0.437
 6162TIP3    H140045   0.982   6.654   0.411
 6162TIP3    H240046   1.111   6.588   0.368
 6163TIP3   OH240047   1.056   6.414   0.126
 6163TIP3    H140048   1.117   6.461   0.183
 6163TIP3    H240049   1.110   6.349   0.081
 6164TIP3   OH240050   1.770   6.544   1.279
 6164TIP3    H140051   1.697   6.605   1.269
 6164TIP3    H240052   1.832   6.570   1.211
 6165TIP3   OH240053   1.411   6.602   0.504
 6165TIP3    H140054   1.343   6.627   0.567
 6165TIP3    H240055   1.478   6.558   0.556
 6166TIP3   OH240056   1.375   6.409   1.437
 6166TIP3    H140057   1.375   6.476   1.506
 6166TIP3    H240058   1.304   6.436   1.379
 6167TIP3   OH240059   0.576   6.656   0.702
 6167TIP3    H140060   0.554   6.611   0.620
 6167TIP3    H240061   0.629   6.592   0.750
 6168TIP3   OH240062   0.684   6.953   0.971
 6168TIP3    H140063   0.696   6.995   0.887
 6168TIP3    H240064   0.771   6.923   0.996
 6169TIP3   OH240065   0.573   6.563   1.074
 6169TIP3    H140066   0.631   6.541   1.001
 6169TIP3    H240067   0.622   6.630   1.123
 6170TIP3   OH240068   1.253   7.110   1.189
 6170TIP3    H140069   1.242   7.136   1.280
 6170TIP3    H240070   1.211   7.024   1.183
 6171TIP3   OH240071   0.708   7.003   1.578
 6171TIP3    H140072   0.634   7.059   1.600
 6171TIP3    H240073   0.676   6.949   1.506
 6172TIP3   OH240074   1.272   6.538   0.276
 6172TIP3    H140075   1.319   6.563   0.355
 6172TIP3    H240076   1.322   6.576   0.204
 6173TIP3   OH240077   0.424   6.620   1.501
 6173TIP3    H140078   0.425   6.679   1.576
 6173TIP3    H240079   0.352   6.651   1.447
 6174TIP3   OH240080   1.089   7.180   0.633
 6174TIP3    H140081   1.175   7.221   0.648
 6174TIP3    H240082   1.039   7.247   0.587
 6175TIP3   OH240083   0.517   7.191   1.608
 6175TIP3    H140084   0.483   7.213   1.521
 6175TIP3    H240085   0.439   7.173   1.660
 6176TIP3   OH240086   1.641   5.697   0.259
 6176TIP3    H140087   1.560   5.723   0.303
 6176TIP3    H240088   1.684   5.779   0.237
 6177TIP3   OH240089   0.477   6.575   0.439
 6177TIP3    H140090   0.422   6.647   0.409
 6177TIP3    H240091   0.415   6.506   0.464
 6178TIP3   OH240092   1.740   7.092   0.168
 6178TIP3    H140093   1.719   7.186   0.172
 6178TIP3    H240094   1.835   7.089   0.153
 6179TIP3   OH240095   0.194   6.732   1.389
 6179TIP3    H140096   0.163   6.722   1.299
 6179TIP3    H240097   0.125   6.694   1.442
 6180TIP3   OH240098   0.083   7.176   1.039
 6180TIP3    H140099   0.125   7.093   1.013
 6180TIP3    H240100   0.140   7.211   1.108
 6181TIP3   OH240101   1.864   7.126   1.693
 6181TIP3    H140102   1.839   7.036   1.671
 6181TIP3    H240103   1.829   7.139   1.781
 6182TIP3   OH240104   0.957   7.094   1.510
 6182TIP3    H140105   0.955   7.173   1.566
 6182TIP3    H240106   0.871   7.054   1.523
 6183TIP3   OH240107   1.626   6.329   1.627
 6183TIP3    H140108   1.533   6.351   1.628
 6183TIP3    H240109   1.628   6.233   1.632
 6184TIP3   OH240110   0.302   6.983   1.449
 6184TIP3    H140111   0.309   6.983   1.544
 6184TIP3    H240112   0.259   6.899   1.428
 6185TIP3   OH240113   0.564   5.796   1.089
 6185TIP3    H140114   0.491   5.786   1.027
 6185TIP3    H240115   0.540   5.872   1.142
 6186TIP3   OH240116   1.049   5.752   1.418
 6186TIP3    H140117   1.101   5.707   1.485
 6186TIP3    H240118   0.959   5.746   1.449
 6187TIP3   OH240119   1.329   6.140   1.476
 6187TIP3    H140120   1.263   6.130   1.545
 6187TIP3    H240121   1.338   6.235   1.466
 6188TIP3   OH240122   1.436   6.665   0.092
 6188TIP3    H140123   1.509   6.678   0.032
 6188TIP3    H240124   1.458   6.719   0.168
 6189TIP3   OH240125   1.001   5.974   0.084
 6189TIP3    H140126   0.918   6.012   0.115
 6189TIP3    H240127   1.010   5.892   0.133
 6190TIP3   OH240128   0.554   6.306   1.183
 6190TIP3    H140129   0.496   6.315   1.258
 6190TIP3    H240130   0.571   6.396   1.154
 6191TIP3   OH240131   0.562   6.313   0.678
 6191TIP3    H140132   0.468   6.299   0.674
 6191TIP3    H240133   0.593   6.293   0.589
 6192TIP3   OH240134   1.108   6.338   0.542
 6192TIP3    H140135   1.083   6.425   0.511
 6192TIP3    H240136   1.177   6.310   0.483
 6193TIP3   OH240137   1.013   6.367   1.690
 6193TIP3    H140138   0.963   6.295   1.727
 6193TIP3    H240139   1.098   6.361   1.732
 6194TIP3   OH240140   1.202   6.276   0.802
 6194TIP3    H140141   1.156   6.322   0.732
 6194TIP3    H240142   1.248   6.205   0.757
 6195TIP3   OH240143   0.347   6.324   1.368
 6195TIP3    H140144   0.364   6.355   1.457
 6195TIP3    H240145   0.301   6.240   1.380
 6196TIP3   OH240146   0.716   6.062   0.097
 6196TIP3    H140147   0.693   6.010   0.174
 6196TIP3    H240148   0.683   6.150   0.116
 6197TIP3   OH240149   0.073   6.106   0.714
 6197TIP3    H140150   0.070   6.165   0.789
 6197TIP3    H240151   0.160   6.120   0.676
 6198TIP3   OH240152   0.111   6.155   0.271
 6198TIP3    H140153   0.193   6.204   0.264
 6198TIP3    H240154   0.077   6.152   0.182
 6199TIP3   OH240155   1.145   6.432   1.271
 6199TIP3    H140156   1.179   6.373   1.204
 6199TIP3    H240157   1.090   6.377   1.327
 6200TIP3   OH240158   0.842   6.068   0.764
 6200TIP3    H140159   0.755   6.058   0.802
 6200TIP3    H240160   0.897   6.004   0.810
 6201TIP3   OH240161   0.315   6.206   0.616
 6201TIP3    H140162   0.264   6.249   0.548
 6201TIP3    H240163   0.353   6.130   0.573
 6202TIP3   OH240164   0.628   6.227   0.424
 6202TIP3    H140165   0.721   6.223   0.444
 6202TIP3    H240166   0.624   6.267   0.337
 6203TIP3   OH240167   1.270   5.981   1.070
 6203TIP3    H140168   1.230   5.980   1.157
 6203TIP3    H240169   1.223   5.914   1.021
 6204TIP3   OH240170   0.589   6.300   0.162
 6204TIP3    H140171   0.495   6.307   0.148
 6204TIP3    H240172   0.627   6.364   0.101
 6205TIP3   OH240173   0.395   6.808   1.706
 6205TIP3    H140174   0.448   6.796   1.785
 6205TIP3    H240175   0.306   6.820   1.739
 6206TIP3   OH240176   0.936   6.350   0.968
 6206TIP3    H140177   1.003   6.294   0.928
 6206TIP3    H240178   0.907   6.300   1.045
 6207TIP3   OH240179   0.436   5.960   0.575
 6207TIP3    H140180   0.407   5.875   0.609
 6207TIP3    H240181   0.481   5.939   0.493
 6208TIP3   OH240182   0.830   6.221   1.200
 6208TIP3    H140183   0.749   6.272   1.207
 6208TIP3    H240184   0.882   6.247   1.276
 6209TIP3   OH240185   0.866   6.788   0.355
 6209TIP3    H140186   0.795   6.745   0.308
 6209TIP3    H240187   0.827   6.813   0.439
 6210TIP3   OH240188   1.577   6.735   1.207
 6210TIP3    H140189   1.642   6.785   1.156
 6210TIP3    H240190   1.507   6.717   1.145
 6211TIP3   OH240191   1.263   6.032   0.222
 6211TIP3    H140192   1.193   6.038   0.156
 6211TIP3    H240193   1.280   6.123   0.247
 6212TIP3   OH240194   0.985   6.797   1.460
 6212TIP3    H140195   0.948   6.727   1.515
 6212TIP3    H240196   0.973   6.876   1.512
 6213TIP3   OH240197   1.317   6.271   0.361
 6213TIP3    H140198   1.404   6.260   0.400
 6213TIP3    H240199   1.320   6.358   0.321
 6214TIP3   OH240200   0.383   6.695   0.899
 6214TIP3    H140201   0.450   6.701   0.830
 6214TIP3    H240202   0.428   6.652   0.971
 6215TIP3   OH240203   1.089   6.937   0.292
 6215TIP3    H140204   1.053   7.026   0.294
 6215TIP3    H240205   1.014   6.880   0.305
 6216TIP3   OH240206   0.038   6.566   1.569
 6216TIP3    H140207   0.106   6.538   1.631
 6216TIP3    H240208   0.029   6.493   1.508
 6217TIP3   OH240209   0.873   6.593   1.613
 6217TIP3    H140210   0.784   6.558   1.615
 6217TIP3    H240211   0.928   6.520   1.641
 6218TIP3   OH240212   1.231   7.091   1.472
 6218TIP3    H140213   1.136   7.085   1.468
 6218TIP3    H240214   1.251   7.104   1.564
 6219TIP3   OH240215   1.760   6.330   0.309
 6219TIP3    H140216   1.697   6.306   0.241
 6219TIP3    H240217   1.784   6.421   0.290
 6220TIP3   OH240218   1.810   6.859   1.607
 6220TIP3    H140219   1.722   6.875   1.575
 6220TIP3    H240220   1.864   6.855   1.529
 6221TIP3   OH240221   1.730   7.112   0.455
 6221TIP3    H140222   1.655   7.073   0.500
 6221TIP3    H240223   1.716   7.093   0.363
 6222TIP3   OH240224   1.366   6.672   1.019
 6222TIP3    H140225   1.271   6.662   1.021
 6222TIP3    H240226   1.398   6.591   0.977
 6223TIP3   OH240227   0.683   7.085   0.719
 6223TIP3    H140228   0.749   7.154   0.709
 6223TIP3    H240229   0.600   7.128   0.702
 6224TIP3   OH240230   0.194   6.559   0.173
 6224TIP3    H140231   0.243   6.628   0.217
 6224TIP3    H240232   0.109   6.559   0.216
 6225TIP3   OH240233   0.732   6.850   0.581
 6225TIP3    H140234   0.721   6.932   0.630
 6225TIP3    H240235   0.680   6.786   0.630
 6226TIP3   OH240236   0.863   7.232   1.205
 6226TIP3    H140237   0.839   7.293   1.275
 6226TIP3    H240238   0.901   7.157   1.250
 6227TIP3   OH240239   1.143   6.860   1.246
 6227TIP3    H140240   1.088   6.838   1.321
 6227TIP3    H240241   1.215   6.797   1.250
 6228TIP3   OH240242   1.348   6.980   0.196
 6228TIP3    H140243   1.405   6.923   0.247
 6228TIP3    H240244   1.260   6.961   0.229
 6229TIP3   OH240245   0.236   6.062   1.424
 6229TIP3    H140246   0.202   6.093   1.509
 6229TIP3    H240247   0.191   5.979   1.409
 6230TIP3   OH240248   1.512   6.790   0.327
 6230TIP3    H140249   1.471   6.737   0.395
 6230TIP3    H240250   1.603   6.799   0.355
 6231TIP3   OH240251   0.252   7.215   1.287
 6231TIP3    H140252   0.251   7.136   1.341
 6231TIP3    H240253   0.182   7.270   1.323
 6232TIP3   OH240254   0.659   7.057   0.244
 6232TIP3    H140255   0.721   7.004   0.294
 6232TIP3    H240256   0.679   7.147   0.270
 6233TIP3   OH240257   0.310   6.765   0.319
 6233TIP3    H140258   0.234   6.805   0.362
 6233TIP3    H240259   0.357   6.838   0.279
 6234TIP3   OH240260   1.161   5.983   1.315
 6234TIP3    H140261   1.215   6.025   1.381
 6234TIP3    H240262   1.121   5.908   1.360
 6235TIP3   OH240263   1.215   5.939   0.477
 6235TIP3    H140264   1.227   5.978   0.391
 6235TIP3    H240265   1.256   6.001   0.538
 6236TIP3   OH240266   0.974   7.183   0.299
 6236TIP3    H140267   0.888   7.223   0.313
 6236TIP3    H240268   1.019   7.244   0.240
 6237TIP3   OH240269   0.882   6.183   0.518
 6237TIP3    H140270   0.960   6.238   0.526
 6237TIP3    H240271   0.869   6.146   0.606
 6238TIP3   OH240272   0.996   6.261   1.430
 6238TIP3    H140273   0.997   6.301   1.516
 6238TIP3    H240274   1.027   6.171   1.445
 6239TIP3   OH240275   0.986   5.827   0.579
 6239TIP3    H140276   0.989   5.852   0.671
 6239TIP3    H240277   1.067   5.863   0.541
 6240TIP3   OH240278   0.729   0.004   0.337
 6240TIP3    H140279   0.758   0.094   0.320
 6240TIP3    H240280   0.716   0.001   0.432
 6241TIP3   OH240281   0.577   5.971   0.332
 6241TIP3    H140282   0.577   6.060   0.366
 6241TIP3    H240283   0.665   5.939   0.351
 6242TIP3   OH240284   1.576   6.027   1.507
 6242TIP3    H140285   1.489   6.066   1.507
 6242TIP3    H240286   1.575   5.966   1.434
 6243TIP3   OH240287   1.441   6.423   0.901
 6243TIP3    H140288   1.356   6.381   0.887
 6243TIP3    H240289   1.488   6.362   0.960
 6244TIP3   OH240290   0.404   6.989   0.172
 6244TIP3    H140291   0.477   7.033   0.216
 6244TIP3    H240292   0.446   6.927   0.113
 6245TIP3   OH240293   0.315   6.315   0.131
 6245TIP3    H140294   0.275   6.402   0.138
 6245TIP3    H240295   0.260   6.269   0.067
 6246TIP3   OH240296   0.336   5.749   0.946
 6246TIP3    H140297   0.350   5.737   0.852
 6246TIP3    H240298   0.300   5.665   0.975
 6247TIP3   OH240299   0.210   7.125   0.536
 6247TIP3    H140300   0.162   7.135   0.618
 6247TIP3    H240301   0.296   7.165   0.553
 6248TIP3   OH240302   0.642   7.241   1.885
 6248TIP3    H140303   0.695   7.297   1.942
 6248TIP3    H240304   0.653   7.278   1.797
 6249TIP3   OH240305   1.098   0.034   0.104
 6249TIP3    H140306   1.060   7.285   0.033
 6249TIP3    H240307   1.193   0.020   0.096
 6250TIP3   OH240308   1.251   7.104   1.750
 6250TIP3    H140309   1.313   7.042   1.788
 6250TIP3    H240310   1.281   7.190   1.779
 6251TIP3   OH240311   1.468   7.142   0.013
 6251TIP3    H140312   1.420   7.093   0.080
 6251TIP3    H240313   1.552   7.162   0.054
 6252TIP3   OH240314   0.111   6.794   1.756
 6252TIP3    H140315   0.135   6.701   1.758
 6252TIP3    H240316   0.061   6.803   1.675
 6253TIP3   OH240317   0.541   6.795   0.040
 6253TIP3    H140318   0.583   6.754   0.116
 6253TIP3    H240319   0.577   6.749   8.465
 6254TIP3   OH240320   1.345   6.835   1.503
 6254TIP3    H140321   1.437   6.858   1.489
 6254TIP3    H240322   1.297   6.915   1.484
 6255TIP3   OH240323   0.223   6.520   1.774
 6255TIP3    H140324   0.283   6.458   1.734
 6255TIP3    H240325   0.258   6.533   1.862
 6256TIP3   OH240326   0.661   6.641   0.236
 6256TIP3    H140327   0.608   6.609   0.309
 6256TIP3    H240328   0.702   6.562   0.200
 6257TIP3   OH240329   0.615   6.420   1.508
 6257TIP3    H140330   0.550   6.490   1.506
 6257TIP3    H240331   0.678   6.444   1.440
 6258TIP3   OH240332   0.794   6.459   0.041
 6258TIP3    H140333   0.805   6.407   8.461
 6258TIP3    H240334   0.879   6.455   0.084
 6259TIP3   OH240335   1.705   6.777   0.016
 6259TIP3    H140336   1.679   6.811   8.430
 6259TIP3    H240337   1.710   6.854   0.072
 6260TIP3   OH240338   0.669   6.151   1.584
 6260TIP3    H140339   0.680   6.101   1.502
 6260TIP3    H240340   0.653   6.240   1.555
 6261TIP3   OH240341   0.693   6.010   1.335
 6261TIP3    H140342   0.747   6.066   1.279
 6261TIP3    H240343   0.605   6.017   1.299
 6262TIP3   OH240344   0.795   6.508   1.321
 6262TIP3    H140345   0.884   6.523   1.354
 6262TIP3    H240346   0.767   6.594   1.291
 6263TIP3   OH240347   1.236   6.325   1.847
 6263TIP3    H140348   1.230   6.253   1.910
 6263TIP3    H240349   1.275   6.397   1.896
 6264TIP3   OH240350   1.398   6.602   1.633
 6264TIP3    H140351   1.369   6.682   1.589
 6264TIP3    H240352   1.492   6.613   1.643
 6265TIP3   OH240353   0.381   6.321   1.656
 6265TIP3    H140354   0.381   6.241   1.708
 6265TIP3    H240355   0.474   6.345   1.649
 6266TIP3   OH240356   0.758   5.742   1.385
 6266TIP3    H140357   0.738   5.834   1.367
 6266TIP3    H240358   0.683   5.694   1.349
 6267TIP3   OH240359   0.884   6.133   1.758
 6267TIP3    H140360   0.859   6.087   1.838
 6267TIP3    H240361   0.802   6.140   1.708
 6268TIP3   OH240362   1.128   6.069   1.643
 6268TIP3    H140363   1.045   6.083   1.689
 6268TIP3    H240364   1.187   6.034   1.710
 6269TIP3   OH240365   1.310   5.974   1.836
 6269TIP3    H140366   1.317   5.879   1.843
 6269TIP3    H240367   1.276   6.001   1.922
 6270TIP3   OH240368   0.356   6.074   1.788
 6270TIP3    H140369   0.378   5.985   1.758
 6270TIP3    H240370   0.427   6.096   1.849
 6271TIP3   OH240371   0.763   5.688   1.652
 6271TIP3    H140372   0.817   5.610   1.663
 6271TIP3    H240373   0.759   5.701   1.557
 6272TIP3   OH240374   0.724   5.877   1.845
 6272TIP3    H140375   0.748   5.811   1.780
 6272TIP3    H240376   0.689   5.950   1.793
 6273TIP3   OH240377   0.141   7.004   0.099
 6273TIP3    H140378   0.230   7.021   0.129
 6273TIP3    H240379   0.149   6.928   0.041
 6274TIP3   OH240380   1.595   6.987   1.852
 6274TIP3    H140381   1.530   6.970   1.921
 6274TIP3    H240382   1.663   7.038   1.896
 6275TIP3   OH240383   1.774   6.762   0.423
 6275TIP3    H140384   1.845   6.826   0.425
 6275TIP3    H240385   1.791   6.704   0.498
 6276TIP3   OH240386   1.834   6.570   0.618
 6276TIP3    H140387   1.750   6.536   0.650
 6276TIP3    H240388   1.886   6.584   0.697
 6277TIP3   OH240389   1.811   6.859   1.127
 6277TIP3    H140390   1.867   6.790   1.091
 6277TIP3    H240391   1.853   6.941   1.100
 6278TIP3   OH240392   1.559   7.154   1.325
 6278TIP3    H140393   1.468   7.151   1.354
 6278TIP3    H240394   1.554   7.136   1.231
 6279TIP3   OH240395   1.810   6.590   0.214
 6279TIP3    H140396   1.763   6.635   0.144
 6279TIP3    H240397   1.797   6.646   0.291
 6280TIP3   OH240398   1.598   6.275   0.090
 6280TIP3    H140399   1.669   6.292   0.027
 6280TIP3    H240400   1.578   6.183   0.079
 6281TIP3   OH240401   1.582   6.451   0.665
 6281TIP3    H140402   1.578   6.360   0.634
 6281TIP3    H240403   1.539   6.450   0.750
 6282TIP3   OH240404   0.104   6.687   1.126
 6282TIP3    H140405   0.065   6.680   1.038
 6282TIP3    H240406   0.187   6.640   1.120
 6283TIP3   OH240407   1.666   6.615   1.665
 6283TIP3    H140408   1.701   6.531   1.634
 6283TIP3    H240409   1.735   6.678   1.648
 6284TIP3   OH240410   1.543   6.013   0.070
 6284TIP3    H140411   1.622   5.964   0.094
 6284TIP3    H240412   1.474   5.974   0.124
 6285TIP3   OH240413   1.570   6.207   0.491
 6285TIP3    H140414   1.598   6.116   0.492
 6285TIP3    H240415   1.639   6.253   0.442
 6286TIP3   OH240416   1.596   6.237   1.046
 6286TIP3    H140417   1.689   6.247   1.028
 6286TIP3    H240418   1.588   6.253   1.140
 6287TIP3   OH240419   1.620   6.313   1.312
 6287TIP3    H140420   1.543   6.336   1.363
 6287TIP3    H240421   1.672   6.393   1.309
 6288TIP3   OH240422   0.099   6.111   1.679
 6288TIP3    H140423   0.186   6.117   1.718
 6288TIP3    H240424   0.044   6.074   1.748
 6289TIP3   OH240425   1.633   5.935   0.498
 6289TIP3    H140426   1.657   5.899   0.584
 6289TIP3    H240427   1.563   5.879   0.467
 6290TIP3   OH240428   0.153   5.949   0.959
 6290TIP3    H140429   0.223   5.885   0.970
 6290TIP3    H240430   0.193   6.032   0.981
 6291TIP3   OH240431   0.044   6.389   1.134
 6291TIP3    H140432   0.091   6.363   1.054
 6291TIP3    H240433   0.034   6.484   1.126
 6292TIP3   OH240434   1.817   6.001   1.635
 6292TIP3    H140435   1.725   5.998   1.609
 6292TIP3    H240436   1.835   5.915   1.672
 6293TIP3   OH240437   1.790   5.908   0.156
 6293TIP3    H140438   1.860   5.843   0.149
 6293TIP3    H240439   1.835   5.989   0.179
 6294TIP3   OH240440   0.047   5.900   0.359
 6294TIP3    H140441   7.262   5.900   0.322
 6294TIP3    H240442   0.084   5.984   0.335
 6295TIP3   OH240443   0.068   5.821   1.347
 6295TIP3    H140444   0.009   5.866   1.406
 6295TIP3    H240445   0.027   5.829   1.261
 6296TIP3   OH240446   0.279   7.135   1.732
 6296TIP3    H140447   0.196   7.182   1.735
 6296TIP3    H240448   0.290   7.101   1.821
 6297TIP3   OH240449   0.529   7.238   1.300
 6297TIP3    H140450   0.434   7.235   1.289
 6297TIP3    H240451   0.562   7.262   1.213
 6298TIP3   OH240452   1.705   5.702   1.482
 6298TIP3    H140453   1.617   5.700   1.445
 6298TIP3    H240454   1.738   5.612   1.470
 6299TIP3   OH240455   0.420   7.248   0.963
 6299TIP3    H140456   0.413   7.154   0.981
 6299TIP3    H240457   0.440   7.253   0.869
 6300TIP3   OH240458   0.986   5.849   0.855
 6300TIP3    H140459   0.936   5.790   0.912
 6300TIP3    H240460   1.075   5.814   0.858
 6301TIP3   OH240461   1.537   5.715   0.891
 6301TIP3    H140462   1.607   5.763   0.846
 6301TIP3    H240463   1.478   5.784   0.922
 6302TIP3   OH240464   1.728   5.818   0.728
 6302TIP3    H140465   1.791   5.748   0.710
 6302TIP3    H240466   1.782   5.895   0.746
 6303TIP3   OH240467   0.341   5.720   0.670
 6303TIP3    H140468   0.247   5.712   0.659
 6303TIP3    H240469   0.375   5.631   0.656
 6304TIP3   OH240470   0.205   5.698   0.243
 6304TIP3    H140471   0.276   5.754   0.212
 6304TIP3    H240472   0.148   5.757   0.292
 6305TIP3   OH240473   0.750   5.701   0.694
 6305TIP3    H140474   0.820   5.753   0.654
 6305TIP3    H240475   0.769   5.703   0.787
 6306TIP3   OH240476   1.235   5.741   0.845
 6306TIP3    H140477   1.301   5.728   0.776
 6306TIP3    H240478   1.223   5.653   0.882
 6307TIP3   OH240479   1.425   5.767   0.414
 6307TIP3    H140480   1.351   5.824   0.433
 6307TIP3    H240481   1.393   5.679   0.429
 6308TIP3   OH240482   0.392   5.873   0.147
 6308TIP3    H140483   0.416   5.917   0.066
 6308TIP3    H240484   0.455   5.903   0.211
 6309TIP3   OH240485   0.847   5.954   0.369
 6309TIP3    H140486   0.890   5.891   0.427
 6309TIP3    H240487   0.866   6.039   0.408
 6310TIP3   OH240488   0.362   5.787   1.722
 6310TIP3    H140489   0.307   5.709   1.713
 6310TIP3    H240490   0.441   5.767   1.674
 6311TIP3   OH240491   1.359   5.693   1.827
 6311TIP3    H140492   1.342   5.635   1.901
 6311TIP3    H240493   1.453   5.688   1.814
 6312TIP3   OH240494   1.591   0.008   1.716
 6312TIP3    H140495   1.637   7.245   1.665
 6312TIP3    H240496   1.644   0.087   1.706
 6313TIP3   OH240497   3.092   6.688   0.652
 6313TIP3    H140498   3.079   6.782   0.643
 6313TIP3    H240499   3.017   6.649   0.608
 6314TIP3   OH240500   2.961   6.591   1.050
 6314TIP3    H140501   2.989   6.554   1.134
 6314TIP3    H240502   2.912   6.520   1.009
 6315TIP3   OH240503   2.176   6.523   1.215
 6315TIP3    H140504   2.178   6.439   1.261
 6315TIP3    H240505   2.226   6.582   1.272
 6316TIP3   OH240506   3.342   6.907   0.869
 6316TIP3    H140507   3.314   6.825   0.908
 6316TIP3    H240508   3.357   6.966   0.943
 6317TIP3   OH240509   2.334   6.968   1.018
 6317TIP3    H140510   2.294   6.887   0.985
 6317TIP3    H240511   2.340   6.954   1.113
 6318TIP3   OH240512   1.965   6.341   0.515
 6318TIP3    H140513   1.936   6.422   0.556
 6318TIP3    H240514   1.896   6.320   0.452
 6319TIP3   OH240515   2.029   6.583   0.825
 6319TIP3    H140516   2.056   6.493   0.843
 6319TIP3    H240517   2.107   6.635   0.841
 6320TIP3   OH240518   2.861   6.859   1.091
 6320TIP3    H140519   2.860   6.781   1.036
 6320TIP3    H240520   2.929   6.842   1.156
 6321TIP3   OH240521   3.692   5.983   1.165
 6321TIP3    H140522   3.707   6.049   1.233
 6321TIP3    H240523   3.740   6.016   1.089
 6322TIP3   OH240524   3.121   6.268   1.075
 6322TIP3    H140525   3.130   6.174   1.092
 6322TIP3    H240526   3.104   6.273   0.981
 6323TIP3   OH240527   2.465   6.071   0.806
 6323TIP3    H140528   2.468   6.157   0.764
 6323TIP3    H240529   2.408   6.019   0.750
 6324TIP3   OH240530   3.245   6.098   0.653
 6324TIP3    H140531   3.282   6.064   0.735
 6324TIP3    H240532   3.319   6.137   0.607
 6325TIP3   OH240533   2.105   6.325   0.890
 6325TIP3    H140534   2.168   6.283   0.947
 6325TIP3    H240535   2.123   6.289   0.803
 6326TIP3   OH240536   2.596   6.473   0.843
 6326TIP3    H140537   2.678   6.433   0.874
 6326TIP3    H240538   2.554   6.404   0.791
 6327TIP3   OH240539   3.726   6.155   1.378
 6327TIP3    H140540   3.646   6.205   1.362
 6327TIP3    H240541   3.743   6.165   1.472
 6328TIP3   OH240542   2.322   5.987   1.232
 6328TIP3    H140543   2.294   6.048   1.164
 6328TIP3    H240544   2.252   5.990   1.298
 6329TIP3   OH240545   3.070   6.949   0.561
 6329TIP3    H140546   3.038   6.950   0.471
 6329TIP3    H240547   3.025   7.023   0.603
 6330TIP3   OH240548   2.605   6.772   1.205
 6330TIP3    H140549   2.540   6.831   1.244
 6330TIP3    H240550   2.682   6.827   1.193
 6331TIP3   OH240551   3.336   6.040   0.903
 6331TIP3    H140552   3.267   6.016   0.964
 6331TIP3    H240553   3.391   6.101   0.952
 6332TIP3   OH240554   2.297   6.159   1.013
 6332TIP3    H140555   2.349   6.218   1.067
 6332TIP3    H240556   2.359   6.122   0.950
 6333TIP3   OH240557   2.414   6.949   1.303
 6333TIP3    H140558   2.427   7.043   1.310
 6333TIP3    H240559   2.329   6.933   1.344
 6334TIP3   OH240560   1.995   6.929   0.392
 6334TIP3    H140561   1.989   6.969   0.305
 6334TIP3    H240562   2.003   7.004   0.451
 6335TIP3   OH240563   3.331   7.119   1.062
 6335TIP3    H140564   3.238   7.120   1.083
 6335TIP3    H240565   3.344   7.197   1.007
 6336TIP3   OH240566   3.441   5.880   1.245
 6336TIP3    H140567   3.375   5.929   1.196
 6336TIP3    H240568   3.525   5.908   1.207
 6337TIP3   OH240569   2.678   5.678   0.982
 6337TIP3    H140570   2.654   5.586   0.987
 6337TIP3    H240571   2.600   5.725   1.013
 6338TIP3   OH240572   3.263   7.264   0.657
 6338TIP3    H140573   3.288   7.174   0.638
 6338TIP3    H240574   3.310   7.286   0.738
 6339TIP3   OH240575   3.338   7.005   0.609
 6339TIP3    H140576   3.251   6.971   0.586
 6339TIP3    H240577   3.357   6.965   0.694
 6340TIP3   OH240578   3.469   6.893   1.434
 6340TIP3    H140579   3.475   6.833   1.359
 6340TIP3    H240580   3.478   6.980   1.395
 6341TIP3   OH240581   2.931   6.588   0.446
 6341TIP3    H140582   2.867   6.655   0.421
 6341TIP3    H240583   2.990   6.582   0.371
 6342TIP3   OH240584   2.940   6.401   0.131
 6342TIP3    H140585   3.005   6.446   0.185
 6342TIP3    H240586   2.984   6.322   0.100
 6343TIP3   OH240587   3.655   6.533   1.251
 6343TIP3    H140588   3.588   6.601   1.254
 6343TIP3    H240589   3.722   6.569   1.192
 6344TIP3   OH240590   3.301   6.610   0.499
 6344TIP3    H140591   3.235   6.638   0.562
 6344TIP3    H240592   3.364   6.561   0.550
 6345TIP3   OH240593   3.261   6.404   1.465
 6345TIP3    H140594   3.260   6.473   1.532
 6345TIP3    H240595   3.196   6.433   1.401
 6346TIP3   OH240596   2.456   6.667   0.702
 6346TIP3    H140597   2.431   6.626   0.619
 6346TIP3    H240598   2.509   6.600   0.746
 6347TIP3   OH240599   2.656   7.044   0.950
 6347TIP3    H140600   2.632   7.051   0.857
 6347TIP3    H240601   2.598   6.977   0.984
 6348TIP3   OH240602   2.465   6.574   1.066
 6348TIP3    H140603   2.520   6.544   0.994
 6348TIP3    H240604   2.519   6.638   1.114
 6349TIP3   OH240605   3.066   7.086   1.171
 6349TIP3    H140606   3.075   7.131   1.255
 6349TIP3    H240607   3.079   6.993   1.192
 6350TIP3   OH240608   2.576   6.962   1.550
 6350TIP3    H140609   2.520   7.024   1.597
 6350TIP3    H240610   2.523   6.933   1.476
 6351TIP3   OH240611   3.153   6.531   0.281
 6351TIP3    H140612   3.199   6.560   0.360
 6351TIP3    H240613   3.203   6.568   0.208
 6352TIP3   OH240614   2.275   6.618   1.467
 6352TIP3    H140615   2.287   6.688   1.531
 6352TIP3    H240616   2.182   6.595   1.474
 6353TIP3   OH240617   2.986   7.194   0.658
 6353TIP3    H140618   3.074   7.230   0.659
 6353TIP3    H240619   2.931   7.265   0.626
 6354TIP3   OH240620   2.391   7.158   1.618
 6354TIP3    H140621   2.382   7.184   1.527
 6354TIP3    H240622   2.302   7.153   1.651
 6355TIP3   OH240623   3.526   5.698   0.261
 6355TIP3    H140624   3.444   5.723   0.303
 6355TIP3    H240625   3.567   5.782   0.237
 6356TIP3   OH240626   2.370   6.577   0.441
 6356TIP3    H140627   2.311   6.644   0.407
 6356TIP3    H240628   2.315   6.499   0.449
 6357TIP3   OH240629   3.672   7.103   0.145
 6357TIP3    H140630   3.622   7.094   0.226
 6357TIP3    H240631   3.748   7.046   0.157
 6358TIP3   OH240632   1.952   6.819   1.375
 6358TIP3    H140633   1.898   6.821   1.296
 6358TIP3    H240634   1.965   6.726   1.393
 6359TIP3   OH240635   1.950   7.100   1.091
 6359TIP3    H140636   2.038   7.108   1.129
 6359TIP3    H240637   1.902   7.175   1.128
 6360TIP3   OH240638   3.762   7.134   1.652
 6360TIP3    H140639   3.743   7.041   1.640
 6360TIP3    H240640   3.679   7.178   1.631
 6361TIP3   OH240641   2.816   7.103   1.528
 6361TIP3    H140642   2.814   7.177   1.588
 6361TIP3    H240643   2.733   7.057   1.543
 6362TIP3   OH240644   3.438   6.273   1.650
 6362TIP3    H140645   3.375   6.308   1.586
 6362TIP3    H240646   3.452   6.183   1.622
 6363TIP3   OH240647   2.172   6.971   1.435
 6363TIP3    H140648   2.201   6.939   1.520
 6363TIP3    H240649   2.092   6.923   1.416
 6364TIP3   OH240650   2.433   5.792   1.066
 6364TIP3    H140651   2.356   5.782   1.010
 6364TIP3    H240652   2.410   5.862   1.127
 6365TIP3   OH240653   2.921   5.764   1.417
 6365TIP3    H140654   2.969   5.715   1.483
 6365TIP3    H240655   2.829   5.757   1.444
 6366TIP3   OH240656   3.201   6.130   1.491
 6366TIP3    H140657   3.152   6.126   1.573
 6366TIP3    H240658   3.213   6.223   1.474
 6367TIP3   OH240659   3.321   6.644   0.097
 6367TIP3    H140660   3.401   6.610   0.058
 6367TIP3    H240661   3.352   6.705   0.165
 6368TIP3   OH240662   2.917   6.000   0.144
 6368TIP3    H140663   2.850   5.987   0.212
 6368TIP3    H240664   2.871   5.984   0.062
 6369TIP3   OH240665   2.434   6.323   1.184
 6369TIP3    H140666   2.375   6.322   1.259
 6369TIP3    H240667   2.434   6.414   1.155
 6370TIP3   OH240668   2.445   6.311   0.672
 6370TIP3    H140669   2.350   6.301   0.672
 6370TIP3    H240670   2.472   6.290   0.583
 6371TIP3   OH240671   2.990   6.337   0.548
 6371TIP3    H140672   2.966   6.424   0.517
 6371TIP3    H240673   3.058   6.308   0.487
 6372TIP3   OH240674   2.879   6.339   1.645
 6372TIP3    H140675   2.831   6.269   1.689
 6372TIP3    H240676   2.969   6.328   1.674
 6373TIP3   OH240677   3.088   6.277   0.803
 6373TIP3    H140678   3.042   6.320   0.732
 6373TIP3    H240679   3.134   6.204   0.762
 6374TIP3   OH240680   2.231   6.297   1.378
 6374TIP3    H140681   2.255   6.319   1.467
 6374TIP3    H240682   2.188   6.212   1.385
 6375TIP3   OH240683   2.593   6.063   0.063
 6375TIP3    H140684   2.578   6.009   0.141
 6375TIP3    H240685   2.563   6.150   0.087
 6376TIP3   OH240686   1.908   6.018   0.742
 6376TIP3    H140687   1.955   6.027   0.825
 6376TIP3    H240688   1.977   6.007   0.676
 6377TIP3   OH240689   1.945   6.125   0.249
 6377TIP3    H140690   2.025   6.161   0.211
 6377TIP3    H240691   1.890   6.201   0.268
 6378TIP3   OH240692   3.051   6.439   1.273
 6378TIP3    H140693   3.086   6.384   1.204
 6378TIP3    H240694   2.983   6.386   1.314
 6379TIP3   OH240695   2.746   6.032   0.760
 6379TIP3    H140696   2.657   6.037   0.793
 6379TIP3    H240697   2.797   5.994   0.832
 6380TIP3   OH240698   2.184   6.228   0.644
 6380TIP3    H140699   2.110   6.254   0.590
 6380TIP3    H240700   2.202   6.137   0.617
 6381TIP3   OH240701   2.511   6.227   0.419
 6381TIP3    H140702   2.606   6.224   0.436
 6381TIP3    H240703   2.504   6.261   0.329
 6382TIP3   OH240704   3.125   5.989   1.079
 6382TIP3    H140705   3.087   5.990   1.167
 6382TIP3    H240706   3.059   5.947   1.024
 6383TIP3   OH240707   2.454   6.289   0.154
 6383TIP3    H140708   2.362   6.298   0.130
 6383TIP3    H240709   2.499   6.359   0.106
 6384TIP3   OH240710   2.276   6.825   1.654
 6384TIP3    H140711   2.339   6.819   1.725
 6384TIP3    H240712   2.191   6.818   1.697
 6385TIP3   OH240713   2.822   6.354   0.958
 6385TIP3    H140714   2.891   6.298   0.924
 6385TIP3    H240715   2.782   6.303   1.029
 6386TIP3   OH240716   2.287   5.961   0.612
 6386TIP3    H140717   2.239   5.882   0.638
 6386TIP3    H240718   2.331   5.936   0.531
 6387TIP3   OH240719   2.695   6.223   1.170
 6387TIP3    H140720   2.611   6.266   1.183
 6387TIP3    H240721   2.748   6.248   1.245
 6388TIP3   OH240722   2.765   6.796   0.361
 6388TIP3    H140723   2.696   6.751   0.313
 6388TIP3    H240724   2.722   6.823   0.443
 6389TIP3   OH240725   3.464   6.737   1.204
 6389TIP3    H140726   3.524   6.792   1.153
 6389TIP3    H240727   3.394   6.715   1.142
 6390TIP3   OH240728   3.178   6.026   0.229
 6390TIP3    H140729   3.093   6.017   0.186
 6390TIP3    H240730   3.181   6.117   0.259
 6391TIP3   OH240731   2.898   6.829   1.493
 6391TIP3    H140732   2.907   6.781   1.576
 6391TIP3    H240733   2.876   6.918   1.519
 6392TIP3   OH240734   3.201   6.267   0.367
 6392TIP3    H140735   3.287   6.256   0.407
 6392TIP3    H240736   3.204   6.355   0.329
 6393TIP3   OH240737   2.272   6.707   0.912
 6393TIP3    H140738   2.331   6.705   0.837
 6393TIP3    H240739   2.314   6.653   0.978
 6394TIP3   OH240740   2.981   6.960   0.296
 6394TIP3    H140741   2.938   7.045   0.301
 6394TIP3    H240742   2.911   6.896   0.308
 6395TIP3   OH240743   1.998   6.564   1.485
 6395TIP3    H140744   2.010   6.534   1.575
 6395TIP3    H240745   1.930   6.508   1.449
 6396TIP3   OH240746   2.672   6.523   1.678
 6396TIP3    H140747   2.606   6.488   1.618
 6396TIP3    H240748   2.750   6.470   1.661
 6397TIP3   OH240749   3.095   7.103   1.448
 6397TIP3    H140750   3.002   7.111   1.472
 6397TIP3    H240751   3.141   7.101   1.532
 6398TIP3   OH240752   3.647   6.327   0.316
 6398TIP3    H140753   3.583   6.308   0.248
 6398TIP3    H240754   3.677   6.416   0.297
 6399TIP3   OH240755   3.688   6.871   1.595
 6399TIP3    H140756   3.600   6.886   1.561
 6399TIP3    H240757   3.740   6.849   1.518
 6400TIP3   OH240758   3.480   7.120   0.358
 6400TIP3    H140759   3.473   7.087   0.447
 6400TIP3    H240760   3.402   7.086   0.313
 6401TIP3   OH240761   3.260   6.673   1.012
 6401TIP3    H140762   3.165   6.663   1.022
 6401TIP3    H240763   3.288   6.592   0.971
 6402TIP3   OH240764   2.547   7.097   0.703
 6402TIP3    H140765   2.579   7.179   0.664
 6402TIP3    H240766   2.466   7.122   0.746
 6403TIP3   OH240767   2.084   6.545   0.178
 6403TIP3    H140768   2.124   6.615   0.229
 6403TIP3    H240769   1.990   6.559   0.187
 6404TIP3   OH240770   2.619   6.860   0.582
 6404TIP3    H140771   2.596   6.944   0.621
 6404TIP3    H240772   2.564   6.796   0.627
 6405TIP3   OH240773   2.768   7.184   1.268
 6405TIP3    H140774   2.721   7.265   1.286
 6405TIP3    H240775   2.792   7.149   1.354
 6406TIP3   OH240776   3.058   6.827   1.273
 6406TIP3    H140777   3.001   6.825   1.350
 6406TIP3    H240778   3.139   6.784   1.301
 6407TIP3   OH240779   3.256   7.005   0.217
 6407TIP3    H140780   3.299   6.924   0.246
 6407TIP3    H240781   3.163   6.991   0.236
 6408TIP3   OH240782   2.113   6.044   1.410
 6408TIP3    H140783   2.021   6.070   1.403
 6408TIP3    H240784   2.113   5.976   1.477
 6409TIP3   OH240785   3.405   6.790   0.317
 6409TIP3    H140786   3.361   6.738   0.384
 6409TIP3    H240787   3.495   6.797   0.347
 6410TIP3   OH240788   2.145   7.209   1.265
 6410TIP3    H140789   2.138   7.145   1.336
 6410TIP3    H240790   2.073   7.270   1.281
 6411TIP3   OH240791   2.529   7.088   0.251
 6411TIP3    H140792   2.591   7.028   0.293
 6411TIP3    H240793   2.549   7.173   0.289
 6412TIP3   OH240794   2.198   6.759   0.318
 6412TIP3    H140795   2.126   6.803   0.363
 6412TIP3    H240796   2.242   6.828   0.269
 6413TIP3   OH240797   3.014   6.008   1.329
 6413TIP3    H140798   3.084   6.032   1.390
 6413TIP3    H240799   2.981   5.924   1.362
 6414TIP3   OH240800   3.098   5.936   0.483
 6414TIP3    H140801   3.117   5.974   0.397
 6414TIP3    H240802   3.141   5.996   0.545
 6415TIP3   OH240803   2.852   7.201   0.315
 6415TIP3    H140804   2.772   7.252   0.329
 6415TIP3    H240805   2.904   7.253   0.254
 6416TIP3   OH240806   2.766   6.178   0.524
 6416TIP3    H140807   2.842   6.235   0.533
 6416TIP3    H240808   2.757   6.137   0.610
 6417TIP3   OH240809   2.875   6.257   1.378
 6417TIP3    H140810   2.866   6.274   1.472
 6417TIP3    H240811   2.910   6.168   1.373
 6418TIP3   OH240812   2.857   5.842   0.582
 6418TIP3    H140813   2.831   5.910   0.644
 6418TIP3    H240814   2.944   5.868   0.553
 6419TIP3   OH240815   2.600   0.027   0.361
 6419TIP3    H140816   2.556   0.108   0.334
 6419TIP3    H240817   2.595   0.029   0.457
 6420TIP3   OH240818   2.457   5.972   0.308
 6420TIP3    H140819   2.449   6.060   0.347
 6420TIP3    H240820   2.545   5.944   0.332
 6421TIP3   OH240821   3.457   6.024   1.506
 6421TIP3    H140822   3.364   6.045   1.503
 6421TIP3    H240823   3.475   5.982   1.422
 6422TIP3   OH240824   3.328   6.421   0.898
 6422TIP3    H140825   3.243   6.380   0.882
 6422TIP3    H240826   3.372   6.361   0.958
 6423TIP3   OH240827   2.298   6.965   0.156
 6423TIP3    H140828   2.353   7.029   0.203
 6423TIP3    H240829   2.359   6.915   0.102
 6424TIP3   OH240830   2.151   6.289   0.104
 6424TIP3    H140831   2.130   6.378   0.133
 6424TIP3    H240832   2.113   6.284   0.016
 6425TIP3   OH240833   2.186   5.763   0.945
 6425TIP3    H140834   2.176   5.752   0.850
 6425TIP3    H240835   2.157   5.680   0.982
 6426TIP3   OH240836   1.994   7.181   0.524
 6426TIP3    H140837   1.900   7.167   0.510
 6426TIP3    H240838   2.019   7.243   0.455
 6427TIP3   OH240839   2.500   7.245   1.856
 6427TIP3    H140840   2.563   7.176   1.875
 6427TIP3    H240841   2.459   7.219   1.773
 6428TIP3   OH240842   3.015   7.303   0.114
 6428TIP3    H140843   2.957   7.280   0.042
 6428TIP3    H240844   3.101   7.274   0.086
 6429TIP3   OH240845   3.181   7.065   1.702
 6429TIP3    H140846   3.117   7.011   1.747
 6429TIP3    H240847   3.177   7.150   1.747
 6430TIP3   OH240848   3.298   7.251   0.091
 6430TIP3    H140849   3.285   7.164   0.130
 6430TIP3    H240850   3.374   7.241   0.034
 6431TIP3   OH240851   2.031   6.793   1.761
 6431TIP3    H140852   2.024   6.698   1.774
 6431TIP3    H240853   1.944   6.819   1.731
 6432TIP3   OH240854   2.495   6.817   0.034
 6432TIP3    H140855   2.522   6.767   0.111
 6432TIP3    H240856   2.489   6.753   8.464
 6433TIP3   OH240857   2.702   6.795   1.735
 6433TIP3    H140858   2.658   6.836   1.661
 6433TIP3    H240859   2.693   6.701   1.719
 6434TIP3   OH240860   3.222   6.810   1.511
 6434TIP3    H140861   3.310   6.841   1.494
 6434TIP3    H240862   3.171   6.888   1.530
 6435TIP3   OH240863   2.077   6.502   1.747
 6435TIP3    H140864   2.142   6.433   1.730
 6435TIP3    H240865   2.076   6.511   1.842
 6436TIP3   OH240866   2.563   6.649   0.244
 6436TIP3    H140867   2.505   6.615   0.312
 6436TIP3    H240868   2.594   6.572   0.197
 6437TIP3   OH240869   2.489   6.435   1.483
 6437TIP3    H140870   2.415   6.495   1.478
 6437TIP3    H240871   2.551   6.469   1.418
 6438TIP3   OH240872   2.671   6.456   0.073
 6438TIP3    H140873   2.677   6.461   8.477
 6438TIP3    H240874   2.760   6.435   0.101
 6439TIP3   OH240875   3.022   6.622   1.809
 6439TIP3    H140876   3.021   6.718   1.814
 6439TIP3    H240877   3.103   6.602   1.762
 6440TIP3   OH240878   3.591   6.740   0.008
 6440TIP3    H140879   3.560   6.749   8.418
 6440TIP3    H240880   3.591   6.830   0.042
 6441TIP3   OH240881   2.564   6.181   1.565
 6441TIP3    H140882   2.561   6.117   1.493
 6441TIP3    H240883   2.534   6.263   1.525
 6442TIP3   OH240884   2.575   6.013   1.336
 6442TIP3    H140885   2.622   6.062   1.268
 6442TIP3    H240886   2.485   6.006   1.302
 6443TIP3   OH240887   2.688   6.539   1.330
 6443TIP3    H140888   2.779   6.553   1.357
 6443TIP3    H240889   2.663   6.622   1.287
 6444TIP3   OH240890   3.280   6.601   1.675
 6444TIP3    H140891   3.252   6.675   1.621
 6444TIP3    H240892   3.375   6.609   1.678
 6445TIP3   OH240893   2.287   6.285   1.685
 6445TIP3    H140894   2.252   6.202   1.717
 6445TIP3    H240895   2.382   6.272   1.684
 6446TIP3   OH240896   2.634   5.739   1.382
 6446TIP3    H140897   2.612   5.832   1.371
 6446TIP3    H240898   2.557   5.692   1.351
 6447TIP3   OH240899   2.758   6.119   1.748
 6447TIP3    H140900   2.710   6.085   1.824
 6447TIP3    H240901   2.691   6.130   1.681
 6448TIP3   OH240902   3.047   6.114   1.717
 6448TIP3    H140903   2.956   6.089   1.732
 6448TIP3    H240904   3.098   6.050   1.767
 6449TIP3   OH240905   3.204   5.940   1.864
 6449TIP3    H140906   3.202   5.845   1.851
 6449TIP3    H240907   3.182   5.951   1.957
 6450TIP3   OH240908   2.191   6.037   1.766
 6450TIP3    H140909   2.178   5.958   1.712
 6450TIP3    H240910   2.222   6.003   1.850
 6451TIP3   OH240911   2.698   5.689   1.644
 6451TIP3    H140912   2.730   5.598   1.647
 6451TIP3    H240913   2.658   5.697   1.558
 6452TIP3   OH240914   2.684   5.812   1.888
 6452TIP3    H140915   2.690   5.771   1.802
 6452TIP3    H240916   2.635   5.893   1.872
 6453TIP3   OH240917   2.020   7.020   0.124
 6453TIP3    H140918   2.114   7.017   0.139
 6453TIP3    H240919   2.011   7.021   0.028
 6454TIP3   OH240920   3.453   6.868   1.959
 6454TIP3    H140921   3.393   6.923   1.908
 6454TIP3    H240922   3.527   6.925   1.979
 6455TIP3   OH240923   3.664   6.767   0.414
 6455TIP3    H140924   3.737   6.829   0.421
 6455TIP3    H240925   3.675   6.708   0.489
 6456TIP3   OH240926   3.708   6.574   0.606
 6456TIP3    H140927   3.627   6.536   0.638
 6456TIP3    H240928   3.762   6.585   0.684
 6457TIP3   OH240929   3.670   6.883   1.093
 6457TIP3    H140930   3.722   6.808   1.067
 6457TIP3    H240931   3.722   6.959   1.067
 6458TIP3   OH240932   3.434   7.142   1.321
 6458TIP3    H140933   3.347   7.151   1.360
 6458TIP3    H240934   3.417   7.129   1.227
 6459TIP3   OH240935   3.705   6.584   0.216
 6459TIP3    H140936   3.658   6.625   0.145
 6459TIP3    H240937   3.691   6.641   0.291
 6460TIP3   OH240938   3.481   6.293   0.094
 6460TIP3    H140939   3.559   6.305   0.039
 6460TIP3    H240940   3.460   6.200   0.086
 6461TIP3   OH240941   3.462   6.450   0.658
 6461TIP3    H140942   3.460   6.358   0.630
 6461TIP3    H240943   3.423   6.449   0.745
 6462TIP3   OH240944   1.955   6.626   1.088
 6462TIP3    H140945   1.968   6.612   0.994
 6462TIP3    H240946   2.037   6.596   1.128
 6463TIP3   OH240947   3.552   6.637   1.686
 6463TIP3    H140948   3.606   6.560   1.669
 6463TIP3    H240949   3.605   6.711   1.654
 6464TIP3   OH240950   3.667   6.390   1.727
 6464TIP3    H140951   3.582   6.350   1.710
 6464TIP3    H240952   3.730   6.321   1.705
 6465TIP3   OH240953   3.425   6.031   0.076
 6465TIP3    H140954   3.498   5.977   0.104
 6465TIP3    H240955   3.351   6.000   0.129
 6466TIP3   OH240956   3.455   6.205   0.492
 6466TIP3    H140957   3.481   6.113   0.494
 6466TIP3    H240958   3.526   6.249   0.445
 6467TIP3   OH240959   3.469   6.232   1.052
 6467TIP3    H140960   3.563   6.242   1.033
 6467TIP3    H240961   3.462   6.250   1.146
 6468TIP3   OH240962   3.499   6.316   1.317
 6468TIP3    H140963   3.425   6.351   1.366
 6468TIP3    H240964   3.554   6.392   1.298
 6469TIP3   OH240965   1.966   6.190   1.781
 6469TIP3    H140966   2.047   6.141   1.769
 6469TIP3    H240967   1.900   6.140   1.732
 6470TIP3   OH240968   3.750   5.704   1.850
 6470TIP3    H140969   3.810   5.651   1.798
 6470TIP3    H240970   3.745   5.788   1.804
 6471TIP3   OH240971   3.516   5.934   0.501
 6471TIP3    H140972   3.539   5.897   0.586
 6471TIP3    H240973   3.446   5.877   0.468
 6472TIP3   OH240974   2.059   6.009   0.971
 6472TIP3    H140975   2.095   5.921   0.977
 6472TIP3    H240976   2.132   6.067   0.993
 6473TIP3   OH240977   1.866   6.286   1.038
 6473TIP3    H140978   1.941   6.293   0.979
 6473TIP3    H240979   1.891   6.338   1.114
 6474TIP3   OH240980   3.666   5.929   1.697
 6474TIP3    H140981   3.605   5.960   1.764
 6474TIP3    H240982   3.614   5.922   1.618
 6475TIP3   OH240983   3.668   5.914   0.155
 6475TIP3    H140984   3.734   5.849   0.134
 6475TIP3    H240985   3.717   5.991   0.182
 6476TIP3   OH240986   1.922   5.915   0.434
 6476TIP3    H140987   1.831   5.921   0.462
 6476TIP3    H240988   1.936   5.994   0.381
 6477TIP3   OH240989   1.908   5.760   1.291
 6477TIP3    H140990   1.847   5.749   1.363
 6477TIP3    H240991   1.875   5.836   1.242
 6478TIP3   OH240992   2.144   7.154   1.739
 6478TIP3    H140993   2.052   7.154   1.712
 6478TIP3    H240994   2.146   7.097   1.816
 6479TIP3   OH240995   2.411   7.217   1.343
 6479TIP3    H140996   2.328   7.241   1.302
 6479TIP3    H240997   2.466   7.295   1.331
 6480TIP3   OH240998   3.579   5.714   1.472
 6480TIP3    H140999   3.505   5.735   1.415
 6480TIP3    H241000   3.600   5.623   1.451
 6481TIP3   OH241001   2.354   7.199   0.871
 6481TIP3    H141002   2.336   7.119   0.921
 6481TIP3    H241003   2.375   7.264   0.938
 6482TIP3   OH241004   2.908   5.868   0.920
 6482TIP3    H141005   2.849   5.798   0.946
 6482TIP3    H241006   2.982   5.823   0.880
 6483TIP3   OH241007   3.419   5.707   0.900
 6483TIP3    H141008   3.483   5.764   0.857
 6483TIP3    H241009   3.338   5.758   0.901
 6484TIP3   OH241010   3.607   5.817   0.733
 6484TIP3    H141011   3.670   5.747   0.715
 6484TIP3    H241012   3.661   5.894   0.749
 6485TIP3   OH241013   2.155   5.723   0.672
 6485TIP3    H141014   2.062   5.704   0.657
 6485TIP3    H241015   2.199   5.638   0.663
 6486TIP3   OH241016   2.011   5.737   0.238
 6486TIP3    H141017   2.094   5.774   0.210
 6486TIP3    H241018   1.986   5.788   0.316
 6487TIP3   OH241019   2.641   5.694   0.697
 6487TIP3    H141020   2.712   5.746   0.660
 6487TIP3    H241021   2.656   5.696   0.791
 6488TIP3   OH241022   3.136   5.745   0.822
 6488TIP3    H141023   3.173   5.723   0.737
 6488TIP3    H241024   3.117   5.660   0.863
 6489TIP3   OH241025   3.310   5.765   0.416
 6489TIP3    H141026   3.234   5.820   0.434
 6489TIP3    H241027   3.277   5.675   0.427
 6490TIP3   OH241028   2.252   5.847   0.159
 6490TIP3    H141029   2.288   5.855   0.071
 6490TIP3    H241030   2.317   5.887   0.216
 6491TIP3   OH241031   2.732   5.962   0.357
 6491TIP3    H141032   2.766   5.893   0.414
 6491TIP3    H241033   2.745   6.043   0.406
 6492TIP3   OH241034   2.167   5.795   1.628
 6492TIP3    H141035   2.097   5.733   1.645
 6492TIP3    H241036   2.241   5.764   1.680
 6493TIP3   OH241037   2.323   5.678   1.834
 6493TIP3    H141038   2.377   5.599   1.841
 6493TIP3    H241039   2.238   5.652   1.868
 6494TIP3   OH241040   3.229   5.666   1.824
 6494TIP3    H141041   3.212   5.613   1.902
 6494TIP3    H241042   3.323   5.655   1.808
 6495TIP3   OH241043   3.513   7.278   1.654
 6495TIP3    H141044   3.430   7.299   1.611
 6495TIP3    H241045   3.560   0.057   1.657
 6496TIP3   OH241046   4.964   6.661   0.674
 6496TIP3    H141047   4.958   6.756   0.668
 6496TIP3    H241048   4.908   6.628   0.604
 6497TIP3   OH241049   4.832   6.543   1.012
 6497TIP3    H141050   4.844   6.536   1.106
 6497TIP3    H241051   4.770   6.473   0.991
 6498TIP3   OH241052   4.064   6.443   1.125
 6498TIP3    H141053   4.074   6.394   1.207
 6498TIP3    H241054   4.079   6.534   1.149
 6499TIP3   OH241055   5.215   6.878   0.866
 6499TIP3    H141056   5.175   6.814   0.923
 6499TIP3    H241057   5.241   6.949   0.924
 6500TIP3   OH241058   4.181   6.986   1.024
 6500TIP3    H141059   4.143   6.912   1.071
 6500TIP3    H241060   4.275   6.968   1.023
 6501TIP3   OH241061   3.858   6.341   0.520
 6501TIP3    H141062   3.828   6.422   0.562
 6501TIP3    H241063   3.786   6.316   0.463
 6502TIP3   OH241064   3.891   6.578   0.810
 6502TIP3    H141065   3.907   6.487   0.833
 6502TIP3    H241066   3.975   6.621   0.824
 6503TIP3   OH241067   4.707   6.851   1.072
 6503TIP3    H141068   4.728   6.776   1.016
 6503TIP3    H241069   4.782   6.858   1.130
 6504TIP3   OH241070   5.578   5.988   1.160
 6504TIP3    H141071   5.593   6.054   1.228
 6504TIP3    H241072   5.636   6.013   1.088
 6505TIP3   OH241073   4.994   6.264   1.048
 6505TIP3    H141074   5.014   6.173   1.070
 6505TIP3    H241075   4.913   6.260   0.998
 6506TIP3   OH241076   4.352   6.074   0.801
 6506TIP3    H141077   4.348   6.160   0.759
 6506TIP3    H241078   4.294   6.019   0.748
 6507TIP3   OH241079   5.133   6.118   0.658
 6507TIP3    H141080   5.173   6.086   0.738
 6507TIP3    H241081   5.206   6.148   0.604
 6508TIP3   OH241082   3.962   6.330   0.893
 6508TIP3    H141083   4.019   6.353   0.966
 6508TIP3    H241084   4.019   6.282   0.833
 6509TIP3   OH241085   4.500   6.470   0.830
 6509TIP3    H141086   4.568   6.415   0.867
 6509TIP3    H241087   4.445   6.409   0.780
 6510TIP3   OH241088   5.618   6.156   1.379
 6510TIP3    H141089   5.538   6.207   1.364
 6510TIP3    H241090   5.633   6.163   1.473
 6511TIP3   OH241091   4.208   5.985   1.236
 6511TIP3    H141092   4.183   6.043   1.164
 6511TIP3    H241093   4.139   5.998   1.301
 6512TIP3   OH241094   4.919   6.916   0.587
 6512TIP3    H141095   4.912   6.921   0.492
 6512TIP3    H241096   4.887   7.001   0.618
 6513TIP3   OH241097   4.485   6.758   1.212
 6513TIP3    H141098   4.426   6.823   1.248
 6513TIP3    H241099   4.552   6.808   1.165
 6514TIP3   OH241100   5.246   6.061   0.897
 6514TIP3    H141101   5.183   6.036   0.964
 6514TIP3    H241102   5.311   6.114   0.944
 6515TIP3   OH241103   4.184   6.146   1.014
 6515TIP3    H141104   4.231   6.213   1.064
 6515TIP3    H241105   4.247   6.118   0.947
 6516TIP3   OH241106   4.298   6.937   1.325
 6516TIP3    H141107   4.236   6.989   1.375
 6516TIP3    H241108   4.245   6.868   1.285
 6517TIP3   OH241109   3.880   6.939   0.389
 6517TIP3    H141110   3.897   6.960   0.297
 6517TIP3    H241111   3.903   7.019   0.437
 6518TIP3   OH241112   5.259   7.093   1.045
 6518TIP3    H141113   5.170   7.100   1.080
 6518TIP3    H241114   5.271   7.173   0.994
 6519TIP3   OH241115   5.318   5.897   1.238
 6519TIP3    H141116   5.255   5.945   1.184
 6519TIP3    H241117   5.403   5.922   1.202
 6520TIP3   OH241118   4.560   5.676   0.978
 6520TIP3    H141119   4.535   5.584   0.982
 6520TIP3    H241120   4.483   5.723   1.011
 6521TIP3   OH241121   5.121   7.241   0.700
 6521TIP3    H141122   5.155   7.160   0.663
 6521TIP3    H241123   5.186   7.266   0.765
 6522TIP3   OH241124   5.245   7.012   0.612
 6522TIP3    H141125   5.239   6.951   0.539
 6522TIP3    H241126   5.235   6.957   0.690
 6523TIP3   OH241127   5.375   6.913   1.432
 6523TIP3    H141128   5.374   6.856   1.355
 6523TIP3    H241129   5.369   7.002   1.397
 6524TIP3   OH241130   4.838   6.606   0.434
 6524TIP3    H141131   4.767   6.667   0.412
 6524TIP3    H241132   4.897   6.610   0.358
 6525TIP3   OH241133   4.822   6.422   0.144
 6525TIP3    H141134   4.893   6.476   0.179
 6525TIP3    H241135   4.865   6.343   0.113
 6526TIP3   OH241136   5.534   6.552   1.280
 6526TIP3    H141137   5.469   6.620   1.267
 6526TIP3    H241138   5.600   6.569   1.213
 6527TIP3   OH241139   5.177   6.609   0.494
 6527TIP3    H141140   5.109   6.629   0.557
 6527TIP3    H241141   5.238   6.552   0.541
 6528TIP3   OH241142   5.129   6.395   1.467
 6528TIP3    H141143   5.130   6.468   1.529
 6528TIP3    H241144   5.073   6.425   1.395
 6529TIP3   OH241145   4.355   6.668   0.701
 6529TIP3    H141146   4.326   6.625   0.621
 6529TIP3    H241147   4.411   6.603   0.744
 6530TIP3   OH241148   4.462   6.979   0.977
 6530TIP3    H141149   4.471   7.003   0.884
 6530TIP3    H241150   4.550   6.954   1.004
 6531TIP3   OH241151   4.372   6.546   1.070
 6531TIP3    H141152   4.422   6.543   0.988
 6531TIP3    H241153   4.406   6.624   1.115
 6532TIP3   OH241154   5.022   7.092   1.182
 6532TIP3    H141155   4.972   7.152   1.238
 6532TIP3    H241156   4.985   7.006   1.201
 6533TIP3   OH241157   4.472   6.969   1.538
 6533TIP3    H141158   4.413   7.028   1.583
 6533TIP3    H241159   4.423   6.939   1.461
 6534TIP3   OH241160   5.047   6.571   0.244
 6534TIP3    H141161   5.095   6.571   0.327
 6534TIP3    H241162   5.107   6.612   0.181
 6535TIP3   OH241163   4.174   6.580   1.488
 6535TIP3    H141164   4.177   6.650   1.553
 6535TIP3    H241165   4.140   6.623   1.409
 6536TIP3   OH241166   4.857   7.184   0.637
 6536TIP3    H141167   4.947   7.208   0.660
 6536TIP3    H241168   4.820   7.265   0.601
 6537TIP3   OH241169   4.291   7.162   1.611
 6537TIP3    H141170   4.263   7.204   1.530
 6537TIP3    H241171   4.209   7.147   1.660
 6538TIP3   OH241172   5.426   5.693   0.276
 6538TIP3    H141173   5.342   5.725   0.310
 6538TIP3    H241174   5.468   5.770   0.237
 6539TIP3   OH241175   4.262   6.570   0.446
 6539TIP3    H141176   4.199   6.636   0.416
 6539TIP3    H241177   4.210   6.492   0.462
 6540TIP3   OH241178   5.514   7.098   0.163
 6540TIP3    H141179   5.498   7.192   0.172
 6540TIP3    H241180   5.608   7.091   0.149
 6541TIP3   OH241181   3.804   6.848   1.347
 6541TIP3    H141182   3.751   6.859   1.268
 6541TIP3    H241183   3.881   6.799   1.317
 6542TIP3   OH241184   3.856   7.092   1.062
 6542TIP3    H141185   3.943   7.058   1.081
 6542TIP3    H241186   3.840   7.157   1.130
 6543TIP3   OH241187   5.625   7.135   1.622
 6543TIP3    H141188   5.610   7.041   1.621
 6543TIP3    H241189   5.542   7.173   1.651
 6544TIP3   OH241190   4.723   7.083   1.543
 6544TIP3    H141191   4.725   7.141   1.619
 6544TIP3    H241192   4.632   7.053   1.539
 6545TIP3   OH241193   5.346   6.274   1.597
 6545TIP3    H141194   5.258   6.307   1.575
 6545TIP3    H241195   5.338   6.179   1.592
 6546TIP3   OH241196   4.063   7.029   1.441
 6546TIP3    H141197   4.051   7.035   1.536
 6546TIP3    H241198   4.023   6.946   1.417
 6547TIP3   OH241199   4.319   5.792   1.068
 6547TIP3    H141200   4.242   5.782   1.012
 6547TIP3    H241201   4.296   5.862   1.128
 6548TIP3   OH241202   4.788   5.772   1.397
 6548TIP3    H141203   4.833   5.719   1.463
 6548TIP3    H241204   4.695   5.764   1.418
 6549TIP3   OH241205   5.066   6.123   1.505
 6549TIP3    H141206   5.013   6.108   1.583
 6549TIP3    H241207   5.072   6.219   1.497
 6550TIP3   OH241208   5.214   6.666   0.039
 6550TIP3    H141209   5.212   6.670   8.443
 6550TIP3    H241210   5.299   6.702   0.062
 6551TIP3   OH241211   4.781   5.976   0.136
 6551TIP3    H141212   4.710   5.967   0.200
 6551TIP3    H241213   4.738   5.967   0.051
 6552TIP3   OH241214   4.335   6.305   1.190
 6552TIP3    H141215   4.267   6.310   1.258
 6552TIP3    H241216   4.337   6.392   1.152
 6553TIP3   OH241217   4.333   6.316   0.672
 6553TIP3    H141218   4.238   6.304   0.676
 6553TIP3    H241219   4.356   6.292   0.582
 6554TIP3   OH241220   4.858   6.344   0.512
 6554TIP3    H141221   4.837   6.433   0.481
 6554TIP3    H241222   4.941   6.323   0.470
 6555TIP3   OH241223   4.805   6.362   1.699
 6555TIP3    H141224   4.749   6.293   1.733
 6555TIP3    H241225   4.890   6.347   1.741
 6556TIP3   OH241226   4.973   6.330   0.756
 6556TIP3    H141227   4.913   6.336   0.681
 6556TIP3    H241228   5.028   6.254   0.737
 6557TIP3   OH241229   4.120   6.314   1.363
 6557TIP3    H141230   4.117   6.375   1.437
 6557TIP3    H241231   4.081   6.234   1.396
 6558TIP3   OH241232   4.443   6.071   0.070
 6558TIP3    H141233   4.416   6.025   0.149
 6558TIP3    H241234   4.422   6.163   0.086
 6559TIP3   OH241235   3.788   6.016   0.740
 6559TIP3    H141236   3.835   6.029   0.822
 6559TIP3    H241237   3.857   6.003   0.675
 6560TIP3   OH241238   3.830   6.123   0.252
 6560TIP3    H141239   3.909   6.159   0.211
 6560TIP3    H241240   3.777   6.199   0.273
 6561TIP3   OH241241   4.945   6.444   1.254
 6561TIP3    H141242   4.968   6.376   1.191
 6561TIP3    H241243   4.880   6.403   1.312
 6562TIP3   OH241244   4.629   6.092   0.798
 6562TIP3    H141245   4.535   6.075   0.809
 6562TIP3    H241246   4.672   6.010   0.823
 6563TIP3   OH241247   4.077   6.225   0.655
 6563TIP3    H141248   4.000   6.253   0.606
 6563TIP3    H241249   4.091   6.134   0.628
 6564TIP3   OH241250   4.391   6.226   0.420
 6564TIP3    H141251   4.485   6.221   0.436
 6564TIP3    H241252   4.384   6.266   0.333
 6565TIP3   OH241253   5.057   5.987   1.081
 6565TIP3    H141254   5.006   5.987   1.162
 6565TIP3    H241255   5.023   5.912   1.031
 6566TIP3   OH241256   4.340   6.313   0.163
 6566TIP3    H141257   4.251   6.319   0.126
 6566TIP3    H241258   4.392   6.374   0.110
 6567TIP3   OH241259   4.174   6.782   1.675
 6567TIP3    H141260   4.226   6.803   1.753
 6567TIP3    H241261   4.083   6.795   1.701
 6568TIP3   OH241262   4.696   6.305   0.960
 6568TIP3    H141263   4.680   6.233   0.900
 6568TIP3    H241264   4.660   6.275   1.044
 6569TIP3   OH241265   4.175   5.958   0.611
 6569TIP3    H141266   4.126   5.880   0.638
 6569TIP3    H241267   4.215   5.934   0.528
 6570TIP3   OH241268   4.596   6.228   1.205
 6570TIP3    H141269   4.507   6.263   1.207
 6570TIP3    H241270   4.640   6.271   1.278
 6571TIP3   OH241271   4.641   6.789   0.358
 6571TIP3    H141272   4.572   6.745   0.309
 6571TIP3    H241273   4.598   6.819   0.438
 6572TIP3   OH241274   5.357   6.757   1.205
 6572TIP3    H141275   5.432   6.802   1.166
 6572TIP3    H241276   5.290   6.758   1.137
 6573TIP3   OH241277   5.033   6.045   0.212
 6573TIP3    H141278   4.946   6.017   0.184
 6573TIP3    H241279   5.056   6.116   0.152
 6574TIP3   OH241280   4.768   6.805   1.491
 6574TIP3    H141281   4.785   6.765   1.577
 6574TIP3    H241282   4.747   6.896   1.511
 6575TIP3   OH241283   5.105   6.306   0.398
 6575TIP3    H141284   5.189   6.269   0.424
 6575TIP3    H241285   5.115   6.326   0.305
 6576TIP3   OH241286   4.136   6.669   0.882
 6576TIP3    H141287   4.216   6.684   0.831
 6576TIP3    H241288   4.167   6.657   0.971
 6577TIP3   OH241289   4.866   6.939   0.310
 6577TIP3    H141290   4.829   7.027   0.306
 6577TIP3    H241291   4.791   6.881   0.317
 6578TIP3   OH241292   3.805   6.582   1.545
 6578TIP3    H141293   3.857   6.524   1.601
 6578TIP3    H241294   3.793   6.533   1.464
 6579TIP3   OH241295   4.579   6.528   1.685
 6579TIP3    H141296   4.515   6.484   1.630
 6579TIP3    H241297   4.656   6.471   1.683
 6580TIP3   OH241298   4.997   7.072   1.491
 6580TIP3    H141299   4.902   7.082   1.497
 6580TIP3    H241300   5.029   7.095   1.578
 6581TIP3   OH241301   5.538   6.330   0.310
 6581TIP3    H141302   5.472   6.309   0.244
 6581TIP3    H241303   5.566   6.419   0.288
 6582TIP3   OH241304   5.578   6.855   1.601
 6582TIP3    H141305   5.497   6.876   1.555
 6582TIP3    H241306   5.642   6.840   1.532
 6583TIP3   OH241307   5.503   7.117   0.453
 6583TIP3    H141308   5.426   7.081   0.497
 6583TIP3    H241309   5.489   7.098   0.361
 6584TIP3   OH241310   5.124   6.650   1.046
 6584TIP3    H141311   5.066   6.655   1.122
 6584TIP3    H241312   5.181   6.575   1.064
 6585TIP3   OH241313   4.420   7.094   0.706
 6585TIP3    H141314   4.465   7.176   0.685
 6585TIP3    H241315   4.341   7.121   0.752
 6586TIP3   OH241316   3.976   6.574   0.151
 6586TIP3    H141317   4.017   6.623   0.222
 6586TIP3    H241318   3.884   6.569   0.176
 6587TIP3   OH241319   4.492   6.868   0.569
 6587TIP3    H141320   4.471   6.951   0.613
 6587TIP3    H241321   4.445   6.802   0.619
 6588TIP3   OH241322   4.626   7.245   1.201
 6588TIP3    H141323   4.600   0.003   1.269
 6588TIP3    H241324   4.651   7.166   1.248
 6589TIP3   OH241325   4.921   6.834   1.263
 6589TIP3    H141326   4.852   6.821   1.328
 6589TIP3    H241327   5.002   6.819   1.311
 6590TIP3   OH241328   5.120   6.979   0.205
 6590TIP3    H141329   5.179   6.931   0.263
 6590TIP3    H241330   5.032   6.961   0.238
 6591TIP3   OH241331   4.006   6.060   1.417
 6591TIP3    H141332   3.914   6.078   1.399
 6591TIP3    H241333   4.006   6.011   1.499
 6592TIP3   OH241334   5.281   6.841   0.390
 6592TIP3    H141335   5.239   6.759   0.418
 6592TIP3    H241336   5.375   6.822   0.391
 6593TIP3   OH241337   4.045   7.234   1.257
 6593TIP3    H141338   4.037   7.166   1.324
 6593TIP3    H241339   3.975   7.297   1.279
 6594TIP3   OH241340   4.431   7.075   0.267
 6594TIP3    H141341   4.495   7.014   0.304
 6594TIP3    H241342   4.454   7.160   0.305
 6595TIP3   OH241343   4.086   6.755   0.332
 6595TIP3    H141344   4.015   6.799   0.380
 6595TIP3    H241345   4.136   6.827   0.293
 6596TIP3   OH241346   4.915   6.000   1.311
 6596TIP3    H141347   4.970   6.030   1.384
 6596TIP3    H241348   4.867   5.925   1.345
 6597TIP3   OH241349   4.991   5.957   0.474
 6597TIP3    H141350   5.001   5.998   0.388
 6597TIP3    H241351   5.030   6.021   0.535
 6598TIP3   OH241352   4.742   7.181   0.298
 6598TIP3    H141353   4.666   7.224   0.335
 6598TIP3    H241354   4.783   7.247   0.242
 6599TIP3   OH241355   4.644   6.175   0.527
 6599TIP3    H141356   4.719   6.233   0.519
 6599TIP3    H241357   4.641   6.152   0.620
 6600TIP3   OH241358   4.791   6.282   1.417
 6600TIP3    H141359   4.786   6.304   1.510
 6600TIP3    H241360   4.802   6.187   1.415
 6601TIP3   OH241361   4.762   5.833   0.576
 6601TIP3    H141362   4.767   5.855   0.669
 6601TIP3    H241363   4.839   5.875   0.538
 6602TIP3   OH241364   4.512   0.007   0.391
 6602TIP3    H141365   4.531   0.099   0.375
 6602TIP3    H241366   4.499   0.001   0.485
 6603TIP3   OH241367   4.339   5.972   0.312
 6603TIP3    H141368   4.332   6.058   0.354
 6603TIP3    H241369   4.428   5.942   0.333
 6604TIP3   OH241370   5.317   6.011   1.500
 6604TIP3    H141371   5.225   6.037   1.502
 6604TIP3    H241372   5.328   5.968   1.415
 6605TIP3   OH241373   5.206   6.397   0.923
 6605TIP3    H141374   5.136   6.337   0.950
 6605TIP3    H241375   5.286   6.358   0.959
 6606TIP3   OH241376   4.189   6.979   0.187
 6606TIP3    H141377   4.261   7.027   0.228
 6606TIP3    H241378   4.231   6.923   0.122
 6607TIP3   OH241379   4.021   6.300   0.103
 6607TIP3    H141380   4.006   6.394   0.116
 6607TIP3    H241381   4.002   6.285   0.011
 6608TIP3   OH241382   4.073   5.762   0.946
 6608TIP3    H141383   4.062   5.752   0.851
 6608TIP3    H241384   4.041   5.680   0.982
 6609TIP3   OH241385   3.937   7.166   0.544
 6609TIP3    H141386   3.906   7.120   0.623
 6609TIP3    H241387   3.988   7.240   0.577
 6610TIP3   OH241388   4.379   7.235   1.927
 6610TIP3    H141389   4.408   7.274   2.010
 6610TIP3    H241390   4.456   7.240   1.870
 6611TIP3   OH241391   4.860   0.048   0.112
 6611TIP3    H141392   4.827   7.293   0.044
 6611TIP3    H241393   4.955   0.037   0.109
 6612TIP3   OH241394   5.078   7.114   1.751
 6612TIP3    H141395   5.039   7.035   1.788
 6612TIP3    H241396   5.020   7.185   1.779
 6613TIP3   OH241397   5.247   7.141   0.029
 6613TIP3    H141398   5.193   7.094   0.092
 6613TIP3    H241399   5.333   7.147   0.071
 6614TIP3   OH241400   3.910   6.780   1.738
 6614TIP3    H141401   3.904   6.686   1.723
 6614TIP3    H241402   3.829   6.816   1.702
 6615TIP3   OH241403   4.325   6.797   0.034
 6615TIP3    H141404   4.365   6.754   0.109
 6615TIP3    H241405   4.352   6.743   8.459
 6616TIP3   OH241406   4.552   6.796   1.743
 6616TIP3    H141407   4.521   6.839   1.663
 6616TIP3    H241408   4.562   6.704   1.718
 6617TIP3   OH241409   5.117   6.825   1.464
 6617TIP3    H141410   5.208   6.854   1.464
 6617TIP3    H241411   5.067   6.905   1.482
 6618TIP3   OH241412   3.980   6.487   1.744
 6618TIP3    H141413   4.070   6.508   1.720
 6618TIP3    H241414   3.988   6.438   1.826
 6619TIP3   OH241415   4.435   6.649   0.237
 6619TIP3    H141416   4.387   6.609   0.310
 6619TIP3    H241417   4.475   6.575   0.191
 6620TIP3   OH241418   4.404   6.423   1.492
 6620TIP3    H141419   4.325   6.476   1.489
 6620TIP3    H241420   4.462   6.463   1.427
 6621TIP3   OH241421   4.558   6.463   0.068
 6621TIP3    H141422   4.568   6.455   8.473
 6621TIP3    H241423   4.646   6.449   0.103
 6622TIP3   OH241424   4.906   6.652   1.775
 6622TIP3    H141425   4.992   6.628   1.739
 6622TIP3    H241426   4.857   6.570   1.778
 6623TIP3   OH241427   5.473   6.782   0.044
 6623TIP3    H141428   5.480   6.794   8.450
 6623TIP3    H241429   5.477   6.871   0.080
 6624TIP3   OH241430   4.438   6.162   1.570
 6624TIP3    H141431   4.441   6.103   1.495
 6624TIP3    H241432   4.422   6.249   1.533
 6625TIP3   OH241433   4.462   6.007   1.337
 6625TIP3    H141434   4.511   6.063   1.277
 6625TIP3    H241435   4.373   6.004   1.301
 6626TIP3   OH241436   4.601   6.547   1.342
 6626TIP3    H141437   4.663   6.594   1.397
 6626TIP3    H241438   4.555   6.616   1.293
 6627TIP3   OH241439   5.045   6.300   1.829
 6627TIP3    H141440   5.045   6.206   1.813
 6627TIP3    H241441   5.137   6.322   1.845
 6628TIP3   OH241442   5.150   6.610   1.637
 6628TIP3    H141443   5.136   6.687   1.582
 6628TIP3    H241444   5.241   6.618   1.667
 6629TIP3   OH241445   4.291   6.196   1.804
 6629TIP3    H141446   4.201   6.168   1.786
 6629TIP3    H241447   4.337   6.187   1.720
 6630TIP3   OH241448   4.515   5.742   1.409
 6630TIP3    H141449   4.492   5.833   1.390
 6630TIP3    H241450   4.443   5.691   1.372
 6631TIP3   OH241451   4.644   6.146   1.751
 6631TIP3    H141452   4.604   6.115   1.832
 6631TIP3    H241453   4.573   6.145   1.687
 6632TIP3   OH241454   4.901   6.059   1.714
 6632TIP3    H141455   4.810   6.087   1.720
 6632TIP3    H241456   4.907   5.983   1.772
 6633TIP3   OH241457   5.106   5.911   1.887
 6633TIP3    H141458   5.121   5.838   1.826
 6633TIP3    H241459   5.015   5.899   1.916
 6634TIP3   OH241460   4.038   6.092   1.759
 6634TIP3    H141461   4.037   5.997   1.765
 6634TIP3    H241462   4.003   6.121   1.843
 6635TIP3   OH241463   4.518   5.666   1.678
 6635TIP3    H141464   4.577   5.590   1.680
 6635TIP3    H241465   4.518   5.694   1.587
 6636TIP3   OH241466   3.924   6.979   0.116
 6636TIP3    H141467   4.015   6.998   0.138
 6636TIP3    H241468   3.930   6.915   0.044
 6637TIP3   OH241469   5.417   6.971   1.917
 6637TIP3    H141470   5.339   7.009   1.876
 6637TIP3    H241471   5.479   7.043   1.922
 6638TIP3   OH241472   5.545   6.759   0.426
 6638TIP3    H141473   5.618   6.822   0.427
 6638TIP3    H241474   5.565   6.700   0.499
 6639TIP3   OH241475   5.598   6.565   0.619
 6639TIP3    H141476   5.514   6.533   0.653
 6639TIP3    H241477   5.651   6.579   0.698
 6640TIP3   OH241478   5.595   6.863   1.132
 6640TIP3    H141479   5.641   6.786   1.099
 6640TIP3    H241480   5.640   6.937   1.092
 6641TIP3   OH241481   5.314   7.158   1.317
 6641TIP3    H141482   5.220   7.157   1.333
 6641TIP3    H241483   5.322   7.138   1.224
 6642TIP3   OH241484   5.594   6.590   0.215
 6642TIP3    H141485   5.552   6.635   0.141
 6642TIP3    H241486   5.575   6.646   0.291
 6643TIP3   OH241487   5.369   6.276   0.098
 6643TIP3    H141488   5.442   6.295   0.039
 6643TIP3    H241489   5.353   6.182   0.087
 6644TIP3   OH241490   5.334   6.443   0.662
 6644TIP3    H141491   5.342   6.358   0.617
 6644TIP3    H241492   5.297   6.421   0.748
 6645TIP3   OH241493   3.823   6.660   1.069
 6645TIP3    H141494   3.846   6.628   0.981
 6645TIP3    H241495   3.908   6.680   1.109
 6646TIP3   OH241496   5.429   6.633   1.696
 6646TIP3    H141497   5.481   6.556   1.675
 6646TIP3    H241498   5.482   6.707   1.663
 6647TIP3   OH241499   5.575   6.404   1.644
 6647TIP3    H141500   5.493   6.357   1.627
 6647TIP3    H241501   5.639   6.335   1.659
 6648TIP3   OH241502   5.318   6.014   0.073
 6648TIP3    H141503   5.397   5.963   0.091
 6648TIP3    H241504   5.247   5.963   0.111
 6649TIP3   OH241505   5.354   6.207   0.497
 6649TIP3    H141506   5.379   6.115   0.499
 6649TIP3    H241507   5.422   6.249   0.443
 6650TIP3   OH241508   5.392   6.242   1.049
 6650TIP3    H141509   5.486   6.252   1.033
 6650TIP3    H241510   5.382   6.257   1.143
 6651TIP3   OH241511   5.394   6.318   1.311
 6651TIP3    H141512   5.331   6.332   1.381
 6651TIP3    H241513   5.445   6.400   1.308
 6652TIP3   OH241514   3.802   6.163   1.642
 6652TIP3    H141515   3.888   6.157   1.682
 6652TIP3    H241516   3.755   6.085   1.672
 6653TIP3   OH241517   5.659   5.807   1.862
 6653TIP3    H141518   5.686   5.718   1.842
 6653TIP3    H241519   5.616   5.838   1.782
 6654TIP3   OH241520   5.406   5.935   0.503
 6654TIP3    H141521   5.427   5.895   0.587
 6654TIP3    H241522   5.336   5.880   0.467
 6655TIP3   OH241523   3.941   6.009   0.969
 6655TIP3    H141524   3.983   5.924   0.975
 6655TIP3    H241525   4.011   6.072   0.989
 6656TIP3   OH241526   3.737   6.285   1.046
 6656TIP3    H141527   3.811   6.289   0.986
 6656TIP3    H241528   3.758   6.346   1.115
 6657TIP3   OH241529   5.539   5.909   1.635
 6657TIP3    H141530   5.457   5.958   1.621
 6657TIP3    H241531   5.534   5.835   1.575
 6658TIP3   OH241532   5.561   5.903   0.147
 6658TIP3    H141533   5.621   5.857   0.088
 6658TIP3    H241534   5.614   5.974   0.184
 6659TIP3   OH241535   3.802   5.911   0.434
 6659TIP3    H141536   3.711   5.920   0.463
 6659TIP3    H241537   3.819   5.990   0.383
 6660TIP3   OH241538   3.798   5.758   1.292
 6660TIP3    H141539   3.735   5.754   1.364
 6660TIP3    H241540   3.769   5.833   1.240
 6661TIP3   OH241541   4.036   7.111   1.714
 6661TIP3    H141542   3.943   7.128   1.696
 6661TIP3    H241543   4.038   7.082   1.805
 6662TIP3   OH241544   4.311   7.247   1.329
 6662TIP3    H141545   4.221   7.260   1.298
 6662TIP3    H241546   4.338   7.165   1.288
 6663TIP3   OH241547   5.483   5.701   1.456
 6663TIP3    H141548   5.393   5.700   1.425
 6663TIP3    H241549   5.513   5.611   1.448
 6664TIP3   OH241550   4.226   7.206   0.870
 6664TIP3    H141551   4.203   7.127   0.918
 6664TIP3    H241552   4.278   7.257   0.932
 6665TIP3   OH241553   4.752   5.849   0.854
 6665TIP3    H141554   4.698   5.790   0.908
 6665TIP3    H241555   4.842   5.821   0.871
 6666TIP3   OH241556   5.304   5.705   0.902
 6666TIP3    H141557   5.368   5.761   0.857
 6666TIP3    H241558   5.225   5.759   0.906
 6667TIP3   OH241559   5.490   5.814   0.736
 6667TIP3    H141560   5.555   5.746   0.716
 6667TIP3    H241561   5.542   5.892   0.754
 6668TIP3   OH241562   4.040   5.722   0.673
 6668TIP3    H141563   3.948   5.703   0.658
 6668TIP3    H241564   4.084   5.637   0.663
 6669TIP3   OH241565   3.892   5.733   0.241
 6669TIP3    H141566   3.973   5.777   0.215
 6669TIP3    H241567   3.861   5.783   0.316
 6670TIP3   OH241568   4.523   5.698   0.689
 6670TIP3    H141569   4.594   5.751   0.653
 6670TIP3    H241570   4.537   5.700   0.783
 6671TIP3   OH241571   5.019   5.766   0.864
 6671TIP3    H141572   5.047   5.761   0.772
 6671TIP3    H241573   5.004   5.675   0.889
 6672TIP3   OH241574   5.196   5.774   0.412
 6672TIP3    H141575   5.121   5.832   0.424
 6672TIP3    H241576   5.161   5.686   0.425
 6673TIP3   OH241577   4.129   5.846   0.167
 6673TIP3    H141578   4.174   5.776   0.119
 6673TIP3    H241579   4.199   5.892   0.213
 6674TIP3   OH241580   4.610   5.953   0.367
 6674TIP3    H141581   4.652   5.887   0.422
 6674TIP3    H241582   4.624   6.035   0.414
 6675TIP3   OH241583   4.054   5.763   1.642
 6675TIP3    H141584   3.995   5.691   1.664
 6675TIP3    H241585   4.135   5.743   1.691
 6676TIP3   OH241586   4.267   5.660   1.796
 6676TIP3    H141587   4.350   5.681   1.753
 6676TIP3    H241588   4.280   5.572   1.831
 6677TIP3   OH241589   5.123   5.644   1.762
 6677TIP3    H141590   5.047   5.656   1.819
 6677TIP3    H241591   5.142   5.550   1.767
 6678TIP3   OH241592   5.363   7.238   1.690
 6678TIP3    H141593   5.276   7.199   1.683
 6678TIP3    H241594   5.367   7.301   1.617
 6679TIP3   OH241595   6.838   6.681   0.655
 6679TIP3    H141596   6.826   6.776   0.650
 6679TIP3    H241597   6.772   6.645   0.596
 6680TIP3   OH241598   6.689   6.595   1.047
 6680TIP3    H141599   6.714   6.557   1.131
 6680TIP3    H241600   6.658   6.521   0.995
 6681TIP3   OH241601   5.951   6.523   1.181
 6681TIP3    H141602   5.956   6.451   1.243
 6681TIP3    H241603   6.042   6.543   1.160
 6682TIP3   OH241604   7.134   6.901   0.857
 6682TIP3    H141605   7.162   6.809   0.863
 6682TIP3    H241606   7.136   6.932   0.947
 6683TIP3   OH241607   6.069   6.974   0.995
 6683TIP3    H141608   6.049   6.885   0.967
 6683TIP3    H241609   6.163   6.973   1.014
 6684TIP3   OH241610   5.737   6.339   0.517
 6684TIP3    H141611   5.704   6.420   0.557
 6684TIP3    H241612   5.674   6.319   0.448
 6685TIP3   OH241613   5.794   6.580   0.824
 6685TIP3    H141614   5.825   6.491   0.841
 6685TIP3    H241615   5.871   6.635   0.834
 6686TIP3   OH241616   6.565   6.844   1.081
 6686TIP3    H141617   6.595   6.762   1.043
 6686TIP3    H241618   6.637   6.873   1.137
 6687TIP3   OH241619   6.866   6.259   1.117
 6687TIP3    H141620   6.868   6.164   1.111
 6687TIP3    H241621   6.941   6.288   1.064
 6688TIP3   OH241622   6.234   6.068   0.801
 6688TIP3    H141623   6.239   6.155   0.760
 6688TIP3    H241624   6.180   6.016   0.742
 6689TIP3   OH241625   6.996   6.106   0.644
 6689TIP3    H141626   7.036   6.060   0.717
 6689TIP3    H241627   7.068   6.122   0.583
 6690TIP3   OH241628   5.882   6.325   0.884
 6690TIP3    H141629   5.945   6.281   0.941
 6690TIP3    H241630   5.899   6.289   0.797
 6691TIP3   OH241631   6.358   6.464   0.860
 6691TIP3    H141632   6.443   6.427   0.884
 6691TIP3    H241633   6.319   6.400   0.802
 6692TIP3   OH241634   6.097   5.990   1.230
 6692TIP3    H141635   6.075   6.050   1.159
 6692TIP3    H241636   6.024   5.997   1.291
 6693TIP3   OH241637   6.807   6.939   0.559
 6693TIP3    H141638   6.791   6.943   0.465
 6693TIP3    H241639   6.775   7.023   0.592
 6694TIP3   OH241640   6.353   6.745   1.230
 6694TIP3    H141641   6.300   6.813   1.270
 6694TIP3    H241642   6.424   6.792   1.186
 6695TIP3   OH241643   7.103   6.004   0.878
 6695TIP3    H141644   7.021   5.979   0.921
 6695TIP3    H241645   7.145   6.064   0.939
 6696TIP3   OH241646   6.068   6.156   1.009
 6696TIP3    H141647   6.124   6.213   1.062
 6696TIP3    H241648   6.128   6.119   0.944
 6697TIP3   OH241649   6.188   6.945   1.338
 6697TIP3    H141650   6.184   7.037   1.310
 6697TIP3    H241651   6.098   6.923   1.362
 6698TIP3   OH241652   5.765   6.929   0.397
 6698TIP3    H141653   5.760   6.964   0.308
 6698TIP3    H241654   5.774   7.005   0.453
 6699TIP3   OH241655   7.144   7.045   1.103
 6699TIP3    H141656   7.060   7.089   1.118
 6699TIP3    H241657   7.201   7.113   1.068
 6700TIP3   OH241658   7.155   5.884   1.153
 6700TIP3    H141659   7.061   5.901   1.146
 6700TIP3    H241660   7.196   5.969   1.142
 6701TIP3   OH241661   6.446   5.678   0.980
 6701TIP3    H141662   6.421   5.586   0.983
 6701TIP3    H241663   6.368   5.725   1.009
 6702TIP3   OH241664   7.020   7.261   0.705
 6702TIP3    H141665   7.046   7.174   0.675
 6702TIP3    H241666   7.088   7.286   0.768
 6703TIP3   OH241667   7.071   7.010   0.616
 6703TIP3    H141668   6.988   6.967   0.596
 6703TIP3    H241669   7.102   6.966   0.695
 6704TIP3   OH241670   7.255   6.872   1.503
 6704TIP3    H141671   7.241   6.817   1.425
 6704TIP3    H241672   7.269   6.960   1.468
 6705TIP3   OH241673   6.703   6.595   0.425
 6705TIP3    H141674   6.640   6.663   0.403
 6705TIP3    H241675   6.767   6.597   0.354
 6706TIP3   OH241676   6.724   6.404   0.119
 6706TIP3    H141677   6.787   6.448   0.176
 6706TIP3    H241678   6.776   6.335   0.076
 6707TIP3   OH241679   7.053   6.615   0.499
 6707TIP3    H141680   6.988   6.646   0.563
 6707TIP3    H241681   7.104   6.550   0.547
 6708TIP3   OH241682   6.992   6.418   1.440
 6708TIP3    H141683   6.999   6.479   1.513
 6708TIP3    H241684   6.923   6.456   1.385
 6709TIP3   OH241685   6.228   6.659   0.702
 6709TIP3    H141686   6.208   6.618   0.618
 6709TIP3    H241687   6.282   6.594   0.747
 6710TIP3   OH241688   6.357   7.010   0.983
 6710TIP3    H141689   6.366   7.014   0.888
 6710TIP3    H241690   6.430   6.956   1.013
 6711TIP3   OH241691   6.212   6.569   1.073
 6711TIP3    H141692   6.271   6.544   1.002
 6711TIP3    H241693   6.264   6.629   1.127
 6712TIP3   OH241694   6.888   7.115   1.197
 6712TIP3    H141695   6.905   7.126   1.290
 6712TIP3    H241696   6.851   7.027   1.189
 6713TIP3   OH241697   6.375   7.029   1.523
 6713TIP3    H141698   6.321   7.032   1.603
 6713TIP3    H241699   6.319   6.987   1.458
 6714TIP3   OH241700   6.935   6.535   0.267
 6714TIP3    H141701   6.972   6.567   0.350
 6714TIP3    H241702   6.987   6.577   0.199
 6715TIP3   OH241703   6.052   6.605   1.498
 6715TIP3    H141704   6.054   6.680   1.556
 6715TIP3    H241705   5.959   6.592   1.478
 6716TIP3   OH241706   6.756   7.200   0.633
 6716TIP3    H141707   6.842   7.227   0.667
 6716TIP3    H241708   6.714   7.282   0.607
 6717TIP3   OH241709   6.062   7.219   1.569
 6717TIP3    H141710   6.123   7.248   1.500
 6717TIP3    H241711   6.042   7.128   1.546
 6718TIP3   OH241712   6.145   6.573   0.441
 6718TIP3    H141713   6.088   6.643   0.411
 6718TIP3    H241714   6.089   6.495   0.443
 6719TIP3   OH241715   5.738   6.829   1.379
 6719TIP3    H141716   5.691   6.833   1.295
 6719TIP3    H241717   5.753   6.735   1.393
 6720TIP3   OH241718   5.772   7.049   1.036
 6720TIP3    H141719   5.857   7.020   1.004
 6720TIP3    H241720   5.792   7.124   1.092
 6721TIP3   OH241721   6.623   7.133   1.522
 6721TIP3    H141722   6.634   7.167   1.611
 6721TIP3    H241723   6.539   7.088   1.524
 6722TIP3   OH241724   7.184   6.287   1.648
 6722TIP3    H141725   7.194   6.326   1.561
 6722TIP3    H241726   7.267   6.242   1.664
 6723TIP3   OH241727   5.932   6.992   1.487
 6723TIP3    H141728   5.962   6.930   1.554
 6723TIP3    H241729   5.860   6.946   1.443
 6724TIP3   OH241730   6.203   5.790   1.066
 6724TIP3    H141731   6.125   5.781   1.010
 6724TIP3    H241732   6.182   5.862   1.125
 6725TIP3   OH241733   6.692   5.756   1.420
 6725TIP3    H141734   6.735   5.704   1.487
 6725TIP3    H241735   6.599   5.747   1.438
 6726TIP3   OH241736   6.982   6.132   1.468
 6726TIP3    H141737   6.927   6.126   1.546
 6726TIP3    H241738   6.993   6.226   1.454
 6727TIP3   OH241739   7.104   6.662   0.090
 6727TIP3    H141740   7.165   6.686   0.020
 6727TIP3    H241741   7.131   6.715   0.164
 6728TIP3   OH241742   6.688   5.988   0.140
 6728TIP3    H141743   6.618   5.978   0.204
 6728TIP3    H241744   6.644   5.988   0.055
 6729TIP3   OH241745   6.226   6.311   1.172
 6729TIP3    H141746   6.192   6.319   1.262
 6729TIP3    H241747   6.225   6.400   1.138
 6730TIP3   OH241748   6.216   6.312   0.674
 6730TIP3    H141749   6.121   6.299   0.671
 6730TIP3    H241750   6.245   6.294   0.585
 6731TIP3   OH241751   6.751   6.341   0.522
 6731TIP3    H141752   6.731   6.430   0.492
 6731TIP3    H241753   6.825   6.313   0.468
 6732TIP3   OH241754   6.680   6.365   1.668
 6732TIP3    H141755   6.634   6.301   1.722
 6732TIP3    H241756   6.763   6.378   1.714
 6733TIP3   OH241757   6.835   6.292   0.783
 6733TIP3    H141758   6.795   6.336   0.708
 6733TIP3    H241759   6.881   6.217   0.745
 6734TIP3   OH241760   5.983   6.304   1.347
 6734TIP3    H141761   6.045   6.326   1.417
 6734TIP3    H241762   5.948   6.219   1.372
 6735TIP3   OH241763   6.366   6.062   0.065
 6735TIP3    H141764   6.356   6.010   0.145
 6735TIP3    H241765   6.339   6.150   0.090
 6736TIP3   OH241766   5.666   6.017   0.753
 6736TIP3    H141767   5.720   6.026   0.832
 6736TIP3    H241768   5.729   6.011   0.681
 6737TIP3   OH241769   5.714   6.116   0.251
 6737TIP3    H141770   5.791   6.154   0.210
 6737TIP3    H241771   5.657   6.192   0.267
 6738TIP3   OH241772   6.747   6.445   1.274
 6738TIP3    H141773   6.795   6.388   1.214
 6738TIP3    H241774   6.703   6.385   1.334
 6739TIP3   OH241775   6.516   6.028   0.759
 6739TIP3    H141776   6.427   6.036   0.792
 6739TIP3    H241777   6.567   5.996   0.833
 6740TIP3   OH241778   5.956   6.224   0.640
 6740TIP3    H141779   5.882   6.251   0.587
 6740TIP3    H241780   5.975   6.134   0.612
 6741TIP3   OH241781   6.281   6.232   0.418
 6741TIP3    H141782   6.375   6.225   0.437
 6741TIP3    H241783   6.277   6.266   0.329
 6742TIP3   OH241784   6.888   5.970   1.069
 6742TIP3    H141785   6.852   5.976   1.158
 6742TIP3    H241786   6.815   5.939   1.016
 6743TIP3   OH241787   6.242   6.298   0.152
 6743TIP3    H141788   6.156   6.314   0.113
 6743TIP3    H241789   6.301   6.360   0.109
 6744TIP3   OH241790   6.025   6.817   1.680
 6744TIP3    H141791   6.091   6.806   1.748
 6744TIP3    H241792   5.942   6.813   1.727
 6745TIP3   OH241793   6.598   6.346   0.947
 6745TIP3    H141794   6.681   6.316   0.908
 6745TIP3    H241795   6.584   6.285   1.020
 6746TIP3   OH241796   6.060   5.960   0.603
 6746TIP3    H141797   6.012   5.881   0.630
 6746TIP3    H241798   6.099   5.936   0.519
 6747TIP3   OH241799   6.484   6.201   1.185
 6747TIP3    H141800   6.402   6.251   1.185
 6747TIP3    H241801   6.529   6.230   1.265
 6748TIP3   OH241802   6.526   6.797   0.354
 6748TIP3    H141803   6.457   6.750   0.306
 6748TIP3    H241804   6.484   6.823   0.436
 6749TIP3   OH241805   7.183   6.730   1.278
 6749TIP3    H141806   7.257   6.723   1.218
 6749TIP3    H241807   7.106   6.718   1.222
 6750TIP3   OH241808   6.948   6.039   0.214
 6750TIP3    H141809   6.862   6.025   0.176
 6750TIP3    H241810   6.944   6.127   0.253
 6751TIP3   OH241811   6.669   6.809   1.506
 6751TIP3    H141812   6.695   6.754   1.580
 6751TIP3    H241813   6.689   6.898   1.534
 6752TIP3   OH241814   6.974   6.271   0.362
 6752TIP3    H141815   7.058   6.254   0.404
 6752TIP3    H241816   6.982   6.360   0.327
 6753TIP3   OH241817   6.040   6.711   0.899
 6753TIP3    H141818   6.099   6.705   0.824
 6753TIP3    H241819   6.081   6.657   0.967
 6754TIP3   OH241820   6.747   6.944   0.280
 6754TIP3    H141821   6.709   7.032   0.285
 6754TIP3    H241822   6.673   6.885   0.297
 6755TIP3   OH241823   5.769   6.576   1.490
 6755TIP3    H141824   5.790   6.546   1.578
 6755TIP3    H241825   5.692   6.524   1.465
 6756TIP3   OH241826   6.450   6.525   1.640
 6756TIP3    H141827   6.474   6.517   1.548
 6756TIP3    H241828   6.526   6.492   1.688
 6757TIP3   OH241829   6.888   7.094   1.474
 6757TIP3    H141830   6.793   7.105   1.482
 6757TIP3    H241831   6.921   7.102   1.563
 6758TIP3   OH241832   6.973   6.681   1.090
 6758TIP3    H141833   6.892   6.662   1.043
 6758TIP3    H241834   7.042   6.662   1.026
 6759TIP3   OH241835   6.322   7.087   0.713
 6759TIP3    H141836   6.366   7.165   0.680
 6759TIP3    H241837   6.238   7.119   0.745
 6760TIP3   OH241838   5.869   6.565   0.164
 6760TIP3    H141839   5.906   6.628   0.226
 6760TIP3    H241840   5.774   6.572   0.176
 6761TIP3   OH241841   6.379   6.857   0.574
 6761TIP3    H141842   6.365   6.939   0.620
 6761TIP3    H241843   6.329   6.793   0.623
 6762TIP3   OH241844   6.492   7.231   1.273
 6762TIP3    H141845   6.565   7.247   1.214
 6762TIP3    H241846   6.529   7.176   1.342
 6763TIP3   OH241847   6.790   6.855   1.243
 6763TIP3    H141848   6.765   6.821   1.329
 6763TIP3    H241849   6.859   6.796   1.213
 6764TIP3   OH241850   7.004   6.968   0.166
 6764TIP3    H141851   7.055   6.915   0.227
 6764TIP3    H241852   6.915   6.964   0.201
 6765TIP3   OH241853   5.878   6.045   1.393
 6765TIP3    H141854   5.790   6.079   1.378
 6765TIP3    H241855   5.865   5.969   1.449
 6766TIP3   OH241856   7.164   6.798   0.320
 6766TIP3    H141857   7.132   6.748   0.395
 6766TIP3    H241858   7.241   6.844   0.353
 6767TIP3   OH241859   5.872   7.251   1.196
 6767TIP3    H141860   5.921   7.206   1.265
 6767TIP3    H241861   5.813   0.007   1.242
 6768TIP3   OH241862   6.303   7.083   0.259
 6768TIP3    H141863   6.369   7.022   0.292
 6768TIP3    H241864   6.326   7.167   0.299
 6769TIP3   OH241865   5.974   6.762   0.329
 6769TIP3    H141866   5.900   6.805   0.373
 6769TIP3    H241867   6.017   6.832   0.280
 6770TIP3   OH241868   6.793   5.994   1.321
 6770TIP3    H141869   6.863   6.027   1.378
 6770TIP3    H241870   6.762   5.915   1.365
 6771TIP3   OH241871   6.848   5.948   0.467
 6771TIP3    H141872   6.875   5.982   0.382
 6771TIP3    H241873   6.890   6.007   0.530
 6772TIP3   OH241874   6.624   7.184   0.300
 6772TIP3    H141875   6.546   7.225   0.338
 6772TIP3    H241876   6.662   7.252   0.244
 6773TIP3   OH241877   6.533   6.175   0.521
 6773TIP3    H141878   6.608   6.235   0.523
 6773TIP3    H241879   6.529   6.138   0.609
 6774TIP3   OH241880   6.630   6.247   1.421
 6774TIP3    H141881   6.644   6.283   1.509
 6774TIP3    H241882   6.679   6.165   1.420
 6775TIP3   OH241883   6.622   5.842   0.581
 6775TIP3    H141884   6.594   5.910   0.642
 6775TIP3    H241885   6.704   5.874   0.544
 6776TIP3   OH241886   6.393   0.012   0.384
 6776TIP3    H141887   6.409   0.104   0.363
 6776TIP3    H241888   6.379   0.011   0.479
 6777TIP3   OH241889   6.223   5.977   0.316
 6777TIP3    H141890   6.219   6.066   0.352
 6777TIP3    H241891   6.312   5.947   0.335
 6778TIP3   OH241892   7.217   5.979   1.505
 6778TIP3    H141893   7.137   6.028   1.484
 6778TIP3    H241894   7.271   6.042   1.553
 6779TIP3   OH241895   7.064   6.334   0.941
 6779TIP3    H141896   6.986   6.350   0.888
 6779TIP3    H241897   7.112   6.417   0.938
 6780TIP3   OH241898   6.068   6.970   0.166
 6780TIP3    H141899   6.130   7.028   0.210
 6780TIP3    H241900   6.122   6.916   0.109
 6781TIP3   OH241901   5.880   6.294   0.104
 6781TIP3    H141902   5.888   6.387   0.125
 6781TIP3    H241903   5.813   6.290   0.035
 6782TIP3   OH241904   5.953   5.764   0.947
 6782TIP3    H141905   5.945   5.753   0.852
 6782TIP3    H241906   5.922   5.681   0.983
 6783TIP3   OH241907   5.764   7.184   0.522
 6783TIP3    H141908   5.671   7.166   0.510
 6783TIP3    H241909   5.785   7.248   0.454
 6784TIP3   OH241910   6.269   7.151   1.880
 6784TIP3    H141911   6.335   7.082   1.879
 6784TIP3    H241912   6.296   7.210   1.809
 6785TIP3   OH241913   6.735   0.052   0.114
 6785TIP3    H141914   6.700   7.302   0.043
 6785TIP3    H241915   6.830   0.043   0.106
 6786TIP3   OH241916   6.939   7.074   1.744
 6786TIP3    H141917   6.958   6.981   1.753
 6786TIP3    H241918   7.014   7.118   1.786
 6787TIP3   OH241919   7.201   7.134   0.066
 6787TIP3    H141920   7.126   7.093   0.109
 6787TIP3    H241921   7.277   7.087   0.101
 6788TIP3   OH241922   5.776   6.826   1.800
 6788TIP3    H141923   5.767   6.755   1.863
 6788TIP3    H241924   5.696   6.823   1.748
 6789TIP3   OH241925   6.242   6.806   0.033
 6789TIP3    H141926   6.276   6.756   0.107
 6789TIP3    H241927   6.245   6.744   8.460
 6790TIP3   OH241928   6.386   6.781   1.682
 6790TIP3    H141929   6.428   6.812   1.602
 6790TIP3    H241930   6.404   6.687   1.685
 6791TIP3   OH241931   6.987   6.836   1.537
 6791TIP3    H141932   7.081   6.850   1.523
 6791TIP3    H241933   6.945   6.909   1.493
 6792TIP3   OH241934   5.874   6.507   1.738
 6792TIP3    H141935   5.969   6.500   1.742
 6792TIP3    H241936   5.848   6.540   1.825
 6793TIP3   OH241937   6.330   6.643   0.236
 6793TIP3    H141938   6.277   6.606   0.307
 6793TIP3    H241939   6.369   6.567   0.193
 6794TIP3   OH241940   6.231   6.403   1.446
 6794TIP3    H141941   6.177   6.477   1.473
 6794TIP3    H241942   6.317   6.441   1.427
 6795TIP3   OH241943   6.454   6.454   0.066
 6795TIP3    H141944   6.461   6.462   8.471
 6795TIP3    H241945   6.543   6.435   0.095
 6796TIP3   OH241946   6.736   6.694   1.748
 6796TIP3    H141947   6.819   6.656   1.779
 6796TIP3    H241948   6.670   6.656   1.806
 6797TIP3   OH241949   6.309   6.170   1.581
 6797TIP3    H141950   6.322   6.109   1.509
 6797TIP3    H241951   6.290   6.254   1.539
 6798TIP3   OH241952   6.345   6.009   1.349
 6798TIP3    H141953   6.400   6.056   1.286
 6798TIP3    H241954   6.259   6.005   1.307
 6799TIP3   OH241955   6.469   6.528   1.361
 6799TIP3    H141956   6.560   6.527   1.334
 6799TIP3    H241957   6.432   6.607   1.321
 6800TIP3   OH241958   6.935   6.316   1.774
 6800TIP3    H141959   6.902   6.231   1.742
 6800TIP3    H241960   7.023   6.323   1.737
 6801TIP3   OH241961   7.082   6.621   1.683
 6801TIP3    H141962   7.043   6.692   1.631
 6801TIP3    H241963   7.170   6.610   1.646
 6802TIP3   OH241964   6.141   6.171   1.810
 6802TIP3    H141965   6.066   6.120   1.781
 6802TIP3    H241966   6.194   6.183   1.731
 6803TIP3   OH241967   6.410   5.741   1.397
 6803TIP3    H141968   6.387   5.833   1.383
 6803TIP3    H241969   6.337   5.692   1.359
 6804TIP3   OH241970   6.538   6.138   1.744
 6804TIP3    H141971   6.492   6.114   1.825
 6804TIP3    H241972   6.467   6.152   1.680
 6805TIP3   OH241973   6.810   6.084   1.679
 6805TIP3    H141974   6.717   6.090   1.698
 6805TIP3    H241975   6.843   6.019   1.741
 6806TIP3   OH241976   6.936   5.933   1.894
 6806TIP3    H141977   6.850   5.892   1.907
 6806TIP3    H241978   6.946   5.993   1.968
 6807TIP3   OH241979   5.919   6.005   1.755
 6807TIP3    H141980   5.935   5.930   1.699
 6807TIP3    H241981   5.886   5.968   1.837
 6808TIP3   OH241982   6.421   5.677   1.661
 6808TIP3    H141983   6.469   5.594   1.662
 6808TIP3    H241984   6.413   5.699   1.568
 6809TIP3   OH241985   6.510   5.836   1.871
 6809TIP3    H141986   6.483   5.782   1.797
 6809TIP3    H241987   6.440   5.901   1.882
 6810TIP3   OH241988   5.790   7.012   0.128
 6810TIP3    H141989   5.884   7.017   0.142
 6810TIP3    H241990   5.781   6.974   0.041
 6811TIP3   OH241991   7.255   7.110   1.363
 6811TIP3    H141992   7.272   7.203   1.347
 6811TIP3    H241993   7.223   7.076   1.279
 6812TIP3   OH241994   7.169   6.416   0.651
 6812TIP3    H141995   7.124   6.344   0.694
 6812TIP3    H241996   7.189   6.478   0.721
 6813TIP3   OH241997   5.720   6.626   1.086
 6813TIP3    H141998   5.730   6.610   0.992
 6813TIP3    H241999   5.803   6.597   1.124
 6814TIP3   OH242000   7.179   6.068   0.060
 6814TIP3    H142001   7.198   5.981   0.025
 6814TIP3    H242002   7.104   6.055   0.117
 6815TIP3   OH242003   7.218   6.165   0.480
 6815TIP3    H142004   7.270   6.149   0.560
 6815TIP3    H242005   7.283   6.179   0.412
 6816TIP3   OH242006   7.216   6.149   1.078
 6816TIP3    H142007   7.290   6.194   1.119
 6816TIP3    H242008   7.163   6.220   1.041
 6817TIP3   OH242009   7.263   6.365   1.394
 6817TIP3    H142010   7.172   6.389   1.376
 6817TIP3    H242011   0.001   6.366   1.308
 6818TIP3   OH242012   5.695   6.144   1.650
 6818TIP3    H142013   5.780   6.117   1.683
 6818TIP3    H242014   5.639   6.067   1.662
 6819TIP3   OH242015   7.203   5.873   0.591
 6819TIP3    H142016   7.267   5.896   0.524
 6819TIP3    H242017   7.133   5.828   0.543
 6820TIP3   OH242018   5.823   6.008   0.982
 6820TIP3    H142019   5.862   5.920   0.981
 6820TIP3    H242020   5.898   6.067   0.998
 6821TIP3   OH242021   5.658   6.298   1.048
 6821TIP3    H142022   5.727   6.302   0.982
 6821TIP3    H242023   5.698   6.336   1.126
 6822TIP3   OH242024   5.693   5.919   0.445
 6822TIP3    H142025   5.599   5.921   0.463
 6822TIP3    H242026   5.707   5.993   0.385
 6823TIP3   OH242027   5.698   5.774   1.294
 6823TIP3    H142028   5.626   5.754   1.353
 6823TIP3    H242029   5.663   5.843   1.236
 6824TIP3   OH242030   5.885   7.080   1.814
 6824TIP3    H142031   5.835   6.998   1.810
 6824TIP3    H242032   5.947   7.068   1.886
 6825TIP3   OH242033   6.208   7.221   1.302
 6825TIP3    H142034   6.184   7.280   1.231
 6825TIP3    H242035   6.304   7.215   1.297
 6826TIP3   OH242036   6.113   7.203   0.854
 6826TIP3    H142037   6.085   7.124   0.900
 6826TIP3    H242038   6.157   7.256   0.920
 6827TIP3   OH242039   6.680   5.855   0.917
 6827TIP3    H142040   6.615   5.788   0.940
 6827TIP3    H242041   6.752   5.805   0.879
 6828TIP3   OH242042   7.182   5.721   0.927
 6828TIP3    H142043   7.183   5.769   1.009
 6828TIP3    H242044   7.092   5.726   0.896
 6829TIP3   OH242045   5.927   5.724   0.674
 6829TIP3    H142046   5.835   5.707   0.657
 6829TIP3    H242047   5.970   5.640   0.661
 6830TIP3   OH242048   5.812   5.725   0.278
 6830TIP3    H142049   5.884   5.775   0.238
 6830TIP3    H242050   5.772   5.785   0.340
 6831TIP3   OH242051   6.410   5.692   0.696
 6831TIP3    H142052   6.479   5.746   0.657
 6831TIP3    H242053   6.426   5.697   0.790
 6832TIP3   OH242054   6.923   5.726   0.826
 6832TIP3    H142055   6.931   5.699   0.735
 6832TIP3    H242056   6.883   5.651   0.870
 6833TIP3   OH242057   7.040   5.749   0.417
 6833TIP3    H142058   6.959   5.799   0.417
 6833TIP3    H242059   7.012   5.658   0.409
 6834TIP3   OH242060   6.025   5.854   0.160
 6834TIP3    H142061   6.060   5.861   0.072
 6834TIP3    H242062   6.091   5.895   0.216
 6835TIP3   OH242063   6.498   5.962   0.352
 6835TIP3    H142064   6.532   5.892   0.408
 6835TIP3    H242065   6.514   6.042   0.401
 6836TIP3   OH242066   5.933   5.749   1.636
 6836TIP3    H142067   5.872   5.687   1.678
 6836TIP3    H242068   6.016   5.734   1.681
 6837TIP3   OH242069   6.167   5.711   1.774
 6837TIP3    H142070   6.246   5.700   1.721
 6837TIP3    H242071   6.193   5.683   1.862
 6838TIP3   OH242072   7.009   5.647   1.834
 6838TIP3    H142073   6.988   5.731   1.874
 6838TIP3    H242074   7.093   5.662   1.790
 6839TIP3   OH242075   0.043   7.302   1.667
 6839TIP3    H142076   7.299   7.253   1.600
 6839TIP3    H242077   7.290   7.298   1.744
 6840TIP3   OH242078   1.050   0.826   1.967
 6840TIP3    H142079   1.099   0.859   2.042
 6840TIP3    H242080   1.106   0.759   1.928
 6841TIP3   OH242081   1.250   0.884   2.142
 6841TIP3    H142082   1.297   0.860   2.222
 6841TIP3    H242083   1.319   0.903   2.078
 6842TIP3   OH242084   1.673   0.035   2.149
 6842TIP3    H142085   1.661   0.047   2.243
 6842TIP3    H242086   1.705   0.120   2.119
 6843TIP3   OH242087   1.791   1.504   1.955
 6843TIP3    H142088   1.806   1.594   1.984
 6843TIP3    H242089   1.877   1.463   1.958
 6844TIP3   OH242090   1.427   0.905   1.926
 6844TIP3    H142091   1.414   0.932   1.835
 6844TIP3    H242092   1.511   0.943   1.951
 6845TIP3   OH242093   0.979   0.354   2.054
 6845TIP3    H142094   0.908   0.386   2.109
 6845TIP3    H242095   0.942   0.278   2.008
 6846TIP3   OH242096   0.684   0.427   1.925
 6846TIP3    H142097   0.599   0.396   1.955
 6846TIP3    H242098   0.684   0.520   1.946
 6847TIP3   OH242099   0.262   0.292   2.200
 6847TIP3    H142100   0.232   0.376   2.235
 6847TIP3    H242101   0.202   0.227   2.239
 6848TIP3   OH242102   1.232   0.459   2.036
 6848TIP3    H142103   1.143   0.423   2.044
 6848TIP3    H242104   1.258   0.477   2.126
 6849TIP3   OH242105   1.417   1.299   2.020
 6849TIP3    H142106   1.449   1.236   2.084
 6849TIP3    H242107   1.324   1.280   2.012
 6850TIP3   OH242108   1.829   1.771   2.029
 6850TIP3    H142109   1.855   1.849   1.981
 6850TIP3    H242110   1.743   1.792   2.065
 6851TIP3   OH242111   0.876   1.350   1.957
 6851TIP3    H142112   0.839   1.282   1.900
 6851TIP3    H242113   0.840   1.331   2.044
 6852TIP3   OH242114   0.738   1.676   2.126
 6852TIP3    H142115   0.776   1.762   2.142
 6852TIP3    H242116   0.806   1.614   2.155
 6853TIP3   OH242117   0.202   0.650   1.909
 6853TIP3    H142118   0.278   0.628   1.963
 6853TIP3    H242119   0.127   0.615   1.957
 6854TIP3   OH242120   0.975   1.584   1.837
 6854TIP3    H142121   0.933   1.517   1.891
 6854TIP3    H242122   1.066   1.556   1.831
 6855TIP3   OH242123   1.450   1.551   1.903
 6855TIP3    H142124   1.455   1.475   1.960
 6855TIP3    H242125   1.538   1.559   1.866
 6856TIP3   OH242126   1.145   1.263   1.930
 6856TIP3    H142127   1.058   1.292   1.958
 6856TIP3    H242128   1.129   1.180   1.884
 6857TIP3   OH242129   0.784   0.729   1.917
 6857TIP3    H142130   0.785   0.784   1.839
 6857TIP3    H242131   0.863   0.754   1.966
 6858TIP3   OH242132   1.689   1.006   1.915
 6858TIP3    H142133   1.690   0.985   1.821
 6858TIP3    H242134   1.689   1.102   1.918
 6859TIP3   OH242135   1.790   0.676   1.927
 6859TIP3    H142136   1.720   0.740   1.916
 6859TIP3    H242137   1.747   0.591   1.910
 6860TIP3   OH242138   1.635   0.430   1.876
 6860TIP3    H142139   1.680   0.371   1.936
 6860TIP3    H242140   1.548   0.393   1.865
 6861TIP3   OH242141   1.782   0.268   2.049
 6861TIP3    H142142   1.869   0.241   2.020
 6861TIP3    H242143   1.798   0.312   2.133
 6862TIP3   OH242144   0.194   0.113   1.991
 6862TIP3    H142145   0.217   0.188   2.046
 6862TIP3    H242146   0.141   0.057   2.048
 6863TIP3   OH242147   0.435   0.325   1.993
 6863TIP3    H142148   0.438   0.237   1.955
 6863TIP3    H242149   0.380   0.315   2.071
 6864TIP3   OH242150   2.892   0.817   2.006
 6864TIP3    H142151   2.798   0.826   2.018
 6864TIP3    H242152   2.903   0.732   1.963
 6865TIP3   OH242153   2.508   0.412   1.849
 6865TIP3    H142154   2.564   0.334   1.857
 6865TIP3    H242155   2.519   0.458   1.932
 6866TIP3   OH242156   3.722   0.650   2.174
 6866TIP3    H142157   3.674   0.648   2.092
 6866TIP3    H242158   3.729   0.743   2.196
 6867TIP3   OH242159   2.728   1.381   1.918
 6867TIP3    H142160   2.812   1.340   1.900
 6867TIP3    H242161   2.664   1.325   1.873
 6868TIP3   OH242162   2.295   1.411   2.022
 6868TIP3    H142163   2.359   1.480   2.044
 6868TIP3    H242164   2.345   1.350   1.967
 6869TIP3   OH242165   2.885   1.617   1.895
 6869TIP3    H142166   2.833   1.543   1.926
 6869TIP3    H242167   2.952   1.629   1.963
 6870TIP3   OH242168   2.424   1.207   1.883
 6870TIP3    H142169   2.432   1.153   1.962
 6870TIP3    H242170   2.502   1.186   1.832
 6871TIP3   OH242171   2.989   1.273   1.882
 6871TIP3    H142172   3.073   1.288   1.925
 6871TIP3    H242173   2.989   1.181   1.860
 6872TIP3   OH242174   2.034   1.376   1.949
 6872TIP3    H142175   2.120   1.380   1.992
 6872TIP3    H242176   2.027   1.286   1.916
 6873TIP3   OH242177   3.604   0.640   1.925
 6873TIP3    H142178   3.541   0.667   1.859
 6873TIP3    H242179   3.604   0.544   1.922
 6874TIP3   OH242180   2.098   0.147   2.159
 6874TIP3    H142181   2.053   0.064   2.176
 6874TIP3    H242182   2.083   0.199   2.238
 6875TIP3   OH242183   2.293   0.281   2.034
 6875TIP3    H142184   2.317   0.233   1.954
 6875TIP3    H242185   2.220   0.231   2.070
 6876TIP3   OH242186   2.181   1.710   1.929
 6876TIP3    H142187   2.158   1.670   2.013
 6876TIP3    H242188   2.271   1.683   1.913
 6877TIP3   OH242189   5.190   0.887   2.164
 6877TIP3    H142190   5.219   0.960   2.218
 6877TIP3    H242191   5.180   0.923   2.076
 6878TIP3   OH242192   5.223   1.008   1.917
 6878TIP3    H142193   5.177   0.991   1.835
 6878TIP3    H242194   5.198   1.097   1.941
 6879TIP3   OH242195   4.433   0.333   1.884
 6879TIP3    H142196   4.436   0.321   1.979
 6879TIP3    H242197   4.374   0.407   1.870
 6880TIP3   OH242198   3.960   0.497   2.196
 6880TIP3    H142199   3.944   0.409   2.227
 6880TIP3    H242200   3.875   0.541   2.203
 6881TIP3   OH242201   4.275   0.755   2.018
 6881TIP3    H142202   4.270   0.681   1.957
 6881TIP3    H242203   4.367   0.780   2.018
 6882TIP3   OH242204   5.589   1.769   2.039
 6882TIP3    H142205   5.609   1.828   1.965
 6882TIP3    H242206   5.522   1.815   2.089
 6883TIP3   OH242207   4.571   1.386   1.941
 6883TIP3    H142208   4.577   1.308   1.885
 6883TIP3    H242209   4.524   1.357   2.019
 6884TIP3   OH242210   4.475   1.678   2.233
 6884TIP3    H142211   4.462   1.670   2.139
 6884TIP3    H242212   4.414   1.615   2.271
 6885TIP3   OH242213   4.465   0.317   2.151
 6885TIP3    H142214   4.414   0.377   2.206
 6885TIP3    H242215   4.556   0.344   2.165
 6886TIP3   OH242216   4.205   1.401   1.957
 6886TIP3    H142217   4.207   1.403   2.052
 6886TIP3    H242218   4.247   1.317   1.934
 6887TIP3   OH242219   3.946   0.646   1.941
 6887TIP3    H142220   3.984   0.598   2.014
 6887TIP3    H242221   3.851   0.637   1.954
 6888TIP3   OH242222   4.771   1.584   1.919
 6888TIP3    H142223   4.695   1.526   1.925
 6888TIP3    H242224   4.841   1.528   1.884
 6889TIP3   OH242225   5.225   1.531   1.950
 6889TIP3    H142226   5.241   1.449   1.997
 6889TIP3    H242227   5.301   1.540   1.892
 6890TIP3   OH242228   4.305   1.152   1.880
 6890TIP3    H142229   4.257   1.086   1.930
 6890TIP3    H242230   4.397   1.126   1.889
 6891TIP3   OH242231   4.875   1.274   1.900
 6891TIP3    H142232   4.813   1.258   1.971
 6891TIP3    H242233   4.886   1.189   1.858
 6892TIP3   OH242234   4.538   0.817   1.971
 6892TIP3    H142235   4.559   0.837   1.880
 6892TIP3    H242236   4.607   0.757   1.999
 6893TIP3   OH242237   5.273   0.434   2.015
 6893TIP3    H142238   5.356   0.387   2.016
 6893TIP3    H242239   5.215   0.381   1.960
 6894TIP3   OH242240   4.107   0.310   1.968
 6894TIP3    H142241   4.112   0.219   1.939
 6894TIP3    H242242   4.116   0.306   2.063
 6895TIP3   OH242243   4.807   1.800   2.114
 6895TIP3    H142244   4.889   1.847   2.099
 6895TIP3    H242245   4.795   1.747   2.035
 6896TIP3   OH242246   7.094   0.981   1.940
 6896TIP3    H142247   7.068   0.970   1.849
 6896TIP3    H242248   7.187   1.002   1.937
 6897TIP3   OH242249   6.218   0.452   1.864
 6897TIP3    H142250   6.277   0.379   1.884
 6897TIP3    H242251   6.238   0.475   1.773
 6898TIP3   OH242252   5.911   0.975   1.954
 6898TIP3    H142253   5.992   1.022   1.931
 6898TIP3    H242254   5.841   1.036   1.932
 6899TIP3   OH242255   7.046   1.579   1.916
 6899TIP3    H142256   7.055   1.530   1.997
 6899TIP3    H242257   7.135   1.591   1.884
 6900TIP3   OH242258   6.148   1.083   1.854
 6900TIP3    H142259   6.185   1.063   1.940
 6900TIP3    H242260   6.224   1.106   1.800
 6901TIP3   OH242261   6.780   1.276   1.908
 6901TIP3    H142262   6.804   1.233   1.990
 6901TIP3    H242263   6.776   1.204   1.844
 6902TIP3   OH242264   7.252   0.358   1.900
 6902TIP3    H142265   7.285   0.424   1.960
 6902TIP3    H242266   7.278   0.274   1.939
 6903TIP3   OH242267   1.787   3.367   1.935
 6903TIP3    H142268   1.779   3.421   2.013
 6903TIP3    H242269   1.876   3.331   1.940
 6904TIP3   OH242270   0.082   2.324   2.094
 6904TIP3    H142271   0.140   2.254   2.124
 6904TIP3    H242272   0.042   2.359   2.174
 6905TIP3   OH242273   0.123   2.783   2.097
 6905TIP3    H142274   0.080   2.766   2.181
 6905TIP3    H242275   0.054   2.823   2.043
 6906TIP3   OH242276   1.868   3.717   2.029
 6906TIP3    H142277   1.951   3.737   2.073
 6906TIP3    H242278   1.835   3.640   2.075
 6907TIP3   OH242279   0.824   3.265   1.903
 6907TIP3    H142280   0.787   3.188   1.861
 6907TIP3    H242281   0.750   3.324   1.917
 6908TIP3   OH242282   0.402   3.325   2.043
 6908TIP3    H142283   0.418   3.305   2.135
 6908TIP3    H242284   0.478   3.375   2.016
 6909TIP3   OH242285   0.150   2.550   1.946
 6909TIP3    H142286   0.151   2.616   2.016
 6909TIP3    H242287   0.133   2.467   1.992
 6910TIP3   OH242288   1.458   3.430   1.931
 6910TIP3    H142289   1.532   3.400   1.983
 6910TIP3    H242290   1.497   3.454   1.846
 6911TIP3   OH242291   1.771   2.898   1.884
 6911TIP3    H142292   1.747   2.836   1.953
 6911TIP3    H242293   1.722   2.978   1.905
 6912TIP3   OH242294   0.729   3.728   2.044
 6912TIP3    H142295   0.807   3.783   2.055
 6912TIP3    H242296   0.667   3.761   2.109
 6913TIP3   OH242297   0.163   3.273   1.918
 6913TIP3    H142298   0.240   3.288   1.972
 6913TIP3    H242299   0.158   3.177   1.909
 6914TIP3   OH242300   1.581   2.154   1.848
 6914TIP3    H142301   1.642   2.166   1.920
 6914TIP3    H242302   1.513   2.220   1.863
 6915TIP3   OH242303   1.783   2.167   2.032
 6915TIP3    H142304   1.845   2.110   1.986
 6915TIP3    H242305   1.838   2.231   2.077
 6916TIP3   OH242306   0.374   2.152   2.006
 6916TIP3    H142307   0.417   2.087   1.950
 6916TIP3    H242308   0.389   2.121   2.095
 6917TIP3   OH242309   2.926   2.692   2.017
 6917TIP3    H142310   2.943   2.715   2.108
 6917TIP3    H242311   3.000   2.637   1.992
 6918TIP3   OH242312   3.197   2.773   2.185
 6918TIP3    H142313   3.240   2.695   2.219
 6918TIP3    H242314   3.239   2.788   2.100
 6919TIP3   OH242315   3.518   1.894   2.106
 6919TIP3    H142316   3.470   1.811   2.109
 6919TIP3    H242317   3.563   1.900   2.190
 6920TIP3   OH242318   3.679   3.343   1.953
 6920TIP3    H142319   3.659   3.329   2.046
 6920TIP3    H242320   3.773   3.330   1.946
 6921TIP3   OH242321   3.311   2.841   1.941
 6921TIP3    H142322   3.338   2.860   1.851
 6921TIP3    H242323   3.374   2.888   1.996
 6922TIP3   OH242324   2.873   2.223   2.068
 6922TIP3    H142325   2.906   2.165   2.136
 6922TIP3    H242326   2.817   2.168   2.014
 6923TIP3   OH242327   2.520   2.322   1.957
 6923TIP3    H142328   2.584   2.390   1.979
 6923TIP3    H242329   2.458   2.366   1.899
 6924TIP3   OH242330   3.142   2.295   2.028
 6924TIP3    H142331   3.050   2.288   2.055
 6924TIP3    H242332   3.191   2.303   2.109
 6925TIP3   OH242333   2.663   3.292   1.920
 6925TIP3    H142334   2.695   3.219   1.867
 6925TIP3    H242335   2.623   3.251   1.996
 6926TIP3   OH242336   2.297   3.218   2.053
 6926TIP3    H142337   2.308   3.313   2.044
 6926TIP3    H242338   2.378   3.189   2.095
 6927TIP3   OH242339   2.973   3.179   1.861
 6927TIP3    H142340   3.020   3.205   1.940
 6927TIP3    H242341   2.973   3.083   1.864
 6928TIP3   OH242342   2.671   2.593   1.932
 6928TIP3    H142343   2.655   2.664   1.870
 6928TIP3    H242344   2.750   2.620   1.979
 6929TIP3   OH242345   2.048   3.253   1.930
 6929TIP3    H142346   2.119   3.236   1.993
 6929TIP3    H242347   2.024   3.166   1.898
 6930TIP3   OH242348   2.244   3.646   1.900
 6930TIP3    H142349   2.255   3.696   1.981
 6930TIP3    H242350   2.323   3.592   1.894
 6931TIP3   OH242351   5.411   1.938   2.169
 6931TIP3    H142352   5.347   1.950   2.239
 6931TIP3    H242353   5.453   2.024   2.160
 6932TIP3   OH242354   5.600   3.419   1.952
 6932TIP3    H142355   5.624   3.510   1.971
 6932TIP3    H242356   5.673   3.367   1.986
 6933TIP3   OH242357   5.124   2.813   1.895
 6933TIP3    H142358   5.153   2.798   1.805
 6933TIP3    H242359   5.199   2.856   1.937
 6934TIP3   OH242360   4.375   2.579   2.011
 6934TIP3    H142361   4.372   2.487   2.036
 6934TIP3    H242362   4.320   2.585   1.933
 6935TIP3   OH242363   4.930   3.219   2.178
 6935TIP3    H142364   4.861   3.283   2.193
 6935TIP3    H242365   4.926   3.161   2.254
 6936TIP3   OH242366   3.858   2.808   2.005
 6936TIP3    H142367   3.917   2.826   2.078
 6936TIP3    H242368   3.771   2.828   2.040
 6937TIP3   OH242369   5.155   3.201   2.020
 6937TIP3    H142370   5.218   3.200   2.092
 6937TIP3    H242371   5.069   3.205   2.062
 6938TIP3   OH242372   4.472   3.240   2.095
 6938TIP3    H142373   4.489   3.162   2.148
 6938TIP3    H242374   4.536   3.304   2.126
 6939TIP3   OH242375   4.204   3.222   2.009
 6939TIP3    H142376   4.279   3.252   2.059
 6939TIP3    H242377   4.237   3.148   1.958
 6940TIP3   OH242378   4.341   3.017   1.875
 6940TIP3    H142379   4.346   2.957   1.950
 6940TIP3    H242380   4.431   3.043   1.859
 6941TIP3   OH242381   4.370   2.848   2.089
 6941TIP3    H142382   4.323   2.860   2.172
 6941TIP3    H242383   4.370   2.753   2.075
 6942TIP3   OH242384   5.385   2.910   1.925
 6942TIP3    H142385   5.429   2.885   1.843
 6942TIP3    H242386   5.391   3.006   1.926
 6943TIP3   OH242387   3.946   3.267   1.930
 6943TIP3    H142388   4.028   3.264   1.980
 6943TIP3    H242389   3.928   3.175   1.909
 6944TIP3   OH242390   5.337   2.479   1.953
 6944TIP3    H142391   5.353   2.548   2.017
 6944TIP3    H242392   5.347   2.521   1.868
 6945TIP3   OH242393   5.398   2.216   1.902
 6945TIP3    H142394   5.447   2.196   1.981
 6945TIP3    H242395   5.364   2.304   1.916
 6946TIP3   OH242396   5.568   2.164   2.117
 6946TIP3    H142397   5.648   2.124   2.084
 6946TIP3    H242398   5.598   2.242   2.164
 6947TIP3   OH242399   4.082   3.648   1.908
 6947TIP3    H142400   4.035   3.677   1.986
 6947TIP3    H242401   4.160   3.605   1.942
 6948TIP3   OH242402   6.999   2.786   2.175
 6948TIP3    H142403   6.904   2.789   2.185
 6948TIP3    H242404   7.015   2.830   2.092
 6949TIP3   OH242405   7.164   2.925   1.963
 6949TIP3    H142406   7.122   2.888   1.885
 6949TIP3    H242407   7.119   3.008   1.978
 6950TIP3   OH242408   6.392   2.270   1.950
 6950TIP3    H142409   6.446   2.282   2.028
 6950TIP3    H242410   6.330   2.343   1.952
 6951TIP3   OH242411   7.048   3.168   2.038
 6951TIP3    H142412   7.102   3.156   2.116
 6951TIP3    H242413   6.982   3.232   2.066
 6952TIP3   OH242414   7.096   3.467   1.915
 6952TIP3    H142415   7.045   3.475   1.995
 6952TIP3    H242416   7.164   3.404   1.935
 6953TIP3   OH242417   6.223   3.080   1.893
 6953TIP3    H142418   6.220   3.081   1.989
 6953TIP3    H242419   6.313   3.057   1.872
 6954TIP3   OH242420   6.754   3.187   1.858
 6954TIP3    H142421   6.718   3.184   1.947
 6954TIP3    H242422   6.760   3.095   1.831
 6955TIP3   OH242423   5.863   3.281   1.997
 6955TIP3    H142424   5.921   3.292   2.071
 6955TIP3    H242425   5.863   3.187   1.979
 6956TIP3   OH242426   7.243   2.264   1.863
 6956TIP3    H142427   7.292   2.278   1.944
 6956TIP3    H242428   7.153   2.287   1.885
 6957TIP3   OH242429   5.939   3.619   1.925
 6957TIP3    H142430   5.859   3.655   1.963
 6957TIP3    H242431   5.946   3.531   1.962
 6958TIP3   OH242432   1.600   3.814   2.174
 6958TIP3    H142433   1.647   3.732   2.163
 6958TIP3    H242434   1.592   3.826   2.268
 6959TIP3   OH242435   1.323   5.523   2.046
 6959TIP3    H142436   1.368   5.439   2.052
 6959TIP3    H242437   1.344   5.567   2.129
 6960TIP3   OH242438   0.075   4.200   2.127
 6960TIP3    H142439   0.140   4.268   2.110
 6960TIP3    H242440   0.054   4.210   2.220
 6961TIP3   OH242441   0.081   4.649   2.048
 6961TIP3    H142442   0.077   4.603   2.131
 6961TIP3    H242443   0.000   4.699   2.044
 6962TIP3   OH242444   0.712   5.186   1.917
 6962TIP3    H142445   0.783   5.141   1.871
 6962TIP3    H242446   0.754   5.224   1.994
 6963TIP3   OH242447   0.897   5.274   2.113
 6963TIP3    H142448   0.870   5.236   2.197
 6963TIP3    H242449   0.913   5.366   2.132
 6964TIP3   OH242450   0.242   4.403   2.011
 6964TIP3    H142451   0.200   4.477   2.056
 6964TIP3    H242452   0.190   4.392   1.931
 6965TIP3   OH242453   1.020   5.354   1.866
 6965TIP3    H142454   0.991   5.300   1.940
 6965TIP3    H242455   1.107   5.320   1.845
 6966TIP3   OH242456   1.109   5.034   1.861
 6966TIP3    H142457   1.181   5.020   1.922
 6966TIP3    H242458   1.103   4.952   1.811
 6967TIP3   OH242459   0.731   5.633   1.988
 6967TIP3    H142460   0.808   5.600   2.035
 6967TIP3    H242461   0.756   5.721   1.961
 6968TIP3   OH242462   0.225   5.086   1.983
 6968TIP3    H142463   0.193   5.122   2.066
 6968TIP3    H242464   0.155   5.028   1.954
 6969TIP3   OH242465   0.998   5.539   2.072
 6969TIP3    H142466   1.081   5.573   2.104
 6969TIP3    H242467   1.021   5.494   1.991
 6970TIP3   OH242468   3.217   4.679   2.154
 6970TIP3    H142469   3.164   4.757   2.165
 6970TIP3    H242470   3.249   4.684   2.064
 6971TIP3   OH242471   3.180   5.516   2.057
 6971TIP3    H142472   3.101   5.473   2.089
 6971TIP3    H242473   3.204   5.578   2.127
 6972TIP3   OH242474   3.292   4.727   1.897
 6972TIP3    H142475   3.283   4.712   1.802
 6972TIP3    H242476   3.378   4.766   1.907
 6973TIP3   OH242477   2.333   4.452   2.042
 6973TIP3    H142478   2.370   4.435   1.955
 6973TIP3    H242479   2.374   4.533   2.070
 6974TIP3   OH242480   2.635   5.197   1.904
 6974TIP3    H142481   2.642   5.110   1.863
 6974TIP3    H242482   2.618   5.179   1.996
 6975TIP3   OH242483   2.597   5.127   2.162
 6975TIP3    H142484   2.520   5.082   2.196
 6975TIP3    H242485   2.671   5.077   2.196
 6976TIP3   OH242486   2.929   5.402   2.173
 6976TIP3    H142487   2.878   5.355   2.239
 6976TIP3    H242488   2.877   5.396   2.093
 6977TIP3   OH242489   2.867   5.339   1.886
 6977TIP3    H142490   2.779   5.301   1.890
 6977TIP3    H242491   2.926   5.266   1.903
 6978TIP3   OH242492   2.375   4.891   1.877
 6978TIP3    H142493   2.352   4.874   1.969
 6978TIP3    H242494   2.469   4.910   1.879
 6979TIP3   OH242495   3.008   5.104   1.931
 6979TIP3    H142496   3.001   5.081   2.023
 6979TIP3    H242497   2.994   5.022   1.884
 6980TIP3   OH242498   3.543   4.847   1.879
 6980TIP3    H142499   3.562   4.814   1.792
 6980TIP3    H242500   3.544   4.943   1.869
 6981TIP3   OH242501   2.570   5.676   2.097
 6981TIP3    H142502   2.645   5.674   2.158
 6981TIP3    H242503   2.607   5.710   2.016
 6982TIP3   OH242504   3.724   3.992   2.022
 6982TIP3    H142505   3.634   3.993   2.055
 6982TIP3    H242506   3.756   4.081   2.038
 6983TIP3   OH242507   2.106   3.819   2.143
 6983TIP3    H142508   2.193   3.845   2.113
 6983TIP3    H242509   2.109   3.831   2.238
 6984TIP3   OH242510   4.814   4.475   2.019
 6984TIP3    H142511   4.808   4.386   2.053
 6984TIP3    H242512   4.887   4.472   1.958
 6985TIP3   OH242513   5.246   4.746   1.941
 6985TIP3    H142514   5.242   4.732   1.846
 6985TIP3    H242515   5.339   4.760   1.959
 6986TIP3   OH242516   4.762   4.173   1.998
 6986TIP3    H142517   4.832   4.177   2.063
 6986TIP3    H242518   4.737   4.080   1.996
 6987TIP3   OH242519   4.433   4.141   1.986
 6987TIP3    H142520   4.492   4.145   2.061
 6987TIP3    H242521   4.401   4.231   1.976
 6988TIP3   OH242522   4.353   4.399   1.961
 6988TIP3    H142523   4.284   4.437   1.906
 6988TIP3    H242524   4.415   4.470   1.976
 6989TIP3   OH242525   5.567   4.445   2.125
 6989TIP3    H142526   5.507   4.411   2.058
 6989TIP3    H242527   5.562   4.540   2.115
 6990TIP3   OH242528   3.990   4.678   2.026
 6990TIP3    H142529   4.080   4.660   2.051
 6990TIP3    H242530   3.944   4.595   2.036
 6991TIP3   OH242531   4.584   5.195   1.901
 6991TIP3    H142532   4.587   5.110   1.859
 6991TIP3    H242533   4.649   5.190   1.971
 6992TIP3   OH242534   4.408   5.478   2.264
 6992TIP3    H142535   4.498   5.471   2.231
 6992TIP3    H242536   4.416   5.530   2.344
 6993TIP3   OH242537   4.309   4.934   1.876
 6993TIP3    H142538   4.309   4.862   1.939
 6993TIP3    H242539   4.401   4.940   1.848
 6994TIP3   OH242540   4.343   4.737   2.066
 6994TIP3    H142541   4.363   4.796   2.139
 6994TIP3    H242542   4.423   4.687   2.053
 6995TIP3   OH242543   4.560   4.590   1.968
 6995TIP3    H142544   4.576   4.622   1.879
 6995TIP3    H242545   4.644   4.553   1.995
 6996TIP3   OH242546   5.393   4.360   1.934
 6996TIP3    H142547   5.389   4.380   1.841
 6996TIP3    H242548   5.313   4.311   1.952
 6997TIP3   OH242549   5.634   4.044   1.987
 6997TIP3    H142550   5.654   3.984   2.059
 6997TIP3    H242551   5.609   4.126   2.030
 6998TIP3   OH242552   4.179   4.029   1.976
 6998TIP3    H142553   4.199   3.956   1.917
 6998TIP3    H242554   4.264   4.069   1.993
 6999TIP3   OH242555   6.703   4.607   1.973
 6999TIP3    H142556   6.756   4.626   2.051
 6999TIP3    H242557   6.745   4.531   1.933
 7000TIP3   OH242558   6.917   4.615   2.156
 7000TIP3    H142559   6.924   4.622   2.251
 7000TIP3    H242560   6.992   4.665   2.123
 7001TIP3   OH242561   7.130   4.769   2.040
 7001TIP3    H142562   7.092   4.780   1.952
 7001TIP3    H242563   7.097   4.844   2.090
 7002TIP3   OH242564   6.409   4.113   1.943
 7002TIP3    H142565   6.456   4.101   2.025
 7002TIP3    H242566   6.317   4.107   1.967
 7003TIP3   OH242567   6.091   4.524   1.983
 7003TIP3    H142568   6.116   4.479   1.902
 7003TIP3    H242569   6.174   4.533   2.031
 7004TIP3   OH242570   6.966   4.353   2.076
 7004TIP3    H142571   7.035   4.358   2.141
 7004TIP3    H242572   6.912   4.430   2.092
 7005TIP3   OH242573   6.502   5.140   1.946
 7005TIP3    H142574   6.469   5.069   1.891
 7005TIP3    H242575   6.453   5.132   2.028
 7006TIP3   OH242576   6.678   5.339   1.867
 7006TIP3    H142577   6.602   5.298   1.910
 7006TIP3    H242578   6.737   5.267   1.849
 7007TIP3   OH242579   6.205   4.933   1.886
 7007TIP3    H142580   6.209   4.892   1.972
 7007TIP3    H242581   6.295   4.929   1.854
 7008TIP3   OH242582   6.757   5.066   1.858
 7008TIP3    H142583   6.674   5.077   1.904
 7008TIP3    H242584   6.765   4.972   1.844
 7009TIP3   OH242585   6.414   4.567   1.937
 7009TIP3    H142586   6.419   4.616   1.855
 7009TIP3    H242587   6.500   4.579   1.977
 7010TIP3   OH242588   6.329   5.619   1.977
 7010TIP3    H142589   6.336   5.538   2.028
 7010TIP3    H242590   6.418   5.652   1.972
 7011TIP3   OH242591   7.233   4.159   1.900
 7011TIP3    H142592   7.290   4.153   1.977
 7011TIP3    H242593   7.171   4.228   1.922
 7012TIP3   OH242594   6.114   4.051   1.962
 7012TIP3    H142595   6.109   3.965   1.919
 7012TIP3    H242596   6.097   4.033   2.054
 7013TIP3   OH242597   6.730   5.543   2.041
 7013TIP3    H142598   6.712   5.489   1.964
 7013TIP3    H242599   6.665   5.515   2.105
 7014TIP3   OH242600   1.799   7.179   1.957
 7014TIP3    H142601   1.740   7.232   2.011
 7014TIP3    H242602   1.874   7.161   2.013
 7015TIP3   OH242603   1.358   6.618   1.906
 7015TIP3    H142604   1.366   6.607   1.811
 7015TIP3    H242605   1.394   6.705   1.924
 7016TIP3   OH242606   0.573   6.139   1.959
 7016TIP3    H142607   0.651   6.106   2.004
 7016TIP3    H242608   0.550   6.219   2.007
 7017TIP3   OH242609   1.209   6.124   2.058
 7017TIP3    H142610   1.125   6.087   2.085
 7017TIP3    H242611   1.245   6.163   2.137
 7018TIP3   OH242612   1.389   6.957   2.038
 7018TIP3    H142613   1.395   6.915   2.124
 7018TIP3    H242614   1.385   7.051   2.058
 7019TIP3   OH242615   0.799   7.013   1.851
 7019TIP3    H142616   0.757   6.975   1.774
 7019TIP3    H242617   0.733   7.073   1.886
 7020TIP3   OH242618   0.985   7.148   2.172
 7020TIP3    H142619   0.907   7.201   2.189
 7020TIP3    H242620   1.005   7.164   2.080
 7021TIP3   OH242621   0.764   0.018   2.159
 7021TIP3    H142622   0.788   0.089   2.100
 7021TIP3    H242623   0.723   0.062   2.234
 7022TIP3   OH242624   0.350   7.028   1.989
 7022TIP3    H142625   0.393   7.087   2.051
 7022TIP3    H242626   0.398   6.946   1.996
 7023TIP3   OH242627   1.022   7.167   1.903
 7023TIP3    H142628   0.946   7.117   1.875
 7023TIP3    H242629   1.090   7.146   1.839
 7024TIP3   OH242630   0.529   6.757   1.955
 7024TIP3    H142631   0.462   6.699   1.992
 7024TIP3    H242632   0.609   6.733   2.001
 7025TIP3   OH242633   0.062   7.002   1.938
 7025TIP3    H142634   0.144   7.017   1.984
 7025TIP3    H242635   0.081   6.930   1.877
 7026TIP3   OH242636   1.572   6.083   1.876
 7026TIP3    H142637   1.613   6.001   1.901
 7026TIP3    H242638   1.482   6.059   1.852
 7027TIP3   OH242639   3.636   7.088   2.018
 7027TIP3    H142640   3.685   7.161   1.982
 7027TIP3    H242641   3.699   7.043   2.075
 7028TIP3   OH242642   3.373   6.600   1.958
 7028TIP3    H142643   3.330   6.589   1.873
 7028TIP3    H242644   3.390   6.694   1.965
 7029TIP3   OH242645   2.535   6.054   1.905
 7029TIP3    H142646   2.454   6.004   1.907
 7029TIP3    H242647   2.514   6.136   1.950
 7030TIP3   OH242648   2.070   6.037   2.224
 7030TIP3    H142649   2.087   6.101   2.154
 7030TIP3    H242650   1.996   6.074   2.272
 7031TIP3   OH242651   2.471   6.272   2.072
 7031TIP3    H142652   2.415   6.325   2.129
 7031TIP3    H242653   2.534   6.334   2.036
 7032TIP3   OH242654   2.060   6.542   2.022
 7032TIP3    H142655   2.132   6.594   2.057
 7032TIP3    H242656   1.981   6.584   2.059
 7033TIP3   OH242657   2.680   7.048   1.851
 7033TIP3    H142658   2.695   6.960   1.818
 7033TIP3    H242659   2.712   7.045   1.941
 7034TIP3   OH242660   2.575   7.027   2.133
 7034TIP3    H142661   2.641   6.998   2.196
 7034TIP3    H242662   2.573   7.122   2.142
 7035TIP3   OH242663   2.181   6.774   2.161
 7035TIP3    H142664   2.249   6.733   2.216
 7035TIP3    H242665   2.227   6.847   2.118
 7036TIP3   OH242666   2.575   7.298   2.123
 7036TIP3    H142667   2.540   0.001   2.033
 7036TIP3    H242668   2.660   0.038   2.119
 7037TIP3   OH242669   2.475   6.019   2.211
 7037TIP3    H142670   2.466   6.102   2.164
 7037TIP3    H242671   2.546   5.973   2.166
 7038TIP3   OH242672   2.313   6.979   2.027
 7038TIP3    H142673   2.388   7.016   2.074
 7038TIP3    H242674   2.352   6.927   1.957
 7039TIP3   OH242675   2.041   6.256   2.042
 7039TIP3    H142676   2.066   6.348   2.040
 7039TIP3    H242677   2.017   6.235   1.952
 7040TIP3   OH242678   3.439   7.268   1.927
 7040TIP3    H142679   3.494   7.197   1.960
 7040TIP3    H242680   3.461   7.274   1.834
 7041TIP3   OH242681   2.448   6.799   1.868
 7041TIP3    H142682   2.452   6.748   1.950
 7041TIP3    H242683   2.540   6.808   1.842
 7042TIP3   OH242684   2.964   6.901   1.789
 7042TIP3    H142685   2.956   6.968   1.856
 7042TIP3    H242686   2.878   6.858   1.788
 7043TIP3   OH242687   2.494   6.642   2.087
 7043TIP3    H142688   2.455   6.593   2.159
 7043TIP3    H242689   2.554   6.580   2.045
 7044TIP3   OH242690   2.654   6.463   1.950
 7044TIP3    H142691   2.637   6.477   1.857
 7044TIP3    H242692   2.745   6.489   1.962
 7045TIP3   OH242693   3.478   6.005   1.878
 7045TIP3    H142694   3.499   5.982   1.969
 7045TIP3    H242695   3.385   5.984   1.870
 7046TIP3   OH242696   2.309   5.913   1.981
 7046TIP3    H142697   2.318   5.826   1.943
 7046TIP3    H242698   2.346   5.903   2.070
 7047TIP3   OH242699   5.590   7.192   1.992
 7047TIP3    H142700   5.523   7.239   2.040
 7047TIP3    H242701   5.631   7.135   2.057
 7048TIP3   OH242702   4.480   6.052   1.955
 7048TIP3    H142703   4.453   6.047   2.047
 7048TIP3    H242704   4.410   6.101   1.912
 7049TIP3   OH242705   4.335   6.309   2.056
 7049TIP3    H142706   4.301   6.276   1.973
 7049TIP3    H242707   4.417   6.352   2.033
 7050TIP3   OH242708   4.651   7.011   1.886
 7050TIP3    H142709   4.606   6.938   1.842
 7050TIP3    H242710   4.595   7.032   1.960
 7051TIP3   OH242711   4.187   6.760   2.145
 7051TIP3    H142712   4.122   6.727   2.208
 7051TIP3    H242713   4.153   6.846   2.118
 7052TIP3   OH242714   4.719   7.225   2.119
 7052TIP3    H142715   4.630   7.257   2.135
 7052TIP3    H242716   4.776   7.292   2.158
 7053TIP3   OH242717   4.478   0.046   2.154
 7053TIP3    H142718   4.478   0.142   2.146
 7053TIP3    H242719   4.425   0.029   2.232
 7054TIP3   OH242720   4.411   5.988   2.215
 7054TIP3    H142721   4.354   6.038   2.273
 7054TIP3    H242722   4.472   5.943   2.273
 7055TIP3   OH242723   4.215   7.034   2.034
 7055TIP3    H142724   4.260   7.112   2.000
 7055TIP3    H242725   4.251   6.962   1.982
 7056TIP3   OH242726   4.838   7.242   1.829
 7056TIP3    H142727   4.791   0.019   1.849
 7056TIP3    H242728   4.796   7.176   1.884
 7057TIP3   OH242729   4.328   6.822   1.901
 7057TIP3    H142730   4.319   6.768   1.980
 7057TIP3    H242731   4.414   6.799   1.866
 7058TIP3   OH242732   4.913   6.918   1.855
 7058TIP3    H142733   4.824   6.950   1.873
 7058TIP3    H242734   4.902   6.825   1.837
 7059TIP3   OH242735   4.553   6.460   1.963
 7059TIP3    H142736   4.551   6.499   1.876
 7059TIP3    H242737   4.514   6.527   2.020
 7060TIP3   OH242738   5.454   6.700   1.971
 7060TIP3    H142739   5.437   6.662   1.884
 7060TIP3    H242740   5.446   6.794   1.956
 7061TIP3   OH242741   5.610   6.571   2.179
 7061TIP3    H142742   5.540   6.605   2.122
 7061TIP3    H242743   5.564   6.518   2.244
 7062TIP3   OH242744   5.317   6.337   1.894
 7062TIP3    H142745   5.400   6.377   1.867
 7062TIP3    H242746   5.329   6.244   1.875
 7063TIP3   OH242747   5.327   6.070   1.851
 7063TIP3    H142748   5.395   6.036   1.909
 7063TIP3    H242749   5.252   6.012   1.865
 7064TIP3   OH242750   5.516   5.981   2.026
 7064TIP3    H142751   5.576   5.917   1.988
 7064TIP3    H242752   5.554   6.001   2.112
 7065TIP3   OH242753   7.013   6.667   1.963
 7065TIP3    H142754   7.040   6.651   1.873
 7065TIP3    H242755   7.038   6.758   1.980
 7066TIP3   OH242756   6.665   5.973   2.052
 7066TIP3    H142757   6.598   6.037   2.072
 7066TIP3    H242758   6.622   5.911   1.992
 7067TIP3   OH242759   6.357   6.063   1.948
 7067TIP3    H142760   6.328   6.058   2.039
 7067TIP3    H242761   6.284   6.104   1.901
 7068TIP3   OH242762   6.915   6.073   2.130
 7068TIP3    H142763   6.822   6.050   2.124
 7068TIP3    H242764   6.931   6.084   2.224
 7069TIP3   OH242765   6.871   6.348   2.295
 7069TIP3    H142766   6.858   6.286   2.367
 7069TIP3    H242767   6.801   6.328   2.232
 7070TIP3   OH242768   5.807   6.614   1.987
 7070TIP3    H142769   5.869   6.668   2.036
 7070TIP3    H242770   5.736   6.596   2.048
 7071TIP3   OH242771   7.086   6.917   2.075
 7071TIP3    H142772   7.181   6.928   2.072
 7071TIP3    H242773   7.053   7.003   2.102
 7072TIP3   OH242774   6.469   6.966   1.857
 7072TIP3    H142775   6.447   6.903   1.788
 7072TIP3    H242776   6.502   6.913   1.929
 7073TIP3   OH242777   5.948   6.785   2.142
 7073TIP3    H142778   5.904   6.800   2.226
 7073TIP3    H242779   5.981   6.871   2.117
 7074TIP3   OH242780   6.077   6.999   2.003
 7074TIP3    H142781   6.139   7.064   1.969
 7074TIP3    H242782   6.114   6.915   1.975
 7075TIP3   OH242783   6.627   7.229   1.781
 7075TIP3    H142784   6.647   7.146   1.825
 7075TIP3    H242785   6.674   7.295   1.831
 7076TIP3   OH242786   7.166   7.187   1.866
 7076TIP3    H142787   7.138   7.223   1.950
 7076TIP3    H242788   7.236   7.125   1.888
 7077TIP3   OH242789   6.208   6.777   1.900
 7077TIP3    H142790   6.242   6.723   1.972
 7077TIP3    H242791   6.276   6.772   1.833
 7078TIP3   OH242792   7.224   6.015   1.866
 7078TIP3    H142793   7.248   5.972   1.948
 7078TIP3    H242794   7.132   5.993   1.854
   7.30356   7.30356   8.50000
