;;
;; Generated by CHARMM-GUI FF-Converter
;;
;; Correspondance:
;; jul316@lehigh.edu or wonpil@lehigh.edu
;;
;; The main GROMACS topology file
;;

; Include forcefield parameters
#include "toppar/forcefield.itp"
#include "toppar/SAPS.itp"
#include "toppar/CHL1.itp"
#include "toppar/SOPE.itp"
#include "toppar/SAPC.itp"
#include "toppar/OSM.itp"
#include "toppar/SAPE.itp"
#include "toppar/SLPC.itp"
#include "toppar/POPC.itp"
#include "toppar/SAPI.itp"
#include "toppar/SOD.itp"
#include "toppar/CLA.itp"
#include "toppar/TIP3.itp"

[ system ]
; Name
Title

[ molecules ]
; Compound	#mols
SAPS  	          20
CHL1  	          56
SOPE  	          12
SAPC  	          12
OSM   	          44
SAPE  	          28
SLPC  	          12
POPC  	           4
SAPI  	           4
SOD   	          41
CLA   	          17
TIP3  	        6828
