;;
;; Generated by CHARMM-GUI (http://www.charmm-gui.org) v1.7
;;
;; psf2itp_mol.py
;;
;; Correspondance:
;; jul316@lehigh.edu or wonpil@lehigh.edu
;;
;; GROMACS topology file for LIG
;;


[ moleculetype ]
; name	nrexcl
LIG	     3

[ atoms ]
; nr	type	resnr	residu	atom	cgnr	charge	mass
     1      SG311      1      LIG     S1      1     -0.184    32.0600   ; qtot -0.184
     2      SG311      1      LIG     S2      2     -0.165    32.0600   ; qtot -0.349
     3      SG311      1      LIG     S3      3      0.207    32.0600   ; qtot -0.142
     4      OG2D1      1      LIG     O1      4     -0.469    15.9994   ; qtot -0.611
     5      OG311      1      LIG     O2      5     -0.671    15.9994   ; qtot -1.282
     6      OG2D1      1      LIG     O3      6     -0.534    15.9994   ; qtot -1.816
     7      OG2D1      1      LIG    OXT      7     -0.461    15.9994   ; qtot -2.277
     8     OG2R50      1      LIG     O4      8     -0.269    15.9994   ; qtot -2.546
     9     NG2R43      1      LIG     N1      9     -0.125    14.0070   ; qtot -2.671
    10      NG2S1      1      LIG     N2     10     -0.566    14.0070   ; qtot -3.237
    11     NG2R51      1      LIG     N3     11      0.247    14.0070   ; qtot -2.990
    12     NG2R50      1      LIG     N4     12     -0.583    14.0070   ; qtot -3.573
    13     NG2R50      1      LIG     N5     13     -0.321    14.0070   ; qtot -3.894
    14     NG2R50      1      LIG     N6     14     -0.093    14.0070   ; qtot -3.987
    15     CG3RC1      1      LIG     C1     15     -0.015    12.0110   ; qtot -4.002
    16     CG3C41      1      LIG    CA1     16      0.313    12.0110   ; qtot -3.689
    17     CG2R53      1      LIG     C2     17      0.254    12.0110   ; qtot -3.435
    18     CG2D1O      1      LIG    CA2     18      0.381    12.0110   ; qtot -3.054
    19     CG2DC1      1      LIG     C3     19      0.107    12.0110   ; qtot -2.947
    20      CG321      1      LIG     C4     20     -0.079    12.0110   ; qtot -3.026
    21      CG321      1      LIG     C5     21     -0.080    12.0110   ; qtot -3.106
    22      CG2O1      1      LIG     C6     22      0.583    12.0110   ; qtot -2.523
    23      CG2O2      1      LIG     C7     23      0.393    12.0110   ; qtot -2.130
    24      CG311      1      LIG     C8     24     -0.358    12.0110   ; qtot -2.488
    25     CG2R51      1      LIG     C9     25      0.505    12.0110   ; qtot -1.983
    26     CG2R53      1      LIG    C10     26      0.670    12.0110   ; qtot -1.313
    27     CG2R51      1      LIG    C11     27     -0.422    12.0110   ; qtot -1.735
    28      CG331      1      LIG    C12     28     -0.280    12.0110   ; qtot -2.015
    29     CG2R51      1      LIG    C13     29     -0.275    12.0110   ; qtot -2.290
    30     CG2R51      1      LIG    C14     30      0.062    12.0110   ; qtot -2.228
    31      CG331      1      LIG    C15     31     -0.180    12.0110   ; qtot -2.408
    32       HGA1      1      LIG     H1     32      0.090     1.0080   ; qtot -2.318
    33       HGA1      1      LIG     HA     33      0.090     1.0080   ; qtot -2.228
    34       HGA2      1      LIG     H2     34      0.090     1.0080   ; qtot -2.138
    35       HGA2      1      LIG     H3     35      0.090     1.0080   ; qtot -2.048
    36       HGP1      1      LIG     H4     36      0.302     1.0080   ; qtot -1.746
    37       HGA2      1      LIG     H5     37      0.090     1.0080   ; qtot -1.656
    38       HGA2      1      LIG     H6     38      0.090     1.0080   ; qtot -1.566
    39       HGA1      1      LIG     H7     39      0.090     1.0080   ; qtot -1.476
    40       HGP1      1      LIG     H8     40      0.439     1.0080   ; qtot -1.037
    41      HGR51      1      LIG     H9     41      0.170     1.0080   ; qtot -0.867
    42       HGA3      1      LIG    H10     42      0.090     1.0080   ; qtot -0.777
    43       HGA3      1      LIG    H11     43      0.090     1.0080   ; qtot -0.687
    44       HGA3      1      LIG    H12     44      0.090     1.0080   ; qtot -0.597
    45      HGR51      1      LIG    H13     45      0.189     1.0080   ; qtot -0.408
    46      HGR52      1      LIG    H14     46      0.138     1.0080   ; qtot -0.270
    47       HGA3      1      LIG    H15     47      0.090     1.0080   ; qtot -0.180
    48       HGA3      1      LIG    H16     48      0.090     1.0080   ; qtot -0.090
    49       HGA3      1      LIG    H17     49      0.090     1.0080   ; qtot -0.000

[ bonds ]
; ai	aj	funct	b0	Kb
    1    15     1
    1    20     1
    2    21     1
    2    26     1
    3    24     1
    3    28     1
    4    17     1
    5    23     1
    5    40     1
    6    22     1
    7    23     1
    8    25     1
    8    30     1
    9    15     1
    9    17     1
    9    18     1
   10    16     1
   10    22     1
   10    36     1
   11    13     1
   11    26     1
   11    31     1
   12    14     1
   12    26     1
   13    14     1
   15    16     1
   15    32     1
   16    17     1
   16    33     1
   18    19     1
   18    23     1
   19    20     1
   19    21     1
   20    34     1
   20    35     1
   21    37     1
   21    38     1
   22    24     1
   24    25     1
   24    39     1
   25    27     1
   27    29     1
   27    41     1
   28    42     1
   28    43     1
   28    44     1
   29    30     1
   29    45     1
   30    46     1
   31    47     1
   31    48     1
   31    49     1

[ pairs ]
; ai	aj	funct	c6	c12
    1    10     1 
    1    17     1 
    1    18     1 
    1    21     1 
    1    33     1 
    2    13     1 
    2    14     1 
    2    18     1 
    2    20     1 
    2    31     1 
    3     6     1 
    3     8     1 
    3    10     1 
    3    27     1 
    4    10     1 
    4    15     1 
    4    18     1 
    4    33     1 
    5     9     1 
    5    19     1 
    6    16     1 
    6    25     1 
    6    36     1 
    6    39     1 
    7     9     1 
    7    19     1 
    7    40     1 
    8    22     1 
    8    39     1 
    8    41     1 
    8    45     1 
    9    10     1 
    9    15     1 
    9    17     1 
    9    20     1 
    9    21     1 
    9    33     1 
   10    25     1 
   10    32     1 
   10    39     1 
   11    21     1 
   12    21     1 
   12    31     1 
   13    47     1 
   13    48     1 
   13    49     1 
   14    31     1 
   15    16     1 
   15    19     1 
   15    22     1 
   15    23     1 
   15    34     1 
   15    35     1 
   15    36     1 
   16    17     1 
   16    18     1 
   16    20     1 
   16    24     1 
   17    19     1 
   17    22     1 
   17    23     1 
   17    32     1 
   17    36     1 
   18    32     1 
   18    34     1 
   18    35     1 
   18    37     1 
   18    38     1 
   18    40     1 
   19    26     1 
   20    23     1 
   20    32     1 
   20    37     1 
   20    38     1 
   21    23     1 
   21    34     1 
   21    35     1 
   22    27     1 
   22    28     1 
   22    33     1 
   24    29     1 
   24    30     1 
   24    36     1 
   24    41     1 
   24    42     1 
   24    43     1 
   24    44     1 
   25    28     1 
   25    45     1 
   25    46     1 
   26    37     1 
   26    38     1 
   26    47     1 
   26    48     1 
   26    49     1 
   27    39     1 
   27    46     1 
   28    39     1 
   30    41     1 
   32    33     1 
   33    36     1 
   41    45     1 
   45    46     1 

[ angles ] 
; ai	aj	ak	funct	th0	cth	S0	Kub
   15     1    20     5
   21     2    26     5
   24     3    28     5
   23     5    40     5
   25     8    30     5
   15     9    17     5
   15     9    18     5
   17     9    18     5
   16    10    22     5
   16    10    36     5
   22    10    36     5
   13    11    26     5
   13    11    31     5
   26    11    31     5
   14    12    26     5
   11    13    14     5
   12    14    13     5
    1    15     9     5
    1    15    16     5
    1    15    32     5
    9    15    16     5
    9    15    32     5
   16    15    32     5
   10    16    15     5
   10    16    17     5
   10    16    33     5
   15    16    17     5
   15    16    33     5
   17    16    33     5
    4    17     9     5
    4    17    16     5
    9    17    16     5
    9    18    19     5
    9    18    23     5
   19    18    23     5
   18    19    20     5
   18    19    21     5
   20    19    21     5
    1    20    19     5
    1    20    34     5
    1    20    35     5
   19    20    34     5
   19    20    35     5
   34    20    35     5
    2    21    19     5
    2    21    37     5
    2    21    38     5
   19    21    37     5
   19    21    38     5
   37    21    38     5
    6    22    10     5
    6    22    24     5
   10    22    24     5
    5    23     7     5
    5    23    18     5
    7    23    18     5
    3    24    22     5
    3    24    25     5
    3    24    39     5
   22    24    25     5
   22    24    39     5
   25    24    39     5
    8    25    24     5
    8    25    27     5
   24    25    27     5
    2    26    11     5
    2    26    12     5
   11    26    12     5
   25    27    29     5
   25    27    41     5
   29    27    41     5
    3    28    42     5
    3    28    43     5
    3    28    44     5
   42    28    43     5
   42    28    44     5
   43    28    44     5
   27    29    30     5
   27    29    45     5
   30    29    45     5
    8    30    29     5
    8    30    46     5
   29    30    46     5
   11    31    47     5
   11    31    48     5
   11    31    49     5
   47    31    48     5
   47    31    49     5
   48    31    49     5

[ dihedrals ]
; ai	aj	ak	al	funct	phi0	cp	mult
   20     1    15    32     9
   15     1    20    19     9
   15     1    20    34     9
   15     1    20    35     9
   26     2    21    37     9
   26     2    21    38     9
   28     3    24    39     9
   24     3    28    42     9
   24     3    28    43     9
   24     3    28    44     9
   25     8    30    29     9
   25     8    30    46     9
   17     9    15    32     9
   18     9    15    32     9
   15     9    17    16     9
   15     9    18    19     9
   15     9    18    23     9
   17     9    18    19     9
   17     9    18    23     9
   22    10    16    33     9
   16    10    22    24     9
   13    11    31    47     9
   13    11    31    48     9
   13    11    31    49     9
   26    11    31    47     9
   26    11    31    48     9
   26    11    31    49     9
   14    13    11    26     9
   14    13    11    31     9
   11    13    14    12     9
   13    14    12    26     9
    9    15     1    20     9
   16    15     1    20     9
    1    15     9    17     9
    1    15     9    18     9
   16    15     9    17     9
   16    15     9    18     9
    1    15    16    10     9
    1    15    16    17     9
    1    15    16    33     9
    9    15    16    10     9
    9    15    16    17     9
    9    15    16    33     9
   32    15    16    33     9
   15    16    10    22     9
   15    16    10    36     9
   17    16    10    22     9
   17    16    10    36     9
   33    16    10    36     9
   10    16    15    32     9
   17    16    15    32     9
    4    17     9    15     9
    4    17     9    18     9
   16    17     9    18     9
    4    17    16    10     9
    4    17    16    15     9
    4    17    16    33     9
    9    17    16    10     9
    9    17    16    15     9
    9    17    16    33     9
    9    18    19    20     9
    9    18    19    21     9
   20    19    18    23     9
   21    19    18    23     9
   18    19    20    34     9
   18    19    20    35     9
   21    19    20    34     9
   21    19    20    35     9
   18    19    21    37     9
   18    19    21    38     9
   20    19    21    37     9
   20    19    21    38     9
    1    20    19    18     9
    1    20    19    21     9
   19    21     2    26     9
    2    21    19    18     9
    2    21    19    20     9
    6    22    10    16     9
    6    22    10    36     9
   24    22    10    36     9
    6    22    24    25     9
    6    22    24    39     9
   10    22    24    25     9
   10    22    24    39     9
    7    23     5    40     9
   18    23     5    40     9
    5    23    18     9     9
    5    23    18    19     9
    7    23    18     9     9
    7    23    18    19     9
   22    24     3    28     9
   25    24     3    28     9
    3    24    22     6     9
    3    24    22    10     9
    3    24    25     8     9
    3    24    25    27     9
   22    24    25    27     9
   24    25     8    30     9
   27    25     8    30     9
    8    25    24    22     9
    8    25    24    39     9
   27    25    24    39     9
    8    25    27    29     9
    8    25    27    41     9
   24    25    27    29     9
   24    25    27    41     9
   11    26     2    21     9
   12    26     2    21     9
    2    26    11    13     9
    2    26    11    31     9
   12    26    11    13     9
   12    26    11    31     9
    2    26    12    14     9
   11    26    12    14     9
   25    27    29    30     9
   25    27    29    45     9
   41    27    29    45     9
   30    29    27    41     9
   27    29    30    46     9
   45    29    30    46     9
    8    30    29    27     9
    8    30    29    45     9

[ dihedrals ]
; ai	aj	ak	al	funct	q0	cq
   17    16     9     4     2
   18    19    23     9     2
   22    24    10     6     2
   23    18     7     5     2
